 vasp.5.4.4.18Apr17-6-g9f103f2a35 (build Oct 25 2019 11:13:22) complex          
  
 executed on             LinuxIFC date 2022.02.13  02:33:36
 running on   48 total cores
 distrk:  each k-point on   48 cores,    1 groups
 distr:  one band on NCORES_PER_BAND=   1 cores,   48 groups


--------------------------------------------------------------------------------------------------------


 INCAR:
 POTCAR:    PAW_PBE Pt 04Feb2005                  
 POTCAR:    PAW_PBE Co 02Aug2007                  
 POTCAR:    PAW_PBE Ni 02Aug2007                  
 POTCAR:    PAW_PBE H 15Jun2001                   

 ----------------------------------------------------------------------------- 
|                                                                             |
|           W    W    AA    RRRRR   N    N  II  N    N   GGGG   !!!           |
|           W    W   A  A   R    R  NN   N  II  NN   N  G    G  !!!           |
|           W    W  A    A  R    R  N N  N  II  N N  N  G       !!!           |
|           W WW W  AAAAAA  RRRRR   N  N N  II  N  N N  G  GGG   !            |
|           WW  WW  A    A  R   R   N   NN  II  N   NN  G    G                |
|           W    W  A    A  R    R  N    N  II  N    N   GGGG   !!!           |
|                                                                             |
|      For optimal performance we recommend to set                            |
|        NCORE= 4 - approx SQRT( number of cores)                             |
|      NCORE specifies how many cores store one orbital (NPAR=cpu/NCORE).     |
|      This setting can  greatly improve the performance of VASP for DFT.     |
|      The default,   NCORE=1            might be grossly inefficient         |
|      on modern multi-core architectures or massively parallel machines.     |
|      Do your own testing !!!!                                               |
|      Unfortunately you need to use the default for GW and RPA calculations. |
|      (for HF NCORE is supported but not extensively tested yet)             |
|                                                                             |
 ----------------------------------------------------------------------------- 

 POTCAR:    PAW_PBE Pt 04Feb2005                  
   VRHFIN =Pt: s1d9                                                             
   LEXCH  = PE                                                                  
   EATOM  =   729.1176 eV,   53.5886 Ry                                         
                                                                                
   TITEL  = PAW_PBE Pt 04Feb2005                                                
   LULTRA =        F    use ultrasoft PP ?                                      
   IUNSCR =        1    unscreen: 0-lin 1-nonlin 2-no                           
   RPACOR =    2.330    partial core radius                                     
   POMASS =  195.080; ZVAL   =   10.000    mass and valenz                      
   RCORE  =    2.600    outmost cutoff radius                                   
   RWIGS  =    2.750; RWIGS  =    1.455    wigner-seitz radius (au A)           
   ENMAX  =  230.283; ENMIN  =  172.712 eV                                      
   ICORE  =        3    local potential                                         
   LCOR   =        T    correct aug charges                                     
   LPAW   =        T    paw PP                                                  
   EAUG   =  358.966                                                            
   DEXC   =    0.000                                                            
   RMAX   =    2.658    core radius for proj-oper                               
   RAUG   =    1.300    factor for augmentation sphere                          
   RDEP   =    2.761    radius for radial grids                                 
   RDEPT  =    2.203    core radius for aug-charge                              
                                                                                
   Atomic configuration                                                         
   16 entries                                                                   
     n  l   j            E        occ.                                          
     1  0  0.50    -78401.1885   2.0000                                         
     2  0  0.50    -13770.7750   2.0000                                         
     2  1  1.50    -11931.0468   6.0000                                         
     3  0  0.50     -3234.7234   2.0000                                         
     3  1  1.50     -2699.2216   6.0000                                         
     3  2  2.50     -2119.5714  10.0000                                         
     4  0  0.50      -695.1528   2.0000                                         
     4  1  1.50      -519.6034   6.0000                                         
     4  2  2.50      -306.6786  10.0000                                         
     4  3  3.50       -70.1041  14.0000                                         
     5  0  0.50      -101.7747   2.0000                                         
     5  1  1.50       -55.9873   6.0000                                         
     5  2  2.50        -6.1423   9.0000                                         
     6  0  0.50        -5.6573   1.0000                                         
     6  1  1.50        -6.8029   0.0000                                         
     5  3  2.50        -1.3606   0.0000                                         
   Description                                                                  
     l       E           TYP  RCUT    TYP  RCUT                                 
     2     -6.1423404     23  2.500                                             
     2     -7.5029230     23  2.500                                             
     0     -5.6573207     23  2.500                                             
     0      0.7416693     23  2.500                                             
     1     -2.7211652     23  2.600                                             
     1     20.4087390     23  2.600                                             
     3     -1.3605826     23  2.500                                             
  local pseudopotential read in
  partial core-charges read in
  partial kinetic energy density read in
  atomic valenz-charges read in
  non local Contribution for L=           2  read in
    real space projection operators read in
  non local Contribution for L=           2  read in
    real space projection operators read in
  non local Contribution for L=           0  read in
    real space projection operators read in
  non local Contribution for L=           0  read in
    real space projection operators read in
  non local Contribution for L=           1  read in
    real space projection operators read in
  non local Contribution for L=           1  read in
    real space projection operators read in
    PAW grid and wavefunctions read in
 
   number of l-projection  operators is LMAX  =           6
   number of lm-projection operators is LMMAX =          18
 
 POTCAR:    PAW_PBE Co 02Aug2007                  
   VRHFIN =Co: d8 s1                                                            
   LEXCH  = PE                                                                  
   EATOM  =   813.3670 eV,   59.7808 Ry                                         
                                                                                
   TITEL  = PAW_PBE Co 02Aug2007                                                
   LULTRA =        F    use ultrasoft PP ?                                      
   IUNSCR =        1    unscreen: 0-lin 1-nonlin 2-no                           
   RPACOR =    2.000    partial core radius                                     
   POMASS =   58.933; ZVAL   =    9.000    mass and valenz                      
   RCORE  =    2.300    outmost cutoff radius                                   
   RWIGS  =    2.460; RWIGS  =    1.302    wigner-seitz radius (au A)           
   ENMAX  =  267.968; ENMIN  =  200.976 eV                                      
   RCLOC  =    1.203    cutoff for local pot                                    
   LCOR   =        T    correct aug charges                                     
   LPAW   =        T    paw PP                                                  
   EAUG   =  477.818                                                            
   DEXC   =    0.000                                                            
   RMAX   =    2.360    core radius for proj-oper                               
   RAUG   =    1.300    factor for augmentation sphere                          
   RDEP   =    2.393    radius for radial grids                                 
   RDEPT  =    1.864    core radius for aug-charge                              
                                                                                
   Atomic configuration                                                         
    9 entries                                                                   
     n  l   j            E        occ.                                          
     1  0  0.50     -7587.6674   2.0000                                         
     2  0  0.50      -893.6084   2.0000                                         
     2  1  1.50      -764.5805   6.0000                                         
     3  0  0.50       -97.5973   2.0000                                         
     3  1  1.50       -60.9648   6.0000                                         
     3  2  2.50        -4.2382   8.0000                                         
     4  0  0.50        -4.3746   1.0000                                         
     4  1  1.50        -4.0817   0.0000                                         
     4  3  2.50        -1.3606   0.0000                                         
   Description                                                                  
     l       E           TYP  RCUT    TYP  RCUT                                 
     2     -4.2382362     23  2.300                                             
     2     -5.5988188     23  2.300                                             
     0     -4.3745797     23  2.300                                             
     0      5.7660125     23  2.300                                             
     1     -2.7211652     23  2.300                                             
     1     16.9860234     23  2.300                                             
  local pseudopotential read in
  partial core-charges read in
  partial kinetic energy density read in
  atomic valenz-charges read in
  non local Contribution for L=           2  read in
    real space projection operators read in
  non local Contribution for L=           2  read in
    real space projection operators read in
  non local Contribution for L=           0  read in
    real space projection operators read in
  non local Contribution for L=           0  read in
    real space projection operators read in
  non local Contribution for L=           1  read in
    real space projection operators read in
  non local Contribution for L=           1  read in
    real space projection operators read in
    PAW grid and wavefunctions read in
 
   number of l-projection  operators is LMAX  =           6
   number of lm-projection operators is LMMAX =          18
 
 POTCAR:    PAW_PBE Ni 02Aug2007                  
   VRHFIN =Ni:                                                                  
   LEXCH  = PE                                                                  
   EATOM  =  1077.6739 eV,   79.2068 Ry                                         
                                                                                
   TITEL  = PAW_PBE Ni 02Aug2007                                                
   LULTRA =        F    use ultrasoft PP ?                                      
   IUNSCR =        1    unscreen: 0-lin 1-nonlin 2-no                           
   RPACOR =    2.000    partial core radius                                     
   POMASS =   58.690; ZVAL   =   10.000    mass and valenz                      
   RCORE  =    2.300    outmost cutoff radius                                   
   RWIGS  =    2.430; RWIGS  =    1.286    wigner-seitz radius (au A)           
   ENMAX  =  269.532; ENMIN  =  202.149 eV                                      
   RCLOC  =    1.201    cutoff for local pot                                    
   LCOR   =        T    correct aug charges                                     
   LPAW   =        T    paw PP                                                  
   EAUG   =  544.565                                                            
   DEXC   =    0.000                                                            
   RMAX   =    2.357    core radius for proj-oper                               
   RAUG   =    1.300    factor for augmentation sphere                          
   RDEP   =    2.390    radius for radial grids                                 
   RDEPT  =    1.838    core radius for aug-charge                              
                                                                                
   Atomic configuration                                                         
    9 entries                                                                   
     n  l   j            E        occ.                                          
     1  0  0.50     -8206.4253   2.0000                                         
     2  0  0.50      -976.1748   2.0000                                         
     2  1  1.50      -839.0571   6.0000                                         
     3  0  0.50      -105.9991   2.0000                                         
     3  1  1.50       -66.4603   6.0000                                         
     3  2  2.50        -4.6458   9.0000                                         
     4  0  0.50        -4.4926   1.0000                                         
     4  1  1.50        -4.0817   0.0000                                         
     4  3  2.50        -1.3606   0.0000                                         
   Description                                                                  
     l       E           TYP  RCUT    TYP  RCUT                                 
     2     -4.6457903     23  2.300                                             
     2     -6.0063729     23  2.300                                             
     0     -4.4925590     23  2.300                                             
     0      5.0102601     23  2.300                                             
     1     -2.7211652     23  2.300                                             
     1     16.5183231     23  2.300                                             
  local pseudopotential read in
  partial core-charges read in
  partial kinetic energy density read in
  atomic valenz-charges read in
  non local Contribution for L=           2  read in
    real space projection operators read in
  non local Contribution for L=           2  read in
    real space projection operators read in
  non local Contribution for L=           0  read in
    real space projection operators read in
  non local Contribution for L=           0  read in
    real space projection operators read in
  non local Contribution for L=           1  read in
    real space projection operators read in
  non local Contribution for L=           1  read in
    real space projection operators read in
    PAW grid and wavefunctions read in
 
   number of l-projection  operators is LMAX  =           6
   number of lm-projection operators is LMMAX =          18
 
 POTCAR:    PAW_PBE H 15Jun2001                   
   VRHFIN =H: ultrasoft test                                                    
   LEXCH  = PE                                                                  
   EATOM  =    12.4884 eV,    0.9179 Ry                                         
                                                                                
   TITEL  = PAW_PBE H 15Jun2001                                                 
   LULTRA =        F    use ultrasoft PP ?                                      
   IUNSCR =        0    unscreen: 0-lin 1-nonlin 2-no                           
   RPACOR =    0.000    partial core radius                                     
   POMASS =    1.000; ZVAL   =    1.000    mass and valenz                      
   RCORE  =    1.100    outmost cutoff radius                                   
   RWIGS  =    0.700; RWIGS  =    0.370    wigner-seitz radius (au A)           
   ENMAX  =  250.000; ENMIN  =  200.000 eV                                      
   RCLOC  =    0.701    cutoff for local pot                                    
   LCOR   =        T    correct aug charges                                     
   LPAW   =        T    paw PP                                                  
   EAUG   =  400.000                                                            
   RMAX   =    1.123    core radius for proj-oper                               
   RAUG   =    1.200    factor for augmentation sphere                          
   RDEP   =    1.112    radius for radial grids                                 
   RDEPT  =    0.926    core radius for aug-charge                              
                                                                                
   Atomic configuration                                                         
    2 entries                                                                   
     n  l   j            E        occ.                                          
     1  0  0.50        -6.4927   1.0000                                         
     2  1  0.50        -3.4015   0.0000                                         
   Description                                                                  
     l       E           TYP  RCUT    TYP  RCUT                                 
     0     -6.4927494     23  1.100                                             
     0      6.8029130     23  1.100                                             
     1     -4.0817478     23  1.100                                             
  local pseudopotential read in
  atomic valenz-charges read in
  non local Contribution for L=           0  read in
    real space projection operators read in
  non local Contribution for L=           0  read in
    real space projection operators read in
  non local Contribution for L=           1  read in
    real space projection operators read in
    PAW grid and wavefunctions read in
 
   number of l-projection  operators is LMAX  =           3
   number of lm-projection operators is LMMAX =           5
 
 Optimization of the real space projectors (new method)

 maximal supplied QI-value         = 14.36
 optimisation between [QCUT,QGAM] = [ 11.92, 23.98] = [ 39.79,161.09] Ry 
 Optimized for a Real-space Cutoff    1.49 Angstroem

   l    n(q)    QCUT    max X(q) W(low)/X(q) W(high)/X(q)  e(spline) 
   2     10    11.920    66.195    0.79E-04    0.18E-03    0.24E-06
   2     10    11.920    64.643    0.81E-04    0.19E-03    0.24E-06
   0     11    11.920    95.520    0.28E-04    0.54E-04    0.18E-06
   0     11    11.920    63.403    0.27E-04    0.52E-04    0.17E-06
   1     10    11.920    19.961    0.18E-04    0.11E-03    0.23E-06
   1     10    11.920    13.289    0.25E-04    0.87E-04    0.19E-06
 Optimization of the real space projectors (new method)

 maximal supplied QI-value         = 16.25
 optimisation between [QCUT,QGAM] = [ 11.86, 23.89] = [ 39.41,159.82] Ry 
 Optimized for a Real-space Cutoff    1.33 Angstroem

   l    n(q)    QCUT    max X(q) W(low)/X(q) W(high)/X(q)  e(spline) 
   2      9    11.864    65.824    0.22E-03    0.53E-03    0.26E-06
   2      9    11.864    61.429    0.22E-03    0.53E-03    0.26E-06
   0      9    11.864    56.174    0.21E-03    0.32E-04    0.15E-06
   0      9    11.864    31.263    0.19E-03    0.30E-04    0.14E-06
   1      9    11.864    19.828    0.63E-04    0.30E-03    0.16E-06
   1      9    11.864    15.139    0.49E-04    0.25E-03    0.13E-06
 Optimization of the real space projectors (new method)

 maximal supplied QI-value         = 16.25
 optimisation between [QCUT,QGAM] = [ 11.86, 23.89] = [ 39.41,159.82] Ry 
 Optimized for a Real-space Cutoff    1.33 Angstroem

   l    n(q)    QCUT    max X(q) W(low)/X(q) W(high)/X(q)  e(spline) 
   2      9    11.864    60.317    0.21E-03    0.51E-03    0.25E-06
   2      9    11.864    55.921    0.21E-03    0.51E-03    0.26E-06
   0      9    11.864    51.690    0.22E-03    0.30E-04    0.17E-06
   0      9    11.864    30.015    0.20E-03    0.28E-04    0.15E-06
   1      9    11.864    18.849    0.76E-04    0.33E-03    0.17E-06
   1      9    11.864    14.624    0.60E-04    0.28E-03    0.15E-06
 Optimization of the real space projectors (new method)

 maximal supplied QI-value         = 34.20
 optimisation between [QCUT,QGAM] = [ 11.97, 23.94] = [ 40.13,160.53] Ry 
 Optimized for a Real-space Cutoff    1.18 Angstroem

   l    n(q)    QCUT    max X(q) W(low)/X(q) W(high)/X(q)  e(spline) 
   0      8    11.971    19.460    0.15E-03    0.31E-03    0.25E-06
   0      8    11.971    12.209    0.13E-03    0.29E-03    0.25E-06
   1      8    11.971     4.655    0.22E-03    0.24E-03    0.21E-06
  PAW_PBE Pt 04Feb2005                  :
 energy of atom  1       EATOM= -729.1176
 kinetic energy error for atom=    0.0021 (will be added to EATOM!!)
  PAW_PBE Co 02Aug2007                  :
 energy of atom  2       EATOM= -813.3670
 kinetic energy error for atom=    0.0026 (will be added to EATOM!!)
  PAW_PBE Ni 02Aug2007                  :
 energy of atom  3       EATOM=-1077.6739
 kinetic energy error for atom=    0.0027 (will be added to EATOM!!)
  PAW_PBE H 15Jun2001                   :
 energy of atom  4       EATOM=  -12.4884
 kinetic energy error for atom=    0.0008 (will be added to EATOM!!)
 
 
 POSCAR: 11.26                                   
  positions in cartesian coordinates
  No initial velocities read in
 exchange correlation table for  LEXCH =        8
   RHO(1)=    0.500       N(1)  =     2000
   RHO(2)=  100.500       N(2)  =     4000
 


--------------------------------------------------------------------------------------------------------


 ion  position               nearest neighbor table
   1  0.789  0.879  0.301-  49 2.47  59 2.56  60 2.64  28 2.70   4 2.74   2 2.74  29 2.74  19 2.80
                            12 2.84  11 2.85  61 2.87  33 2.95
   2  0.032  0.880  0.292-  79 2.48  77 2.55  60 2.72   1 2.74  28 2.74   4 2.79   6 2.85  16 2.92
                            30 2.92  33 3.01  22 3.17  52 3.26
   3  0.277  0.361  0.311-  64 2.56  68 2.62  31 2.63  39 2.67   5 2.72  33 2.72  30 2.74  13 2.75
                            19 2.79  43 2.80  25 2.81  18 2.88
   4  0.879  0.962  0.399-  17 2.70  60 2.72   9 2.72   1 2.74   6 2.74  16 2.77   2 2.79  12 2.80
                            11 2.90
   5  0.114  0.467  0.410-  39 2.60  33 2.70   3 2.72  12 2.72  10 2.76  16 2.77   7 2.77  25 2.82
                            13 2.98
   6  0.129  0.951  0.397-  52 2.59  22 2.72   4 2.74  14 2.76  16 2.76   8 2.79   2 2.85   9 2.92
                            10 2.96
   7  0.873  0.455  0.412-  75 2.54  39 2.57   5 2.77  10 2.78   9 2.80  27 2.80  15 2.81  29 2.82
                            12 2.94
   8  0.375  0.953  0.415-  52 2.54  43 2.54  61 2.70  13 2.76   6 2.79  27 2.79  11 2.83  14 2.84
                            10 2.86
   9  0.868  0.210  0.397-  75 2.61  22 2.66   4 2.72  17 2.74  15 2.79   7 2.80  60 2.80   6 2.92
                            10 2.95
  10  0.127  0.215  0.413-  22 2.64  43 2.70  13 2.71   5 2.76  39 2.77   7 2.78   8 2.86   9 2.95
                             6 2.96
  11  0.628  0.951  0.410-  61 2.63  12 2.72  19 2.74  27 2.74  17 2.77  13 2.80   8 2.83   1 2.85
                             4 2.90
  12  0.877  0.715  0.408-  29 2.67  16 2.70   5 2.72  11 2.72  33 2.80   4 2.80   1 2.84  27 2.85
                             7 2.94
  13  0.376  0.198  0.413-  43 2.66  10 2.71  19 2.74   3 2.75   8 2.76  11 2.80  25 2.85  17 2.86
                             5 2.98
  14  0.373  0.703  0.400-  52 2.51  44 2.55  15 2.75   6 2.76  25 2.80  16 2.80   8 2.84  30 2.88
                            27 2.88
  15  0.621  0.461  0.400-  81 2.11  75 2.53  44 2.59  14 2.75   9 2.79   7 2.81  27 2.81  25 2.86
                            18 2.87  17 2.93
  16  0.120  0.710  0.401-  30 2.66  12 2.70  33 2.74   6 2.76   5 2.77   4 2.77  14 2.80  25 2.84
                             2 2.92
  17  0.632  0.195  0.406-  81 1.80   4 2.70  18 2.73   9 2.74  11 2.77  19 2.80  60 2.83  13 2.86
                            15 2.93  25 2.93
  18  0.539  0.347  0.302-  67 2.47  26 2.61  60 2.68  19 2.69  68 2.70  17 2.73  25 2.87  15 2.87
                             3 2.88  30 2.94  75 3.18
  19  0.528  0.114  0.309-  59 2.47  80 2.51  68 2.57  43 2.61  61 2.65  18 2.69  13 2.74  11 2.74
                             3 2.79   1 2.80  17 2.80  60 2.91
  20  0.546  0.126  0.067-  48 2.50  57 2.52  47 2.52  62 2.53  37 2.60  56 2.66  34 2.70  63 2.89

  21  0.118  0.408  0.119-  47 2.44  40 2.48  36 2.49  69 2.60  57 2.64  42 2.67  64 2.70  70 2.72
                            31 2.74  50 3.30
  22  0.055  0.147  0.310-  77 2.42  55 2.51  65 2.51  43 2.57  39 2.64  10 2.64   9 2.66   6 2.72
                            75 2.90  52 3.03  31 3.05   2 3.17  60 3.23
  23  0.009  0.102  0.049-  40 2.49  62 2.55  70 2.57  41 2.59  45 2.66  76 2.69  24 2.70  35 2.74
                            53 3.07
  24  0.138  0.927  0.142-  79 2.46  35 2.50  77 2.54  58 2.54  53 2.56  55 2.59  38 2.59  73 2.64
                            70 2.65  23 2.70  66 2.83
  25  0.370  0.455  0.408-  81 1.77  30 2.77  14 2.80   3 2.81   5 2.82  16 2.84  13 2.85  15 2.86
                            18 2.87  17 2.93
  26  0.480  0.554  0.230-  74 2.50  44 2.51  73 2.52  51 2.59  79 2.60  18 2.61  30 2.61  78 2.62
                            32 2.66  67 2.70
  27  0.626  0.707  0.414-  44 2.49  61 2.69  11 2.74   8 2.79   7 2.80  29 2.80  15 2.81  12 2.85
                            14 2.88
  28  0.953  0.759  0.204-  58 2.53  50 2.61  66 2.61  42 2.62  36 2.63  33 2.66   1 2.70   2 2.74
                            64 2.80  49 2.88  34 3.22  59 3.23  35 3.30
  29  0.796  0.631  0.311-  39 2.60  32 2.61  49 2.61  75 2.62  42 2.63  33 2.64  44 2.67  12 2.67
                             1 2.74  27 2.80   7 2.82  61 2.83
  30  0.275  0.606  0.302-  79 2.43  33 2.60  64 2.60  26 2.61  16 2.66   3 2.74  25 2.77  14 2.88
                             2 2.92  18 2.94
  31  0.187  0.262  0.225-  70 2.52  57 2.57  65 2.58  55 2.59  39 2.62  43 2.63   3 2.63  42 2.72
                            80 2.73  21 2.74  68 2.76  64 2.79  22 3.05
  32  0.711  0.561  0.214-  69 2.53  51 2.56  54 2.61  29 2.61  49 2.62  26 2.66  65 2.66  50 2.66
                            42 2.68  75 2.69  78 2.71  67 2.73  44 2.75
  33  0.042  0.608  0.305-  42 2.46  39 2.51  64 2.51  30 2.60  29 2.64  28 2.66   5 2.70   3 2.72
                            16 2.74  12 2.80   1 2.95   2 3.01
  34  0.782  0.884  0.080-  48 2.38  35 2.38  50 2.53  66 2.54  36 2.55  62 2.67  20 2.70  28 3.22

  35  0.002  0.866  0.072-  36 2.37  34 2.38  66 2.43  24 2.50  58 2.60  23 2.74  62 2.75  28 3.30

  36  0.006  0.657  0.094-  50 2.33  35 2.37  58 2.38  21 2.49  34 2.55  28 2.63
  37  0.628  0.234  0.150-  41 2.41  56 2.42  59 2.43  67 2.44  62 2.45  68 2.50  51 2.50  74 2.51
                            20 2.60  66 2.60
  38  0.361  0.942  0.135-  53 2.40  45 2.41  63 2.42  57 2.43  48 2.45  55 2.45  54 2.46  78 2.48
                            80 2.54  73 2.59  24 2.59  70 2.83
  39  0.024  0.396  0.316-  42 2.47  33 2.51   7 2.57  75 2.58  65 2.58   5 2.60  29 2.60  31 2.62
                            22 2.64   3 2.67  10 2.77
  40  0.013  0.321  0.044-  69 2.32  76 2.45  21 2.48  23 2.49  70 2.51  45 2.63  71 2.93
  41  0.844  0.228  0.139-  67 2.35  76 2.37  77 2.38  37 2.41  62 2.44  51 2.48  69 2.48  66 2.49
                            65 2.58  23 2.59  70 2.61
  42  0.967  0.520  0.219-  33 2.46  39 2.47  50 2.48  64 2.48  65 2.50  28 2.62  29 2.63  69 2.65
                            21 2.67  32 2.68  31 2.72
  43  0.303  0.100  0.319-  52 2.45  80 2.47  55 2.52   8 2.54  22 2.57  61 2.58  19 2.61  31 2.63
                            13 2.66  10 2.70   3 2.80
  44  0.551  0.648  0.317-  61 2.45  78 2.47  27 2.49  26 2.51  14 2.55  52 2.55  15 2.59  29 2.67
                            75 2.74  32 2.75
  45  0.251  0.091  0.049-  38 2.41  57 2.45  53 2.48  70 2.50  63 2.54  40 2.63  23 2.66
  46  0.529  0.612  0.047-  54 2.37  73 2.44  51 2.45  71 2.47  72 2.53  53 2.63  56 2.72  76 2.87
                            63 3.07
  47  0.334  0.361  0.072-  74 2.29  56 2.44  21 2.44  57 2.50  72 2.50  20 2.52
  48  0.581  0.937  0.137-  49 2.29  63 2.35  34 2.38  54 2.38  80 2.38  38 2.45  59 2.46  20 2.50
                            57 2.63  50 2.74
  49  0.677  0.809  0.223-  48 2.29  50 2.34  61 2.46  78 2.47   1 2.47  59 2.54  80 2.57  29 2.61
                            32 2.62  54 2.79  28 2.88
  50  0.810  0.679  0.140-  36 2.33  49 2.34  54 2.38  71 2.39  42 2.48  69 2.52  34 2.53  28 2.61
                            32 2.66  48 2.74  21 3.30
  51  0.629  0.454  0.133-  56 2.40  76 2.44  46 2.45  41 2.48  37 2.50  67 2.53  32 2.56  26 2.59
                            74 2.59  69 2.66  73 2.78  54 2.83
  52  0.321  0.873  0.316-  55 2.35  79 2.41  61 2.42  78 2.44  43 2.45  14 2.51   8 2.54  44 2.55
                             6 2.59  22 3.03   2 3.26
  53  0.299  0.850  0.050-  73 2.39  38 2.40  45 2.48  24 2.56  63 2.58  46 2.63  72 2.82  23 3.07

  54  0.581  0.726  0.124-  46 2.37  50 2.38  48 2.38  73 2.40  71 2.42  63 2.42  38 2.46  78 2.50
                            32 2.61  49 2.79  51 2.83
  55  0.229  0.013  0.230-  52 2.35  80 2.44  79 2.44  38 2.45  22 2.51  43 2.52  78 2.56  24 2.59
                            31 2.59  77 2.61  70 2.62
  56  0.549  0.361  0.055-  51 2.40  37 2.42  47 2.44  74 2.52  76 2.56  62 2.60  72 2.61  20 2.66
                            46 2.72
  57  0.344  0.167  0.132-  38 2.43  45 2.45  80 2.47  47 2.50  20 2.52  68 2.55  31 2.57  48 2.63
                            21 2.64  70 2.71
  58  0.176  0.684  0.148-  36 2.38  72 2.39  64 2.41  73 2.43  28 2.53  79 2.53  24 2.54  74 2.56
                            35 2.60
  59  0.661  0.042  0.213-  66 2.38  37 2.43  48 2.46  19 2.47  49 2.54  68 2.55   1 2.56  80 2.59
                            60 2.67  28 3.23
  60  0.785  0.116  0.296-  67 2.46  77 2.52   1 2.64  59 2.67  18 2.68   4 2.72   2 2.72   9 2.80
                            17 2.83  19 2.91  22 3.23
  61  0.537  0.874  0.316-  52 2.42  44 2.45  49 2.46  78 2.48  80 2.52  43 2.58  11 2.63  19 2.65
                            27 2.69   8 2.70  29 2.83   1 2.87
  62  0.773  0.123  0.060-  66 2.43  41 2.44  37 2.45  20 2.53  23 2.55  56 2.60  76 2.63  34 2.67
                            35 2.75
  63  0.500  0.898  0.045-  48 2.35  54 2.42  38 2.42  45 2.54  53 2.58  20 2.89  46 3.07
  64  0.196  0.505  0.214-  58 2.41  42 2.48  33 2.51  74 2.52   3 2.56  30 2.60  68 2.66  21 2.70
                            31 2.79  28 2.80
  65  0.935  0.315  0.226-  75 2.40  69 2.40  67 2.41  77 2.43  42 2.50  22 2.51  70 2.53  41 2.58
                            31 2.58  39 2.58  32 2.66
  66  0.858  0.002  0.156-  77 2.38  59 2.38  62 2.43  35 2.43  41 2.49  34 2.54  37 2.60  28 2.61
                            24 2.83
  67  0.721  0.315  0.230-  41 2.35  75 2.39  65 2.41  37 2.44  60 2.46  18 2.47  51 2.53  26 2.70
                            77 2.70  32 2.73
  68  0.430  0.266  0.214-  74 2.43  37 2.50  57 2.55  59 2.55  19 2.57   3 2.62  80 2.64  64 2.66
                            18 2.70  31 2.76
  69  0.877  0.430  0.129-  40 2.32  71 2.34  65 2.40  41 2.48  76 2.49  50 2.52  32 2.53  21 2.60
                            42 2.65  70 2.65  51 2.66
  70  0.096  0.181  0.140-  45 2.50  40 2.51  31 2.52  65 2.53  23 2.57  41 2.61  55 2.62  24 2.65
                            69 2.65  57 2.71  21 2.72  77 2.83  38 2.83
  71  0.760  0.589  0.052-  69 2.34  50 2.39  54 2.42  46 2.47  76 2.56  40 2.93
  72  0.315  0.592  0.059-  58 2.39  74 2.39  73 2.42  47 2.50  46 2.53  56 2.61  53 2.82
  73  0.382  0.701  0.136-  53 2.39  54 2.40  72 2.42  58 2.43  46 2.44  79 2.49  26 2.52  38 2.59
                            78 2.60  24 2.64  74 2.69  51 2.78
  74  0.400  0.454  0.149-  47 2.29  72 2.39  68 2.43  26 2.50  37 2.51  56 2.52  64 2.52  58 2.56
                            51 2.59  73 2.69
  75  0.791  0.400  0.314-  67 2.39  65 2.40  15 2.53   7 2.54  39 2.58   9 2.61  29 2.62  32 2.69
                            44 2.74  22 2.90  18 3.18
  76  0.781  0.351  0.046-  41 2.37  51 2.44  40 2.45  69 2.49  71 2.56  56 2.56  62 2.63  23 2.69
                            46 2.87
  77  0.970  0.084  0.222-  41 2.38  66 2.38  22 2.42  65 2.43  60 2.52  24 2.54   2 2.55  55 2.61
                            67 2.70  70 2.83
  78  0.465  0.795  0.225-  52 2.44  49 2.47  44 2.47  61 2.48  79 2.48  38 2.48  80 2.48  54 2.50
                            55 2.56  73 2.60  26 2.62  32 2.71
  79  0.249  0.786  0.233-  52 2.41  30 2.43  55 2.44  24 2.46  78 2.48   2 2.48  73 2.49  58 2.53
                            26 2.60
  80  0.439  0.028  0.225-  48 2.38  55 2.44  57 2.47  43 2.47  78 2.48  19 2.51  61 2.52  38 2.54
                            49 2.57  59 2.59  68 2.64  31 2.73
  81  0.532  0.357  0.444-  25 1.77  17 1.80  15 2.11
 
  LATTYP: Found a hexagonal cell.
 ALAT       =    11.2227001190
 C/A-ratio  =     1.9603125600
  
  Lattice vectors:
  
 A1 = (   5.6113500595,  -9.7191434021,   0.0000000000)
 A2 = ( -11.2227001190,   0.0000000000,   0.0000000000)
 A3 = (   0.0000000000,   0.0000000000, -22.0000000000)


Analysis of symmetry for initial positions (statically):
=====================================================================
 Subroutine PRICEL returns:
 Original cell was already a primitive cell.
 

 Routine SETGRP: Setting up the symmetry group for a 
 hexagonal supercell.


 Subroutine GETGRP returns: Found  1 space group operations
 (whereof  1 operations were pure point group operations)
 out of a pool of 24 trial point group operations.


The static configuration has the point symmetry C_1 .


Analysis of symmetry for dynamics (positions and initial velocities):
=====================================================================
 Subroutine PRICEL returns:
 Original cell was already a primitive cell.
 

 Routine SETGRP: Setting up the symmetry group for a 
 hexagonal supercell.


 Subroutine GETGRP returns: Found  1 space group operations
 (whereof  1 operations were pure point group operations)
 out of a pool of 24 trial point group operations.


The dynamic configuration has the point symmetry C_1 .


Analysis of constrained symmetry for selective dynamics:
=====================================================================
 Subroutine PRICEL returns:
 Original cell was already a primitive cell.
 

 Routine SETGRP: Setting up the symmetry group for a 
 hexagonal supercell.


 Subroutine GETGRP returns: Found  1 space group operations
 (whereof  1 operations were pure point group operations)
 out of a pool of 24 trial point group operations.


The constrained configuration has the point symmetry C_1 .


Analysis of structural, dynamic, and magnetic symmetry:
=====================================================================
 Subroutine PRICEL returns:
 Original cell was already a primitive cell.
 

 Routine SETGRP: Setting up the symmetry group for a 
 hexagonal supercell.


 Subroutine GETGRP returns: Found  1 space group operations
 (whereof  1 operations were pure point group operations)
 out of a pool of 24 trial point group operations.


The magnetic configuration has the point symmetry C_1 .


 Subroutine INISYM returns: Found  1 space group operations
 (whereof  1 operations are pure point group operations),
 and found     1 'primitive' translations

 
 
 KPOINTS: mesh auto                               

Automatic generation of k-mesh.
Space group operators:
 irot       det(A)        alpha          n_x          n_y          n_z        tau_x        tau_y        tau_z
    1     1.000000     0.000000     1.000000     0.000000     0.000000     0.000000     0.000000     0.000000
 
 Subroutine IBZKPT returns following result:
 ===========================================
 
 Found      4 irreducible k-points:
 
 Following reciprocal coordinates:
            Coordinates               Weight
  0.000000  0.000000  0.000000      1.000000
  0.500000  0.000000  0.000000      1.000000
  0.000000  0.500000  0.000000      1.000000
  0.500000  0.500000  0.000000      1.000000
 
 Following cartesian coordinates:
            Coordinates               Weight
  0.000000  0.000000  0.000000      1.000000
  0.044553 -0.025722  0.000000      1.000000
  0.000000  0.051445  0.000000      1.000000
  0.044553  0.025722  0.000000      1.000000
 
 TETIRR: Found     12 inequivalent tetrahedra from       24
 
 Subroutine IBZKPT_HF returns following result:
 ==============================================
 
 Found      4 k-points in 1st BZ
 the following      4 k-points will be used (e.g. in the exchange kernel)
 Following reciprocal coordinates:   # in IRBZ
  0.000000  0.000000  0.000000    0.25000000   1 t-inv F
  0.500000  0.000000  0.000000    0.25000000   2 t-inv F
  0.000000  0.500000  0.000000    0.25000000   3 t-inv F
  0.500000  0.500000  0.000000    0.25000000   4 t-inv F


--------------------------------------------------------------------------------------------------------




 Dimension of arrays:
   k-points           NKPTS =      4   k-points in BZ     NKDIM =      4   number of bands    NBANDS=    576
   number of dos      NEDOS =    301   number of ions     NIONS =     81
   non local maximal  LDIM  =      6   non local SUM 2l+1 LMDIM =     18
   total plane-waves  NPLWV = ******
   max r-space proj   IRMAX =   7929   max aug-charges    IRDMAX=  34542
   dimension x,y,z NGX =    90 NGY =   90 NGZ =  168
   dimension x,y,z NGXF=   180 NGYF=  180 NGZF=  336
   support grid    NGXF=   180 NGYF=  180 NGZF=  336
   ions per type =              32  23  25   1
   NGX,Y,Z   is equivalent  to a cutoff of  13.33, 13.33, 12.70 a.u.
   NGXF,Y,Z  is equivalent  to a cutoff of  26.66, 26.66, 25.39 a.u.

 SYSTEM =  Pt111                                   
 POSCAR =  11.26                                   

 Startparameter for this run:
   NWRITE =      2    write-flag & timer
   PREC   = accura    normal or accurate (medium, high low for compatibility)
   ISTART =      0    job   : 0-new  1-cont  2-samecut
   ICHARG =      2    charge: 1-file 2-atom 10-const
   ISPIN  =      2    spin polarized calculation?
   LNONCOLLINEAR =      F non collinear calculations
   LSORBIT =      F    spin-orbit coupling
   INIWAV =      1    electr: 0-lowe 1-rand  2-diag
   LASPH  =      F    aspherical Exc in radial PAW
   METAGGA=      F    non-selfconsistent MetaGGA calc.

 Electronic Relaxation 1
   ENCUT  =  550.0 eV  40.42 Ry    6.36 a.u.  21.46 21.46 42.07*2*pi/ulx,y,z
   ENINI  =  550.0     initial cutoff
   ENAUG  =  544.6 eV  augmentation charge cutoff
   NELM   =    200;   NELMIN=  2; NELMDL= -5     # of ELM steps 
   EDIFF  = 0.1E-04   stopping-criterion for ELM
   LREAL  =      T    real-space projection
   NLSPLINE    = F    spline interpolate recip. space projectors
   LCOMPAT=      F    compatible to vasp.4.4
   GGA_COMPAT  = T    GGA compatible to vasp.4.4-vasp.4.6
   LMAXPAW     = -100 max onsite density
   LMAXMIX     =    2 max onsite mixed and CHGCAR
   VOSKOWN=      0    Vosko Wilk Nusair interpolation
   ROPT   =   -0.00025  -0.00025  -0.00025  -0.00025
 Ionic relaxation
   EDIFFG = -.5E-01   stopping-criterion for IOM
   NSW    =   1009    number of steps for IOM
   NBLOCK =      1;   KBLOCK =   1009    inner block; outer block 
   IBRION =      5    ionic relax: 0-MD 1-quasi-New 2-CG
   NFREE  =      2    steps in history (QN), initial steepest desc. (CG)
   ISIF   =      2    stress and relaxation
   IWAVPR =     11    prediction:  0-non 1-charg 2-wave 3-comb
   ISYM   =      2    0-nonsym 1-usesym 2-fastsym
   LCORR  =      T    Harris-Foulkes like correction to forces

   POTIM  = 0.5000    time-step for ionic-motion
   TEIN   =    0.0    initial temperature
   TEBEG  =    0.0;   TEEND  =   0.0 temperature during run
   SMASS  =  -3.00    Nose mass-parameter (am)
   estimated Nose-frequenzy (Omega)   =  0.10E-29 period in steps =****** mass=  -0.288E-26a.u.
   SCALEE = 1.0000    scale energy and forces
   NPACO  =    256;   APACO  = 16.0  distance and # of slots for P.C.
   PSTRESS=    0.0 pullay stress

  Mass of Ions in am
   POMASS = 195.08 58.93 58.69  1.00
  Ionic Valenz
   ZVAL   =  10.00  9.00 10.00  1.00
  Atomic Wigner-Seitz radii
   RWIGS  =  -1.00 -1.00 -1.00 -1.00
  virtual crystal weights 
   VCA    =   1.00  1.00  1.00  1.00
   NELECT =     778.0000    total number of electrons
   NUPDOWN=      -1.0000    fix difference up-down

 DOS related values:
   EMIN   =  10.00;   EMAX   =-10.00  energy-range for DOS
   EFERMI =   0.00
   ISMEAR =    -5;   SIGMA  =   0.10  broadening in eV -4-tet -1-fermi 0-gaus

 Electronic relaxation 2 (details)
   IALGO  =     68    algorithm
   LDIAG  =      T    sub-space diagonalisation (order eigenvalues)
   LSUBROT=      F    optimize rotation matrix (better conditioning)
   TURBO    =      0    0=normal 1=particle mesh
   IRESTART =      0    0=no restart 2=restart with 2 vectors
   NREBOOT  =      0    no. of reboots
   NMIN     =      0    reboot dimension
   EREF     =   0.00    reference energy to select bands
   IMIX   =      4    mixing-type and parameters
     AMIX     =   0.40;   BMIX     =  1.00
     AMIX_MAG =   1.60;   BMIX_MAG =  1.00
     AMIN     =   0.10
     WC   =   100.;   INIMIX=   1;  MIXPRE=   1;  MAXMIX= -45

 Intra band minimization:
   WEIMIN = 0.0010     energy-eigenvalue tresh-hold
   EBREAK =  0.43E-08  absolut break condition
   DEPER  =   0.30     relativ break condition  

   TIME   =   0.40     timestep for ELM

  volume/ion in A,a.u.               =      29.63       199.92
  Fermi-wavevector in a.u.,A,eV,Ry     =   1.124653  2.125287 17.209264  1.264845
  Thomas-Fermi vector in A             =   2.261326
 
 Write flags
   LWAVE        =      F    write WAVECAR
   LDOWNSAMPLE  =      F    k-point downsampling of WAVECAR
   LCHARG       =      F    write CHGCAR
   LVTOT        =      F    write LOCPOT, total local potential
   LVHAR        =      F    write LOCPOT, Hartree potential only
   LELF         =      F    write electronic localiz. function (ELF)
   LORBIT       =      0    0 simple, 1 ext, 2 COOP (PROOUT), +10 PAW based schemes


 Dipole corrections
   LMONO  =      F    monopole corrections only (constant potential shift)
   LDIPOL =      F    correct potential (dipole corrections)
   IDIPOL =      0    1-x, 2-y, 3-z, 4-all directions 
   EPSILON=  1.0000000 bulk dielectric constant

 Exchange correlation treatment:
   GGA     =    --    GGA type
   LEXCH   =     8    internal setting for exchange type
   VOSKOWN=      0    Vosko Wilk Nusair interpolation
   LHFCALC =     F    Hartree Fock is set to
   LHFONE  =     F    Hartree Fock one center treatment
   AEXX    =    0.0000 exact exchange contribution

 Linear response parameters
   LEPSILON=     F    determine dielectric tensor
   LRPA    =     F    only Hartree local field effects (RPA)
   LNABLA  =     F    use nabla operator in PAW spheres
   LVEL    =     F    velocity operator in full k-point grid
   LINTERFAST=   F  fast interpolation
   KINTER  =     0    interpolate to denser k-point grid
   CSHIFT  =0.1000    complex shift for real part using Kramers Kronig
   OMEGAMAX=  -1.0    maximum frequency
   DEG_THRESHOLD= 0.2000000E-02 threshold for treating states as degnerate
   RTIME   =   -0.100 relaxation time in fs
  (WPLASMAI=    0.000 imaginary part of plasma frequency in eV, 0.658/RTIME)
   DFIELD  = 0.0000000 0.0000000 0.0000000 field for delta impulse in time
 
 Orbital magnetization related:
   ORBITALMAG=     F  switch on orbital magnetization
   LCHIMAG   =     F  perturbation theory with respect to B field
   DQ        =  0.001000  dq finite difference perturbation B field
   LLRAUG    =     F  two centre corrections for induced B field



--------------------------------------------------------------------------------------------------------


 finite differences
   using selective dynamics as specified on POSCAR
   WARNING: If single coordinates had been selected the selection of coordinates
            is made according to the corresponding   d i r e c t   coordinates!
            Don't support selection of single cartesian coordinates -- sorry ...
  !
 charge density and potential will be updated during run
 spin polarized calculation
 RMM-DIIS sequential band-by-band and
  variant of blocked Davidson during initial phase
 perform sub-space diagonalisation
    before iterative eigenvector-optimisation
 modified Broyden-mixing scheme, WC =      100.0
 initial mixing is a Kerker type mixing with AMIX =  0.4000 and BMIX =      1.0000
 Hartree-type preconditioning will be used
 using additional bands          187
 real space projection scheme for non local part
 use partial core corrections
 calculate Harris-corrections to forces 
   (improved forces if not selfconsistent)
 use gradient corrections 
 use of overlap-Matrix (Vanderbilt PP)
 Fermi weights with tetrahedron method with Bloechl corrections


--------------------------------------------------------------------------------------------------------


  energy-cutoff  :      550.00
  volume of cell :     2399.65
      direct lattice vectors                 reciprocal lattice vectors
    11.222700119  0.000000000  0.000000000     0.089105116 -0.051444863  0.000000000
     5.611350060  9.719143402  0.000000000     0.000000000  0.102889726  0.000000000
     0.000000000  0.000000000 22.000000000     0.000000000  0.000000000  0.045454545

  length of vectors
    11.222700119 11.222700119 22.000000000     0.102889726  0.102889726  0.045454545


 
 k-points in units of 2pi/SCALE and weight: mesh auto                               
   0.00000000  0.00000000  0.00000000       0.250
   0.04455256 -0.02572243  0.00000000       0.250
   0.00000000  0.05144486  0.00000000       0.250
   0.04455256  0.02572243  0.00000000       0.250
 
 k-points in reciprocal lattice and weights: mesh auto                               
   0.00000000  0.00000000  0.00000000       0.250
   0.50000000  0.00000000  0.00000000       0.250
   0.00000000  0.50000000  0.00000000       0.250
   0.50000000  0.50000000  0.00000000       0.250
 
 position of ions in fractional coordinates (direct lattice) 
   0.78867223  0.87883032  0.30143191
   0.03181198  0.87955674  0.29165369
   0.27734209  0.36057938  0.31127843
   0.87926232  0.96235133  0.39920248
   0.11360302  0.46696768  0.41049057
   0.12914083  0.95110692  0.39743303
   0.87302860  0.45498997  0.41226361
   0.37452565  0.95306036  0.41522822
   0.86814605  0.20997520  0.39702921
   0.12706411  0.21452697  0.41309265
   0.62779021  0.95062905  0.40970213
   0.87675267  0.71482849  0.40814175
   0.37629511  0.19825314  0.41334678
   0.37309705  0.70257288  0.40038423
   0.62144184  0.46054276  0.39999031
   0.11991420  0.70958951  0.40092863
   0.63245444  0.19480806  0.40593618
   0.53945327  0.34733521  0.30232386
   0.52777187  0.11363679  0.30861446
   0.54569241  0.12647739  0.06683304
   0.11791659  0.40792499  0.11908862
   0.05501434  0.14707616  0.31032084
   0.00892895  0.10176852  0.04917651
   0.13783207  0.92691145  0.14197368
   0.37014344  0.45544190  0.40844145
   0.47979716  0.55399880  0.22971747
   0.62645386  0.70725565  0.41350843
   0.95252345  0.75898977  0.20420405
   0.79643254  0.63124513  0.31079009
   0.27470105  0.60566792  0.30206590
   0.18749030  0.26198206  0.22539890
   0.71089206  0.56100734  0.21410215
   0.04194796  0.60807511  0.30488095
   0.78196837  0.88367072  0.08012597
   0.00167860  0.86570870  0.07172203
   0.00649475  0.65686199  0.09367822
   0.62789021  0.23379040  0.14972974
   0.36050112  0.94235243  0.13470415
   0.02377248  0.39562584  0.31638013
   0.01296097  0.32139498  0.04442433
   0.84423970  0.22761319  0.13891977
   0.96744603  0.52048649  0.21885007
   0.30337008  0.09968247  0.31940440
   0.55099370  0.64837922  0.31703611
   0.25085454  0.09128101  0.04878728
   0.52913784  0.61162204  0.04697948
   0.33389242  0.36126594  0.07221963
   0.58147332  0.93651314  0.13694302
   0.67732667  0.80921239  0.22305304
   0.80979447  0.67906481  0.14024348
   0.62937817  0.45366950  0.13325724
   0.32118948  0.87327316  0.31620644
   0.29919813  0.84983568  0.05000644
   0.58103448  0.72612545  0.12392179
   0.22907234  0.01294552  0.22967573
   0.54871865  0.36069037  0.05545242
   0.34411655  0.16690962  0.13164412
   0.17554400  0.68420617  0.14761894
   0.66082635  0.04249037  0.21304482
   0.78500972  0.11595800  0.29649350
   0.53682125  0.87382855  0.31587618
   0.77284397  0.12278263  0.06048458
   0.50030742  0.89844953  0.04455515
   0.19571508  0.50522867  0.21438636
   0.93546177  0.31542046  0.22552712
   0.85824468  0.00195101  0.15611973
   0.72104290  0.31497628  0.22969726
   0.43002289  0.26577701  0.21377066
   0.87703755  0.42955743  0.12878365
   0.09634819  0.18069822  0.13969274
   0.75988870  0.58867799  0.05155611
   0.31527374  0.59151669  0.05925234
   0.38179216  0.70126590  0.13646584
   0.40042658  0.45377032  0.14884727
   0.79144847  0.40012015  0.31377647
   0.78089926  0.35148021  0.04598080
   0.96954404  0.08430315  0.22196820
   0.46486898  0.79463888  0.22533144
   0.24890496  0.78598962  0.23267623
   0.43862206  0.02771317  0.22450195
   0.53218667  0.35700127  0.44373100
 
 position of ions in cartesian coordinates  (Angst):
  13.78245653  8.54147790  6.63150194
   5.29251706  8.54853810  6.41638124
   5.13586421  3.50452270  6.84812550
  15.26778754  9.35323054  8.78245463
   3.89525174  4.53852585  9.03079263
   6.78630268  9.24394456  8.74352666
  12.35084616  4.42211275  9.06979941
   9.55114436  9.26293028  9.13502086
  10.92118706  2.04077904  8.73464251
   2.62978834  2.08501837  9.08803822
  12.37981368  9.23930010  9.01344690
  13.85068516  6.94752058  8.97911854
   5.33551498  1.92685074  9.09362905
   8.12953870  6.82840659  8.80845315
   9.55852209  4.47608111  8.79978688
   5.32751629  6.89660219  8.82042976
   8.19098271  1.89336744  8.93059599
   8.00314175  3.37580071  6.65112485
   6.56068121  1.10445222  6.78951808
   6.83385120  1.22925189  1.47032698
   3.61235247  3.96468152  2.61994962
   1.44270527  1.42945429  6.82705844
   0.67126575  0.98910281  1.08188317
   6.74807265  9.00878530  3.12342105
   6.70965279  4.42650516  8.98571197
   8.49330084  5.38439383  5.05378437
  10.99916284  6.87391907  9.09718551
  14.94884239  7.37673046  4.49248916
  12.48026100  6.13516192  6.83738207
   6.48150224  5.88657340  6.64544972
   3.57422044  2.54624125  4.95877580
  11.12613698  5.45251083  4.71024739
   3.88289169  5.90996921  6.70738098
  13.73438227  8.58852246  1.76277137
   4.87663302  8.41394697  1.57788465
   3.75877116  6.38413590  2.06092090
   8.35850333  2.27224245  3.29405432
   9.33366537  9.15885838  2.96349132
   2.48678652  3.84514425  6.96036280
   1.94891684  3.12368389  0.97733531
  10.75186628  2.21220519  3.05623495
  13.77798860  5.05868282  4.81470165
   3.96398470  0.96882822  7.02689688
   9.82191980  6.30169060  6.97479445
   3.32747495  0.88717326  1.07332023
   9.37038068  5.94444230  1.03354859
   5.77436416  3.51119550  1.58883193
  11.78080373  9.10210551  3.01274644
  12.14220806  7.86485128  4.90716692
  12.89855082  6.59992829  3.08535659
   9.60902083  4.40927897  2.93165935
   8.50485466  8.48746705  6.95654173
   8.12653637  8.25967484  1.10014163
  10.59531978  7.05731733  2.72627938
   2.64345207  0.12581940  5.05286608
   8.18206475  3.50560142  1.21995326
   4.79850516  1.62221856  2.89617069
   5.80939796  6.64989784  3.24761674
   7.65468432  0.41297001  4.68698615
   9.46060966  1.12701246  6.52285689
  10.92794177  8.49286501  6.94927591
   9.36237240  1.19334199  1.33066085
  10.65631497  8.73215981  0.98021322
   5.03146660  4.91038993  4.71649990
  12.26834149  3.06561666  4.96159659
   9.64277050  0.01896212  3.43463404
   9.85949038  3.06129963  5.05333976
   6.31738572  2.58312482  4.70295446
  12.25312658  4.17493029  2.83324027
   2.09524784  1.75623189  3.07324021
  11.83128130  5.72144585  1.13423452
   6.85742987  5.74903551  1.30355140
   8.21978744  6.81570388  3.00224843
   7.04013147  4.41025877  3.27463986
  11.12740300  3.88882509  6.90308239
  10.73607676  3.41608656  1.01157751
  11.35395654  0.81935443  4.88330047
   9.67608211  7.72320924  4.95729164
   7.20384860  7.63914586  5.11887697
   5.07803210  0.26934830  4.93904295
   7.97583051  3.46974650  9.76208191
 


--------------------------------------------------------------------------------------------------------


 k-point  1 :   0.0000 0.0000 0.0000  plane waves:   70321
 k-point  2 :   0.5000 0.0000 0.0000  plane waves:   70264
 k-point  3 :   0.0000 0.5000 0.0000  plane waves:   70264
 k-point  4 :   0.5000 0.5000 0.0000  plane waves:   70264

 maximum and minimum number of plane-waves per node :     70321    70264

 maximum number of plane-waves:     70321
 maximum index in each direction: 
   IXMAX=   21   IYMAX=   21   IZMAX=   42
   IXMIN=  -21   IYMIN=  -21   IZMIN=  -42


 serial   3D FFT for wavefunctions
 parallel 3D FFT for charge:
    minimum data exchange during FFTs selected (reduces bandwidth)


 total amount of memory used by VASP MPI-rank0   379519. kBytes
=======================================================================

   base      :      30000. kBytes
   nonlr-proj:      90633. kBytes
   fftplans  :      13535. kBytes
   grid      :     132462. kBytes
   one-center:       2519. kBytes
   wavefun   :     110370. kBytes
 
     INWAV:  cpu time    0.0000: real time    0.0004
 Broyden mixing: mesh for mixing (old mesh)
   NGX = 43   NGY = 43   NGZ = 85
  (NGX  =180   NGY  =180   NGZ  =336)
  gives a total of 157165 points

 initial charge density was supplied:
 charge density of overlapping atoms calculated
 number of electron     778.0000000 magnetization     206.0000000
 keeping initial charge density in first step


--------------------------------------------------------------------------------------------------------


 Maximum index for non-local projection operator         7675
 Maximum index for augmentation-charges         1118 (set IRDMAX)


--------------------------------------------------------------------------------------------------------


 First call to EWALD:  gamma=   0.132
 Maximum number of real-space cells 4x 4x 2
 Maximum number of reciprocal cells 2x 2x 4

    FEWALD:  cpu time    0.0041: real time    0.0041


--------------------------------------- Iteration      1(   1)  ---------------------------------------


    POTLOK:  cpu time    0.5032: real time    0.5066
    SETDIJ:  cpu time    0.0338: real time    0.0339
     EDDAV:  cpu time   55.6277: real time   55.7859
 BZINTS: Fermi energy: 15.089223;778.000000 electrons
         Band energy:6664.364555;  BLOECHL correction: -0.011494
       DOS:  cpu time    0.0232: real time    0.0235
    --------------------------------------------
      LOOP:  cpu time   56.1879: real time   56.3500

 eigenvalue-minimisations  :  9216
 total energy-change (2. order) : 0.6703583E+04  (-0.3449027E+05)
 number of electron     778.0000000 magnetization     206.0000000
 augmentation part      778.0000000 magnetization     206.0000000

 Free energy of the ion-electron system (eV)
  ---------------------------------------------------
  alpha Z        PSCENC =      1751.32544349
  Ewald energy   TEWEN  =    237306.51651172
  -Hartree energ DENC   =   -307364.39518675
  -exchange      EXHF   =         0.00000000
  -V(xc)+E(xc)   XCENC  =      1334.62965013
  PAW double counting   =     62871.68470781   -64853.88848185
  entropy T*S    EENTRO =         0.00000000
  eigenvalues    EBANDS =      6664.36455467
  atomic energy  EATOM  =     68993.34587830
  Solvation  Ediel_sol  =         0.00000000
  ---------------------------------------------------
  free energy    TOTEN  =      6703.58307753 eV

  energy without entropy =     6703.58307753  energy(sigma->0) =     6703.58307753


--------------------------------------------------------------------------------------------------------




--------------------------------------- Iteration      1(   2)  ---------------------------------------


     EDDAV:  cpu time   55.6128: real time   55.7785
 BZINTS: Fermi energy:  4.436147;778.000000 electrons
         Band energy: 304.262050;  BLOECHL correction: -0.011216
       DOS:  cpu time    0.0222: real time    0.0224
    --------------------------------------------
      LOOP:  cpu time   55.6350: real time   55.8009

 eigenvalue-minimisations  :  9216
 total energy-change (2. order) :-0.6360103E+04  (-0.5776033E+04)
 number of electron     778.0000000 magnetization     206.0000000
 augmentation part      778.0000000 magnetization     206.0000000

 Free energy of the ion-electron system (eV)
  ---------------------------------------------------
  alpha Z        PSCENC =      1751.32544349
  Ewald energy   TEWEN  =    237306.51651172
  -Hartree energ DENC   =   -307364.39518675
  -exchange      EXHF   =         0.00000000
  -V(xc)+E(xc)   XCENC  =      1334.62965013
  PAW double counting   =     62871.68470781   -64853.88848185
  entropy T*S    EENTRO =         0.00000000
  eigenvalues    EBANDS =       304.26204975
  atomic energy  EATOM  =     68993.34587830
  Solvation  Ediel_sol  =         0.00000000
  ---------------------------------------------------
  free energy    TOTEN  =       343.48057261 eV

  energy without entropy =      343.48057261  energy(sigma->0) =      343.48057261


--------------------------------------------------------------------------------------------------------




--------------------------------------- Iteration      1(   3)  ---------------------------------------


     EDDAV:  cpu time   59.1191: real time   59.2785
 BZINTS: Fermi energy:  2.810459;778.000000 electrons
         Band energy:-505.005815;  BLOECHL correction: -0.019321
       DOS:  cpu time    0.0203: real time    0.0205
    --------------------------------------------
      LOOP:  cpu time   59.1394: real time   59.2990

 eigenvalue-minimisations  :  9984
 total energy-change (2. order) :-0.8092679E+03  (-0.6960849E+03)
 number of electron     778.0000000 magnetization     206.0000000
 augmentation part      778.0000000 magnetization     206.0000000

 Free energy of the ion-electron system (eV)
  ---------------------------------------------------
  alpha Z        PSCENC =      1751.32544349
  Ewald energy   TEWEN  =    237306.51651172
  -Hartree energ DENC   =   -307364.39518675
  -exchange      EXHF   =         0.00000000
  -V(xc)+E(xc)   XCENC  =      1334.62965013
  PAW double counting   =     62871.68470781   -64853.88848185
  entropy T*S    EENTRO =         0.00000000
  eigenvalues    EBANDS =      -505.00581538
  atomic energy  EATOM  =     68993.34587830
  Solvation  Ediel_sol  =         0.00000000
  ---------------------------------------------------
  free energy    TOTEN  =      -465.78729252 eV

  energy without entropy =     -465.78729252  energy(sigma->0) =     -465.78729252


--------------------------------------------------------------------------------------------------------




--------------------------------------- Iteration      1(   4)  ---------------------------------------


     EDDAV:  cpu time   60.9569: real time   61.1228
 BZINTS: Fermi energy:  2.738860;778.000000 electrons
         Band energy:-543.995538;  BLOECHL correction: -0.019789
       DOS:  cpu time    0.0222: real time    0.0224
    --------------------------------------------
      LOOP:  cpu time   60.9792: real time   61.1452

 eigenvalue-minimisations  : 10368
 total energy-change (2. order) :-0.3898972E+02  (-0.3808296E+02)
 number of electron     778.0000000 magnetization     206.0000000
 augmentation part      778.0000000 magnetization     206.0000000

 Free energy of the ion-electron system (eV)
  ---------------------------------------------------
  alpha Z        PSCENC =      1751.32544349
  Ewald energy   TEWEN  =    237306.51651172
  -Hartree energ DENC   =   -307364.39518675
  -exchange      EXHF   =         0.00000000
  -V(xc)+E(xc)   XCENC  =      1334.62965013
  PAW double counting   =     62871.68470781   -64853.88848185
  entropy T*S    EENTRO =         0.00000000
  eigenvalues    EBANDS =      -543.99553803
  atomic energy  EATOM  =     68993.34587830
  Solvation  Ediel_sol  =         0.00000000
  ---------------------------------------------------
  free energy    TOTEN  =      -504.77701517 eV

  energy without entropy =     -504.77701517  energy(sigma->0) =     -504.77701517


--------------------------------------------------------------------------------------------------------




--------------------------------------- Iteration      1(   5)  ---------------------------------------


     EDDAV:  cpu time   67.1121: real time   67.2947
 BZINTS: Fermi energy:  2.737741;778.000000 electrons
         Band energy:-544.683073;  BLOECHL correction: -0.019915
       DOS:  cpu time    0.0229: real time    0.0246
    CHARGE:  cpu time    3.0260: real time    3.0342
    MIXING:  cpu time    0.0112: real time    0.0112
    --------------------------------------------
      LOOP:  cpu time   70.1721: real time   70.3647

 eigenvalue-minimisations  : 11664
 total energy-change (2. order) :-0.6875353E+00  (-0.6870230E+00)
 number of electron     778.0000036 magnetization     194.0898703
 augmentation part      338.1222969 magnetization     164.6164366

 Broyden mixing:
  rms(total) = 0.10633E+02    rms(broyden)= 0.10633E+02
  rms(prec ) = 0.11002E+02
  weight for this iteration     100.00

 Free energy of the ion-electron system (eV)
  ---------------------------------------------------
  alpha Z        PSCENC =      1751.32544349
  Ewald energy   TEWEN  =    237306.51651172
  -Hartree energ DENC   =   -307364.39518675
  -exchange      EXHF   =         0.00000000
  -V(xc)+E(xc)   XCENC  =      1334.62965013
  PAW double counting   =     62871.68470781   -64853.88848185
  entropy T*S    EENTRO =         0.00000000
  eigenvalues    EBANDS =      -544.68307334
  atomic energy  EATOM  =     68993.34587830
  Solvation  Ediel_sol  =         0.00000000
  ---------------------------------------------------
  free energy    TOTEN  =      -505.46455048 eV

  energy without entropy =     -505.46455048  energy(sigma->0) =     -505.46455048


--------------------------------------------------------------------------------------------------------




--------------------------------------- Iteration      1(   6)  ---------------------------------------


    POTLOK:  cpu time    0.4767: real time    0.4791
    SETDIJ:  cpu time    0.0337: real time    0.0338
    EDDIAG:  cpu time    9.7890: real time    9.8153
  RMM-DIIS:  cpu time   37.6461: real time   37.7513
    ORTHCH:  cpu time    1.3728: real time    1.3817
 BZINTS: Fermi energy:  1.273161;778.000000 electrons
         Band energy:***********;  BLOECHL correction: -0.023734
       DOS:  cpu time    0.0252: real time    0.0253
    CHARGE:  cpu time    3.0212: real time    3.0292
    MIXING:  cpu time    0.0118: real time    0.0122
    --------------------------------------------
      LOOP:  cpu time   52.3765: real time   52.5280

 eigenvalue-minimisations  :  9398
 total energy-change (2. order) :-0.2472116E+03  (-0.9928584E+02)
 number of electron     778.0000051 magnetization     190.7748422
 augmentation part      408.5172003 magnetization     162.3869255

 Broyden mixing:
  rms(total) = 0.20729E+02    rms(broyden)= 0.20728E+02
  rms(prec ) = 0.25755E+02
  weight for this iteration     100.00

 eigenvalues of (default mixing * dielectric matrix)
  average eigenvalue GAMMA=   0.1758
  0.1758

 Free energy of the ion-electron system (eV)
  ---------------------------------------------------
  alpha Z        PSCENC =      1751.32544349
  Ewald energy   TEWEN  =    237306.51651172
  -Hartree energ DENC   =   -306089.04458234
  -exchange      EXHF   =         0.00000000
  -V(xc)+E(xc)   XCENC  =      1288.94844982
  PAW double counting   =     67908.77326577   -69662.10359221
  entropy T*S    EENTRO =         0.00000000
  eigenvalues    EBANDS =     -2250.43749855
  atomic energy  EATOM  =     68993.34587830
  Solvation  Ediel_sol  =         0.00000000
  ---------------------------------------------------
  free energy    TOTEN  =      -752.67612400 eV

  energy without entropy =     -752.67612400  energy(sigma->0) =     -752.67612400


--------------------------------------------------------------------------------------------------------




--------------------------------------- Iteration      1(   7)  ---------------------------------------


    POTLOK:  cpu time    0.4786: real time    0.4808
    SETDIJ:  cpu time    0.0337: real time    0.0339
    EDDIAG:  cpu time    9.7809: real time    9.8091
  RMM-DIIS:  cpu time   37.1060: real time   37.2094
    ORTHCH:  cpu time    1.3655: real time    1.3692
 BZINTS: Fermi energy:  2.042826;778.000000 electrons
         Band energy:***********;  BLOECHL correction: -0.006498
       DOS:  cpu time    0.0250: real time    0.0251
    CHARGE:  cpu time    3.0183: real time    3.0264
    MIXING:  cpu time    0.0120: real time    0.0120
    --------------------------------------------
      LOOP:  cpu time   51.8199: real time   51.9658

 eigenvalue-minimisations  :  9236
 total energy-change (2. order) : 0.2369028E+03  (-0.1705618E+02)
 number of electron     778.0000041 magnetization     187.8332506
 augmentation part      371.9680009 magnetization     152.9961833

 Broyden mixing:
  rms(total) = 0.14926E+02    rms(broyden)= 0.14926E+02
  rms(prec ) = 0.18130E+02
  weight for this iteration     100.00

 eigenvalues of (default mixing * dielectric matrix)
  average eigenvalue GAMMA=   0.2170
  0.2170  0.2170

 Free energy of the ion-electron system (eV)
  ---------------------------------------------------
  alpha Z        PSCENC =      1751.32544349
  Ewald energy   TEWEN  =    237306.51651172
  -Hartree energ DENC   =   -306688.02135058
  -exchange      EXHF   =         0.00000000
  -V(xc)+E(xc)   XCENC  =      1305.52281052
  PAW double counting   =     68950.40239128   -70868.05199191
  entropy T*S    EENTRO =         0.00000000
  eigenvalues    EBANDS =     -1266.81298391
  atomic energy  EATOM  =     68993.34587830
  Solvation  Ediel_sol  =         0.00000000
  ---------------------------------------------------
  free energy    TOTEN  =      -515.77329108 eV

  energy without entropy =     -515.77329108  energy(sigma->0) =     -515.77329108


--------------------------------------------------------------------------------------------------------




--------------------------------------- Iteration      1(   8)  ---------------------------------------


    POTLOK:  cpu time    0.4695: real time    0.4719
    SETDIJ:  cpu time    0.0334: real time    0.0335
    EDDIAG:  cpu time    9.7836: real time    9.8103
  RMM-DIIS:  cpu time   37.2633: real time   37.3826
    ORTHCH:  cpu time    1.3650: real time    1.3701
 BZINTS: Fermi energy:  1.461795;778.000000 electrons
         Band energy:***********;  BLOECHL correction: -0.029911
       DOS:  cpu time    0.0233: real time    0.0233
    CHARGE:  cpu time    3.0237: real time    3.0382
    MIXING:  cpu time    0.0125: real time    0.0128
    --------------------------------------------
      LOOP:  cpu time   51.9742: real time   52.1425

 eigenvalue-minimisations  :  9264
 total energy-change (2. order) : 0.8420040E+02  (-0.1322624E+02)
 number of electron     778.0000045 magnetization     180.8101885
 augmentation part      380.6155257 magnetization     142.4543969

 Broyden mixing:
  rms(total) = 0.11879E+02    rms(broyden)= 0.11879E+02
  rms(prec ) = 0.13922E+02
  weight for this iteration     100.00

 eigenvalues of (default mixing * dielectric matrix)
  average eigenvalue GAMMA=   0.3163
  0.5724  0.2844  0.0920

 Free energy of the ion-electron system (eV)
  ---------------------------------------------------
  alpha Z        PSCENC =      1751.32544349
  Ewald energy   TEWEN  =    237306.51651172
  -Hartree energ DENC   =   -306548.79626753
  -exchange      EXHF   =         0.00000000
  -V(xc)+E(xc)   XCENC  =      1310.04102736
  PAW double counting   =     69658.72570847   -71598.17660088
  entropy T*S    EENTRO =         0.00000000
  eigenvalues    EBANDS =     -1304.55459635
  atomic energy  EATOM  =     68993.34587830
  Solvation  Ediel_sol  =         0.00000000
  ---------------------------------------------------
  free energy    TOTEN  =      -431.57289542 eV

  energy without entropy =     -431.57289542  energy(sigma->0) =     -431.57289542


--------------------------------------------------------------------------------------------------------




--------------------------------------- Iteration      1(   9)  ---------------------------------------


    POTLOK:  cpu time    0.4765: real time    0.4788
    SETDIJ:  cpu time    0.0333: real time    0.0334
    EDDIAG:  cpu time    9.7940: real time    9.8224
  RMM-DIIS:  cpu time   36.8607: real time   36.9619
    ORTHCH:  cpu time    1.3646: real time    1.3682
 BZINTS: Fermi energy:  1.565585;778.000000 electrons
         Band energy:***********;  BLOECHL correction: -0.020975
       DOS:  cpu time    0.0234: real time    0.0235
    CHARGE:  cpu time    3.0237: real time    3.0321
    MIXING:  cpu time    0.0125: real time    0.0126
    --------------------------------------------
      LOOP:  cpu time   51.5886: real time   51.7328

 eigenvalue-minimisations  :  9231
 total energy-change (2. order) :-0.9933193E+02  (-0.1761723E+02)
 number of electron     778.0000037 magnetization     174.7209188
 augmentation part      380.7805080 magnetization     141.4650480

 Broyden mixing:
  rms(total) = 0.16577E+02    rms(broyden)= 0.16577E+02
  rms(prec ) = 0.19023E+02
  weight for this iteration     100.00

 eigenvalues of (default mixing * dielectric matrix)
  average eigenvalue GAMMA=   0.3430
  0.8418  0.3097  0.1102  0.1102

 Free energy of the ion-electron system (eV)
  ---------------------------------------------------
  alpha Z        PSCENC =      1751.32544349
  Ewald energy   TEWEN  =    237306.51651172
  -Hartree energ DENC   =   -306297.79579257
  -exchange      EXHF   =         0.00000000
  -V(xc)+E(xc)   XCENC  =      1327.18321060
  PAW double counting   =     71282.58592027   -73284.37079829
  entropy T*S    EENTRO =         0.00000000
  eigenvalues    EBANDS =     -1609.69519575
  atomic energy  EATOM  =     68993.34587830
  Solvation  Ediel_sol  =         0.00000000
  ---------------------------------------------------
  free energy    TOTEN  =      -530.90482223 eV

  energy without entropy =     -530.90482223  energy(sigma->0) =     -530.90482223


--------------------------------------------------------------------------------------------------------




--------------------------------------- Iteration      1(  10)  ---------------------------------------


    POTLOK:  cpu time    0.4764: real time    0.4787
    SETDIJ:  cpu time    0.0334: real time    0.0335
    EDDIAG:  cpu time    9.7969: real time    9.8244
  RMM-DIIS:  cpu time   36.8677: real time   36.9698
    ORTHCH:  cpu time    1.3624: real time    1.3659
 BZINTS: Fermi energy:  1.899948;778.000000 electrons
         Band energy:***********;  BLOECHL correction: -0.006851
       DOS:  cpu time    0.0231: real time    0.0232
    CHARGE:  cpu time    3.0273: real time    3.0354
    MIXING:  cpu time    0.0129: real time    0.0130
    --------------------------------------------
      LOOP:  cpu time   51.6000: real time   51.7439

 eigenvalue-minimisations  :  9233
 total energy-change (2. order) : 0.1131105E+03  (-0.1214234E+02)
 number of electron     778.0000044 magnetization     169.2760401
 augmentation part      381.5953962 magnetization     126.2395864

 Broyden mixing:
  rms(total) = 0.10504E+02    rms(broyden)= 0.10504E+02
  rms(prec ) = 0.13452E+02
  weight for this iteration     100.00

 eigenvalues of (default mixing * dielectric matrix)
  average eigenvalue GAMMA=   0.3496
  0.9370  0.4279  0.1468  0.1468  0.0896

 Free energy of the ion-electron system (eV)
  ---------------------------------------------------
  alpha Z        PSCENC =      1751.32544349
  Ewald energy   TEWEN  =    237306.51651172
  -Hartree energ DENC   =   -306704.73958483
  -exchange      EXHF   =         0.00000000
  -V(xc)+E(xc)   XCENC  =      1336.61047687
  PAW double counting   =     72588.87714647   -74651.58577725
  entropy T*S    EENTRO =         0.00000000
  eigenvalues    EBANDS =     -1038.14436864
  atomic energy  EATOM  =     68993.34587830
  Solvation  Ediel_sol  =         0.00000000
  ---------------------------------------------------
  free energy    TOTEN  =      -417.79427387 eV

  energy without entropy =     -417.79427387  energy(sigma->0) =     -417.79427387


--------------------------------------------------------------------------------------------------------




--------------------------------------- Iteration      1(  11)  ---------------------------------------


    POTLOK:  cpu time    0.4765: real time    0.4790
    SETDIJ:  cpu time    0.0335: real time    0.0336
    EDDIAG:  cpu time    9.8017: real time    9.8276
  RMM-DIIS:  cpu time   37.2650: real time   37.4105
    ORTHCH:  cpu time    1.3637: real time    1.3673
 BZINTS: Fermi energy:  1.947171;778.000000 electrons
         Band energy:-736.734070;  BLOECHL correction: -0.062562
       DOS:  cpu time    0.0234: real time    0.0234
    CHARGE:  cpu time    3.0242: real time    3.0325
    MIXING:  cpu time    0.0127: real time    0.0128
    --------------------------------------------
      LOOP:  cpu time   52.0007: real time   52.1867

 eigenvalue-minimisations  :  9264
 total energy-change (2. order) : 0.6086935E+02  (-0.8550538E+01)
 number of electron     778.0000042 magnetization     165.0879436
 augmentation part      373.6866370 magnetization     123.1517730

 Broyden mixing:
  rms(total) = 0.95661E+01    rms(broyden)= 0.95660E+01
  rms(prec ) = 0.10376E+02
  weight for this iteration     100.00

 eigenvalues of (default mixing * dielectric matrix)
  average eigenvalue GAMMA=   0.3534
  1.0623  0.4694  0.1695  0.1695  0.1571  0.0922

 Free energy of the ion-electron system (eV)
  ---------------------------------------------------
  alpha Z        PSCENC =      1751.32544349
  Ewald energy   TEWEN  =    237306.51651172
  -Hartree energ DENC   =   -306909.86814215
  -exchange      EXHF   =         0.00000000
  -V(xc)+E(xc)   XCENC  =      1337.03006993
  PAW double counting   =     73480.61784621   -75579.15845784
  entropy T*S    EENTRO =         0.00000000
  eigenvalues    EBANDS =      -736.73407004
  atomic energy  EATOM  =     68993.34587830
  Solvation  Ediel_sol  =         0.00000000
  ---------------------------------------------------
  free energy    TOTEN  =      -356.92492038 eV

  energy without entropy =     -356.92492038  energy(sigma->0) =     -356.92492038


--------------------------------------------------------------------------------------------------------




--------------------------------------- Iteration      1(  12)  ---------------------------------------


    POTLOK:  cpu time    0.4756: real time    0.4779
    SETDIJ:  cpu time    0.0330: real time    0.0331
    EDDIAG:  cpu time    9.8025: real time    9.8300
  RMM-DIIS:  cpu time   37.3214: real time   37.4269
    ORTHCH:  cpu time    1.3637: real time    1.3675
 BZINTS: Fermi energy:  2.013501;778.000000 electrons
         Band energy:-745.986342;  BLOECHL correction: -0.041595
       DOS:  cpu time    0.0210: real time    0.0210
    CHARGE:  cpu time    3.0238: real time    3.0318
    MIXING:  cpu time    0.0131: real time    0.0134
    --------------------------------------------
      LOOP:  cpu time   52.0541: real time   52.2017

 eigenvalue-minimisations  :  9266
 total energy-change (2. order) :-0.1423937E+02  (-0.5546787E+01)
 number of electron     778.0000040 magnetization     160.5362868
 augmentation part      372.4417956 magnetization     122.1640419

 Broyden mixing:
  rms(total) = 0.11399E+02    rms(broyden)= 0.11399E+02
  rms(prec ) = 0.12835E+02
  weight for this iteration     100.00

 eigenvalues of (default mixing * dielectric matrix)
  average eigenvalue GAMMA=   0.3531
  1.1888  0.4156  0.3653  0.1463  0.1463  0.0949  0.1147

 Free energy of the ion-electron system (eV)
  ---------------------------------------------------
  alpha Z        PSCENC =      1751.32544349
  Ewald energy   TEWEN  =    237306.51651172
  -Hartree energ DENC   =   -306896.43270021
  -exchange      EXHF   =         0.00000000
  -V(xc)+E(xc)   XCENC  =      1332.63138857
  PAW double counting   =     74004.21921566   -76116.78368899
  entropy T*S    EENTRO =         0.00000000
  eigenvalues    EBANDS =      -745.98634213
  atomic energy  EATOM  =     68993.34587830
  Solvation  Ediel_sol  =         0.00000000
  ---------------------------------------------------
  free energy    TOTEN  =      -371.16429359 eV

  energy without entropy =     -371.16429359  energy(sigma->0) =     -371.16429359


--------------------------------------------------------------------------------------------------------




--------------------------------------- Iteration      1(  13)  ---------------------------------------


    POTLOK:  cpu time    0.4736: real time    0.4757
    SETDIJ:  cpu time    0.0333: real time    0.0334
    EDDIAG:  cpu time    9.8032: real time    9.8320
  RMM-DIIS:  cpu time   37.3170: real time   37.4190
    ORTHCH:  cpu time    1.3602: real time    1.3639
 BZINTS: Fermi energy:  2.111719;778.000000 electrons
         Band energy:-621.420918;  BLOECHL correction: -0.038032
       DOS:  cpu time    0.0238: real time    0.0239
    CHARGE:  cpu time    3.0175: real time    3.0256
    MIXING:  cpu time    0.0133: real time    0.0134
    --------------------------------------------
      LOOP:  cpu time   52.0419: real time   52.1868

 eigenvalue-minimisations  :  9263
 total energy-change (2. order) : 0.5450410E+01  (-0.3888162E+01)
 number of electron     778.0000036 magnetization     156.3637613
 augmentation part      372.4445259 magnetization     117.4288946

 Broyden mixing:
  rms(total) = 0.98033E+01    rms(broyden)= 0.98032E+01
  rms(prec ) = 0.10947E+02
  weight for this iteration     100.00

 eigenvalues of (default mixing * dielectric matrix)
  average eigenvalue GAMMA=   0.3500
  1.2683  0.4595  0.4595  0.1499  0.1499  0.1300  0.0867  0.0965

 Free energy of the ion-electron system (eV)
  ---------------------------------------------------
  alpha Z        PSCENC =      1751.32544349
  Ewald energy   TEWEN  =    237306.51651172
  -Hartree energ DENC   =   -307001.71278874
  -exchange      EXHF   =         0.00000000
  -V(xc)+E(xc)   XCENC  =      1328.81565420
  PAW double counting   =     74542.72961235   -76665.31327764
  entropy T*S    EENTRO =         0.00000000
  eigenvalues    EBANDS =      -621.42091758
[...]
      9.821920  6.301691  6.974794            0           0           0  
      3.327475  0.887173  1.073320            0           0           0  
      9.370381  5.944442  1.033549            0           0           0  
      5.774364  3.511196  1.588832            0           0           0  
     11.780804  9.102106  3.012746            0           0           0  
     12.142208  7.864851  4.907167            0           0           0  
     12.898551  6.599928  3.085357            0           0           0  
      9.609021  4.409279  2.931659            0           0           0  
      8.504855  8.487467  6.956542            0           0           0  
      8.126536  8.259675  1.100142            0           0           0  
     10.595320  7.057317  2.726279            0           0           0  
      2.643452  0.125819  5.052866            0           0           0  
      8.182065  3.505601  1.219953            0           0           0  
      4.798505  1.622219  2.896171            0           0           0  
      5.809398  6.649898  3.247617            0           0           0  
      7.654684  0.412970  4.686986            0           0           0  
      9.460610  1.127012  6.522857            0           0           0  
     10.927942  8.492865  6.949276            0           0           0  
      9.362372  1.193342  1.330661            0           0           0  
     10.656315  8.732160  0.980213            0           0           0  
      5.031467  4.910390  4.716500            0           0           0  
     12.268341  3.065617  4.961597            0           0           0  
      9.642770  0.018962  3.434634            0           0           0  
      9.859490  3.061300  5.053340            0           0           0  
      6.317386  2.583125  4.702954            0           0           0  
     12.253127  4.174930  2.833240            0           0           0  
      2.095248  1.756232  3.073240            0           0           0  
     11.831281  5.721446  1.134235            0           0           0  
      6.857430  5.749036  1.303551            0           0           0  
      8.219787  6.815704  3.002248            0           0           0  
      7.040131  4.410259  3.274640            0           0           0  
     11.127403  3.888825  6.903082            0           0           0  
     10.736077  3.416087  1.011578            0           0           0  
     11.353957  0.819354  4.883300            0           0           0  
      9.676082  7.723209  4.957292            0           0           0  
      7.203849  7.639146  5.118877            0           0           0  
      5.078032  0.269348  4.939043            0           0           0  
      7.975831  3.469746  9.762082     0.469997   -0.063589    0.880375  
 
   2 f  =   28.249376 THz   177.496062 2PiTHz  942.297714 cm-1   116.830069 meV
             X         Y         Z           dx          dy          dz
     13.782457  8.541478  6.631502            0           0           0  
      5.292517  8.548538  6.416381            0           0           0  
      5.135864  3.504523  6.848126            0           0           0  
     15.267788  9.353231  8.782455            0           0           0  
      3.895252  4.538526  9.030793            0           0           0  
      6.786303  9.243945  8.743527            0           0           0  
     12.350846  4.422113  9.069799            0           0           0  
      9.551144  9.262930  9.135021            0           0           0  
     10.921187  2.040779  8.734643            0           0           0  
      2.629788  2.085018  9.088038            0           0           0  
     12.379814  9.239300  9.013447            0           0           0  
     13.850685  6.947521  8.979119            0           0           0  
      5.335515  1.926851  9.093629            0           0           0  
      8.129539  6.828407  8.808453            0           0           0  
      9.558522  4.476081  8.799787            0           0           0  
      5.327516  6.896602  8.820430            0           0           0  
      8.190983  1.893367  8.930596            0           0           0  
      8.003142  3.375801  6.651125            0           0           0  
      6.560681  1.104452  6.789518            0           0           0  
      6.833851  1.229252  1.470327            0           0           0  
      3.612352  3.964682  2.619950            0           0           0  
      1.442705  1.429454  6.827058            0           0           0  
      0.671266  0.989103  1.081883            0           0           0  
      6.748073  9.008785  3.123421            0           0           0  
      6.709653  4.426505  8.985712            0           0           0  
      8.493301  5.384394  5.053784            0           0           0  
     10.999163  6.873919  9.097186            0           0           0  
     14.948842  7.376730  4.492489            0           0           0  
     12.480261  6.135162  6.837382            0           0           0  
      6.481502  5.886573  6.645450            0           0           0  
      3.574220  2.546241  4.958776            0           0           0  
     11.126137  5.452511  4.710247            0           0           0  
      3.882892  5.909969  6.707381            0           0           0  
     13.734382  8.588522  1.762771            0           0           0  
      4.876633  8.413947  1.577885            0           0           0  
      3.758771  6.384136  2.060921            0           0           0  
      8.358503  2.272242  3.294054            0           0           0  
      9.333665  9.158858  2.963491            0           0           0  
      2.486787  3.845144  6.960363            0           0           0  
      1.948917  3.123684  0.977335            0           0           0  
     10.751866  2.212205  3.056235            0           0           0  
     13.777989  5.058683  4.814702            0           0           0  
      3.963985  0.968828  7.026897            0           0           0  
      9.821920  6.301691  6.974794            0           0           0  
      3.327475  0.887173  1.073320            0           0           0  
      9.370381  5.944442  1.033549            0           0           0  
      5.774364  3.511196  1.588832            0           0           0  
     11.780804  9.102106  3.012746            0           0           0  
     12.142208  7.864851  4.907167            0           0           0  
     12.898551  6.599928  3.085357            0           0           0  
      9.609021  4.409279  2.931659            0           0           0  
      8.504855  8.487467  6.956542            0           0           0  
      8.126536  8.259675  1.100142            0           0           0  
     10.595320  7.057317  2.726279            0           0           0  
      2.643452  0.125819  5.052866            0           0           0  
      8.182065  3.505601  1.219953            0           0           0  
      4.798505  1.622219  2.896171            0           0           0  
      5.809398  6.649898  3.247617            0           0           0  
      7.654684  0.412970  4.686986            0           0           0  
      9.460610  1.127012  6.522857            0           0           0  
     10.927942  8.492865  6.949276            0           0           0  
      9.362372  1.193342  1.330661            0           0           0  
     10.656315  8.732160  0.980213            0           0           0  
      5.031467  4.910390  4.716500            0           0           0  
     12.268341  3.065617  4.961597            0           0           0  
      9.642770  0.018962  3.434634            0           0           0  
      9.859490  3.061300  5.053340            0           0           0  
      6.317386  2.583125  4.702954            0           0           0  
     12.253127  4.174930  2.833240            0           0           0  
      2.095248  1.756232  3.073240            0           0           0  
     11.831281  5.721446  1.134235            0           0           0  
      6.857430  5.749036  1.303551            0           0           0  
      8.219787  6.815704  3.002248            0           0           0  
      7.040131  4.410259  3.274640            0           0           0  
     11.127403  3.888825  6.903082            0           0           0  
     10.736077  3.416087  1.011578            0           0           0  
     11.353957  0.819354  4.883300            0           0           0  
      9.676082  7.723209  4.957292            0           0           0  
      7.203849  7.639146  5.118877            0           0           0  
      5.078032  0.269348  4.939043            0           0           0  
      7.975831  3.469746  9.762082     0.396321   -0.876006   -0.274853  
 
   3 f  =    5.155560 THz    32.393340 2PiTHz  171.970970 cm-1    21.321691 meV
             X         Y         Z           dx          dy          dz
     13.782457  8.541478  6.631502            0           0           0  
      5.292517  8.548538  6.416381            0           0           0  
      5.135864  3.504523  6.848126            0           0           0  
     15.267788  9.353231  8.782455            0           0           0  
      3.895252  4.538526  9.030793            0           0           0  
      6.786303  9.243945  8.743527            0           0           0  
     12.350846  4.422113  9.069799            0           0           0  
      9.551144  9.262930  9.135021            0           0           0  
     10.921187  2.040779  8.734643            0           0           0  
      2.629788  2.085018  9.088038            0           0           0  
     12.379814  9.239300  9.013447            0           0           0  
     13.850685  6.947521  8.979119            0           0           0  
      5.335515  1.926851  9.093629            0           0           0  
      8.129539  6.828407  8.808453            0           0           0  
      9.558522  4.476081  8.799787            0           0           0  
      5.327516  6.896602  8.820430            0           0           0  
      8.190983  1.893367  8.930596            0           0           0  
      8.003142  3.375801  6.651125            0           0           0  
      6.560681  1.104452  6.789518            0           0           0  
      6.833851  1.229252  1.470327            0           0           0  
      3.612352  3.964682  2.619950            0           0           0  
      1.442705  1.429454  6.827058            0           0           0  
      0.671266  0.989103  1.081883            0           0           0  
      6.748073  9.008785  3.123421            0           0           0  
      6.709653  4.426505  8.985712            0           0           0  
      8.493301  5.384394  5.053784            0           0           0  
     10.999163  6.873919  9.097186            0           0           0  
     14.948842  7.376730  4.492489            0           0           0  
     12.480261  6.135162  6.837382            0           0           0  
      6.481502  5.886573  6.645450            0           0           0  
      3.574220  2.546241  4.958776            0           0           0  
     11.126137  5.452511  4.710247            0           0           0  
      3.882892  5.909969  6.707381            0           0           0  
     13.734382  8.588522  1.762771            0           0           0  
      4.876633  8.413947  1.577885            0           0           0  
      3.758771  6.384136  2.060921            0           0           0  
      8.358503  2.272242  3.294054            0           0           0  
      9.333665  9.158858  2.963491            0           0           0  
      2.486787  3.845144  6.960363            0           0           0  
      1.948917  3.123684  0.977335            0           0           0  
     10.751866  2.212205  3.056235            0           0           0  
     13.777989  5.058683  4.814702            0           0           0  
      3.963985  0.968828  7.026897            0           0           0  
      9.821920  6.301691  6.974794            0           0           0  
      3.327475  0.887173  1.073320            0           0           0  
      9.370381  5.944442  1.033549            0           0           0  
      5.774364  3.511196  1.588832            0           0           0  
     11.780804  9.102106  3.012746            0           0           0  
     12.142208  7.864851  4.907167            0           0           0  
     12.898551  6.599928  3.085357            0           0           0  
      9.609021  4.409279  2.931659            0           0           0  
      8.504855  8.487467  6.956542            0           0           0  
      8.126536  8.259675  1.100142            0           0           0  
     10.595320  7.057317  2.726279            0           0           0  
      2.643452  0.125819  5.052866            0           0           0  
      8.182065  3.505601  1.219953            0           0           0  
      4.798505  1.622219  2.896171            0           0           0  
      5.809398  6.649898  3.247617            0           0           0  
      7.654684  0.412970  4.686986            0           0           0  
      9.460610  1.127012  6.522857            0           0           0  
     10.927942  8.492865  6.949276            0           0           0  
      9.362372  1.193342  1.330661            0           0           0  
     10.656315  8.732160  0.980213            0           0           0  
      5.031467  4.910390  4.716500            0           0           0  
     12.268341  3.065617  4.961597            0           0           0  
      9.642770  0.018962  3.434634            0           0           0  
      9.859490  3.061300  5.053340            0           0           0  
      6.317386  2.583125  4.702954            0           0           0  
     12.253127  4.174930  2.833240            0           0           0  
      2.095248  1.756232  3.073240            0           0           0  
     11.831281  5.721446  1.134235            0           0           0  
      6.857430  5.749036  1.303551            0           0           0  
      8.219787  6.815704  3.002248            0           0           0  
      7.040131  4.410259  3.274640            0           0           0  
     11.127403  3.888825  6.903082            0           0           0  
     10.736077  3.416087  1.011578            0           0           0  
     11.353957  0.819354  4.883300            0           0           0  
      9.676082  7.723209  4.957292            0           0           0  
      7.203849  7.639146  5.118877            0           0           0  
      5.078032  0.269348  4.939043            0           0           0  
      7.975831  3.469746  9.762082     0.788691    0.478090   -0.386518  
 
 Finite differences POTIM=  1.500000000000000E-002
  LATTYP: Found a hexagonal cell.
 ALAT       =    11.2227001190
 C/A-ratio  =     1.9603125600
  
  Lattice vectors:
  
 A1 = (   5.6113500595,  -9.7191434021,   0.0000000000)
 A2 = ( -11.2227001190,   0.0000000000,   0.0000000000)
 A3 = (   0.0000000000,   0.0000000000, -22.0000000000)


Analysis of symmetry for initial positions (statically):
=====================================================================
 Subroutine PRICEL returns:
 Original cell was already a primitive cell.
 

 Routine SETGRP: Setting up the symmetry group for a 
 hexagonal supercell.


 Subroutine GETGRP returns: Found  1 space group operations
 (whereof  1 operations were pure point group operations)
 out of a pool of 24 trial point group operations.


The static configuration has the point symmetry C_1 .


Analysis of symmetry for dynamics (positions and initial velocities):
=====================================================================
 Subroutine PRICEL returns:
 Original cell was already a primitive cell.
 

 Routine SETGRP: Setting up the symmetry group for a 
 hexagonal supercell.


 Subroutine GETGRP returns: Found  1 space group operations
 (whereof  1 operations were pure point group operations)
 out of a pool of 24 trial point group operations.


The dynamic configuration has the point symmetry C_1 .


Analysis of constrained symmetry for selective dynamics:
=====================================================================
 Subroutine PRICEL returns:
 Original cell was already a primitive cell.
 

 Routine SETGRP: Setting up the symmetry group for a 
 hexagonal supercell.


 Subroutine GETGRP returns: Found  1 space group operations
 (whereof  1 operations were pure point group operations)
 out of a pool of 24 trial point group operations.


The constrained configuration has the point symmetry C_1 .


Analysis of structural, dynamic, and magnetic symmetry:
=====================================================================
 Subroutine PRICEL returns:
 Original cell was already a primitive cell.
 

 Routine SETGRP: Setting up the symmetry group for a 
 hexagonal supercell.


 Subroutine GETGRP returns: Found  1 space group operations
 (whereof  1 operations were pure point group operations)
 out of a pool of 24 trial point group operations.


The magnetic configuration has the point symmetry C_1 .


 Subroutine INISYM returns: Found  1 space group operations
 (whereof  1 operations are pure point group operations),
 and found     1 'primitive' translations

 
 KPOINTS: mesh auto                               

Automatic generation of k-mesh.
Space group operators:
 irot       det(A)        alpha          n_x          n_y          n_z        tau_x        tau_y        tau_z
    1     1.000000     0.000000     1.000000     0.000000     0.000000     0.000000     0.000000     0.000000
 
 Subroutine IBZKPT returns following result:
 ===========================================
 
 Found      4 irreducible k-points:
 
 Following reciprocal coordinates:
            Coordinates               Weight
  0.000000  0.000000  0.000000      1.000000
  0.500000  0.000000  0.000000      1.000000
  0.000000  0.500000  0.000000      1.000000
  0.500000  0.500000  0.000000      1.000000
 
 Following cartesian coordinates:
            Coordinates               Weight
  0.000000  0.000000  0.000000      1.000000
  0.044553 -0.025722  0.000000      1.000000
  0.000000  0.051445  0.000000      1.000000
  0.044553  0.025722  0.000000      1.000000
 
 TETIRR: Found     12 inequivalent tetrahedra from       24
     LOOP+:  cpu time  699.2643: real time  703.6760
    4ORBIT:  cpu time    0.0000: real time    0.0000
 BZINTS: Fermi energy:  1.510493;778.000000 electrons
         Band energy:-901.584723;  BLOECHL correction: -0.222316

 total amount of memory used by VASP MPI-rank0   379519. kBytes
=======================================================================

   base      :      30000. kBytes
   nonlr-proj:      90633. kBytes
   fftplans  :      13535. kBytes
   grid      :     132462. kBytes
   one-center:       2519. kBytes
   wavefun   :     110370. kBytes
 
  
  
 General timing and accounting informations for this job:
 ========================================================
  
                  Total CPU time used (sec):     9098.611
                            User time (sec):     9056.552
                          System time (sec):       42.059
                         Elapsed time (sec):     9154.942
  
                   Maximum memory used (kb):      738944.
                   Average memory used (kb):           0.
  
                          Minor page faults:      2845744
                          Major page faults:          199
                 Voluntary context switches:         8550
