 vasp.5.4.4.18Apr17-6-g9f103f2a35 (build Oct 25 2019 11:13:22) complex          
  
 executed on             LinuxIFC date 2022.02.12  03:22:39
 running on   48 total cores
 distrk:  each k-point on   48 cores,    1 groups
 distr:  one band on NCORES_PER_BAND=   4 cores,   12 groups


--------------------------------------------------------------------------------------------------------


 INCAR:
 POTCAR:    PAW_PBE Pt 04Feb2005                  
 POTCAR:    PAW_PBE Co 02Aug2007                  
 POTCAR:    PAW_PBE Ni 02Aug2007                  
 POTCAR:    PAW_PBE H 15Jun2001                   
 POTCAR:    PAW_PBE Pt 04Feb2005                  
   VRHFIN =Pt: s1d9                                                             
   LEXCH  = PE                                                                  
   EATOM  =   729.1176 eV,   53.5886 Ry                                         
                                                                                
   TITEL  = PAW_PBE Pt 04Feb2005                                                
   LULTRA =        F    use ultrasoft PP ?                                      
   IUNSCR =        1    unscreen: 0-lin 1-nonlin 2-no                           
   RPACOR =    2.330    partial core radius                                     
   POMASS =  195.080; ZVAL   =   10.000    mass and valenz                      
   RCORE  =    2.600    outmost cutoff radius                                   
   RWIGS  =    2.750; RWIGS  =    1.455    wigner-seitz radius (au A)           
   ENMAX  =  230.283; ENMIN  =  172.712 eV                                      
   ICORE  =        3    local potential                                         
   LCOR   =        T    correct aug charges                                     
   LPAW   =        T    paw PP                                                  
   EAUG   =  358.966                                                            
   DEXC   =    0.000                                                            
   RMAX   =    2.658    core radius for proj-oper                               
   RAUG   =    1.300    factor for augmentation sphere                          
   RDEP   =    2.761    radius for radial grids                                 
   RDEPT  =    2.203    core radius for aug-charge                              
                                                                                
   Atomic configuration                                                         
   16 entries                                                                   
     n  l   j            E        occ.                                          
     1  0  0.50    -78401.1885   2.0000                                         
     2  0  0.50    -13770.7750   2.0000                                         
     2  1  1.50    -11931.0468   6.0000                                         
     3  0  0.50     -3234.7234   2.0000                                         
     3  1  1.50     -2699.2216   6.0000                                         
     3  2  2.50     -2119.5714  10.0000                                         
     4  0  0.50      -695.1528   2.0000                                         
     4  1  1.50      -519.6034   6.0000                                         
     4  2  2.50      -306.6786  10.0000                                         
     4  3  3.50       -70.1041  14.0000                                         
     5  0  0.50      -101.7747   2.0000                                         
     5  1  1.50       -55.9873   6.0000                                         
     5  2  2.50        -6.1423   9.0000                                         
     6  0  0.50        -5.6573   1.0000                                         
     6  1  1.50        -6.8029   0.0000                                         
     5  3  2.50        -1.3606   0.0000                                         
   Description                                                                  
     l       E           TYP  RCUT    TYP  RCUT                                 
     2     -6.1423404     23  2.500                                             
     2     -7.5029230     23  2.500                                             
     0     -5.6573207     23  2.500                                             
     0      0.7416693     23  2.500                                             
     1     -2.7211652     23  2.600                                             
     1     20.4087390     23  2.600                                             
     3     -1.3605826     23  2.500                                             
  local pseudopotential read in
  partial core-charges read in
  partial kinetic energy density read in
  atomic valenz-charges read in
  non local Contribution for L=           2  read in
    real space projection operators read in
  non local Contribution for L=           2  read in
    real space projection operators read in
  non local Contribution for L=           0  read in
    real space projection operators read in
  non local Contribution for L=           0  read in
    real space projection operators read in
  non local Contribution for L=           1  read in
    real space projection operators read in
  non local Contribution for L=           1  read in
    real space projection operators read in
    PAW grid and wavefunctions read in
 
   number of l-projection  operators is LMAX  =           6
   number of lm-projection operators is LMMAX =          18
 
 POTCAR:    PAW_PBE Co 02Aug2007                  
   VRHFIN =Co: d8 s1                                                            
   LEXCH  = PE                                                                  
   EATOM  =   813.3670 eV,   59.7808 Ry                                         
                                                                                
   TITEL  = PAW_PBE Co 02Aug2007                                                
   LULTRA =        F    use ultrasoft PP ?                                      
   IUNSCR =        1    unscreen: 0-lin 1-nonlin 2-no                           
   RPACOR =    2.000    partial core radius                                     
   POMASS =   58.933; ZVAL   =    9.000    mass and valenz                      
   RCORE  =    2.300    outmost cutoff radius                                   
   RWIGS  =    2.460; RWIGS  =    1.302    wigner-seitz radius (au A)           
   ENMAX  =  267.968; ENMIN  =  200.976 eV                                      
   RCLOC  =    1.203    cutoff for local pot                                    
   LCOR   =        T    correct aug charges                                     
   LPAW   =        T    paw PP                                                  
   EAUG   =  477.818                                                            
   DEXC   =    0.000                                                            
   RMAX   =    2.360    core radius for proj-oper                               
   RAUG   =    1.300    factor for augmentation sphere                          
   RDEP   =    2.393    radius for radial grids                                 
   RDEPT  =    1.864    core radius for aug-charge                              
                                                                                
   Atomic configuration                                                         
    9 entries                                                                   
     n  l   j            E        occ.                                          
     1  0  0.50     -7587.6674   2.0000                                         
     2  0  0.50      -893.6084   2.0000                                         
     2  1  1.50      -764.5805   6.0000                                         
     3  0  0.50       -97.5973   2.0000                                         
     3  1  1.50       -60.9648   6.0000                                         
     3  2  2.50        -4.2382   8.0000                                         
     4  0  0.50        -4.3746   1.0000                                         
     4  1  1.50        -4.0817   0.0000                                         
     4  3  2.50        -1.3606   0.0000                                         
   Description                                                                  
     l       E           TYP  RCUT    TYP  RCUT                                 
     2     -4.2382362     23  2.300                                             
     2     -5.5988188     23  2.300                                             
     0     -4.3745797     23  2.300                                             
     0      5.7660125     23  2.300                                             
     1     -2.7211652     23  2.300                                             
     1     16.9860234     23  2.300                                             
  local pseudopotential read in
  partial core-charges read in
  partial kinetic energy density read in
  atomic valenz-charges read in
  non local Contribution for L=           2  read in
    real space projection operators read in
  non local Contribution for L=           2  read in
    real space projection operators read in
  non local Contribution for L=           0  read in
    real space projection operators read in
  non local Contribution for L=           0  read in
    real space projection operators read in
  non local Contribution for L=           1  read in
    real space projection operators read in
  non local Contribution for L=           1  read in
    real space projection operators read in
    PAW grid and wavefunctions read in
 
   number of l-projection  operators is LMAX  =           6
   number of lm-projection operators is LMMAX =          18
 
 POTCAR:    PAW_PBE Ni 02Aug2007                  
   VRHFIN =Ni:                                                                  
   LEXCH  = PE                                                                  
   EATOM  =  1077.6739 eV,   79.2068 Ry                                         
                                                                                
   TITEL  = PAW_PBE Ni 02Aug2007                                                
   LULTRA =        F    use ultrasoft PP ?                                      
   IUNSCR =        1    unscreen: 0-lin 1-nonlin 2-no                           
   RPACOR =    2.000    partial core radius                                     
   POMASS =   58.690; ZVAL   =   10.000    mass and valenz                      
   RCORE  =    2.300    outmost cutoff radius                                   
   RWIGS  =    2.430; RWIGS  =    1.286    wigner-seitz radius (au A)           
   ENMAX  =  269.532; ENMIN  =  202.149 eV                                      
   RCLOC  =    1.201    cutoff for local pot                                    
   LCOR   =        T    correct aug charges                                     
   LPAW   =        T    paw PP                                                  
   EAUG   =  544.565                                                            
   DEXC   =    0.000                                                            
   RMAX   =    2.357    core radius for proj-oper                               
   RAUG   =    1.300    factor for augmentation sphere                          
   RDEP   =    2.390    radius for radial grids                                 
   RDEPT  =    1.838    core radius for aug-charge                              
                                                                                
   Atomic configuration                                                         
    9 entries                                                                   
     n  l   j            E        occ.                                          
     1  0  0.50     -8206.4253   2.0000                                         
     2  0  0.50      -976.1748   2.0000                                         
     2  1  1.50      -839.0571   6.0000                                         
     3  0  0.50      -105.9991   2.0000                                         
     3  1  1.50       -66.4603   6.0000                                         
     3  2  2.50        -4.6458   9.0000                                         
     4  0  0.50        -4.4926   1.0000                                         
     4  1  1.50        -4.0817   0.0000                                         
     4  3  2.50        -1.3606   0.0000                                         
   Description                                                                  
     l       E           TYP  RCUT    TYP  RCUT                                 
     2     -4.6457903     23  2.300                                             
     2     -6.0063729     23  2.300                                             
     0     -4.4925590     23  2.300                                             
     0      5.0102601     23  2.300                                             
     1     -2.7211652     23  2.300                                             
     1     16.5183231     23  2.300                                             
  local pseudopotential read in
  partial core-charges read in
  partial kinetic energy density read in
  atomic valenz-charges read in
  non local Contribution for L=           2  read in
    real space projection operators read in
  non local Contribution for L=           2  read in
    real space projection operators read in
  non local Contribution for L=           0  read in
    real space projection operators read in
  non local Contribution for L=           0  read in
    real space projection operators read in
  non local Contribution for L=           1  read in
    real space projection operators read in
  non local Contribution for L=           1  read in
    real space projection operators read in
    PAW grid and wavefunctions read in
 
   number of l-projection  operators is LMAX  =           6
   number of lm-projection operators is LMMAX =          18
 
 POTCAR:    PAW_PBE H 15Jun2001                   
   VRHFIN =H: ultrasoft test                                                    
   LEXCH  = PE                                                                  
   EATOM  =    12.4884 eV,    0.9179 Ry                                         
                                                                                
   TITEL  = PAW_PBE H 15Jun2001                                                 
   LULTRA =        F    use ultrasoft PP ?                                      
   IUNSCR =        0    unscreen: 0-lin 1-nonlin 2-no                           
   RPACOR =    0.000    partial core radius                                     
   POMASS =    1.000; ZVAL   =    1.000    mass and valenz                      
   RCORE  =    1.100    outmost cutoff radius                                   
   RWIGS  =    0.700; RWIGS  =    0.370    wigner-seitz radius (au A)           
   ENMAX  =  250.000; ENMIN  =  200.000 eV                                      
   RCLOC  =    0.701    cutoff for local pot                                    
   LCOR   =        T    correct aug charges                                     
   LPAW   =        T    paw PP                                                  
   EAUG   =  400.000                                                            
   RMAX   =    1.123    core radius for proj-oper                               
   RAUG   =    1.200    factor for augmentation sphere                          
   RDEP   =    1.112    radius for radial grids                                 
   RDEPT  =    0.926    core radius for aug-charge                              
                                                                                
   Atomic configuration                                                         
    2 entries                                                                   
     n  l   j            E        occ.                                          
     1  0  0.50        -6.4927   1.0000                                         
     2  1  0.50        -3.4015   0.0000                                         
   Description                                                                  
     l       E           TYP  RCUT    TYP  RCUT                                 
     0     -6.4927494     23  1.100                                             
     0      6.8029130     23  1.100                                             
     1     -4.0817478     23  1.100                                             
  local pseudopotential read in
  atomic valenz-charges read in
  non local Contribution for L=           0  read in
    real space projection operators read in
  non local Contribution for L=           0  read in
    real space projection operators read in
  non local Contribution for L=           1  read in
    real space projection operators read in
    PAW grid and wavefunctions read in
 
   number of l-projection  operators is LMAX  =           3
   number of lm-projection operators is LMMAX =           5
 
 Optimization of the real space projectors (new method)

 maximal supplied QI-value         = 14.36
 optimisation between [QCUT,QGAM] = [ 11.92, 23.98] = [ 39.79,161.09] Ry 
 Optimized for a Real-space Cutoff    1.49 Angstroem

   l    n(q)    QCUT    max X(q) W(low)/X(q) W(high)/X(q)  e(spline) 
   2     10    11.920    66.195    0.79E-04    0.18E-03    0.24E-06
   2     10    11.920    64.643    0.81E-04    0.19E-03    0.24E-06
   0     11    11.920    95.520    0.28E-04    0.54E-04    0.18E-06
   0     11    11.920    63.403    0.27E-04    0.52E-04    0.17E-06
   1     10    11.920    19.961    0.18E-04    0.11E-03    0.23E-06
   1     10    11.920    13.289    0.25E-04    0.87E-04    0.19E-06
 Optimization of the real space projectors (new method)

 maximal supplied QI-value         = 16.25
 optimisation between [QCUT,QGAM] = [ 11.86, 23.89] = [ 39.41,159.82] Ry 
 Optimized for a Real-space Cutoff    1.33 Angstroem

   l    n(q)    QCUT    max X(q) W(low)/X(q) W(high)/X(q)  e(spline) 
   2      9    11.864    65.824    0.22E-03    0.53E-03    0.26E-06
   2      9    11.864    61.429    0.22E-03    0.53E-03    0.26E-06
   0      9    11.864    56.174    0.21E-03    0.32E-04    0.15E-06
   0      9    11.864    31.263    0.19E-03    0.30E-04    0.14E-06
   1      9    11.864    19.828    0.63E-04    0.30E-03    0.16E-06
   1      9    11.864    15.139    0.49E-04    0.25E-03    0.13E-06
 Optimization of the real space projectors (new method)

 maximal supplied QI-value         = 16.25
 optimisation between [QCUT,QGAM] = [ 11.86, 23.89] = [ 39.41,159.82] Ry 
 Optimized for a Real-space Cutoff    1.33 Angstroem

   l    n(q)    QCUT    max X(q) W(low)/X(q) W(high)/X(q)  e(spline) 
   2      9    11.864    60.317    0.21E-03    0.51E-03    0.25E-06
   2      9    11.864    55.921    0.21E-03    0.51E-03    0.26E-06
   0      9    11.864    51.690    0.22E-03    0.30E-04    0.17E-06
   0      9    11.864    30.015    0.20E-03    0.28E-04    0.15E-06
   1      9    11.864    18.849    0.76E-04    0.33E-03    0.17E-06
   1      9    11.864    14.624    0.60E-04    0.28E-03    0.15E-06
 Optimization of the real space projectors (new method)

 maximal supplied QI-value         = 34.20
 optimisation between [QCUT,QGAM] = [ 11.97, 23.94] = [ 40.13,160.53] Ry 
 Optimized for a Real-space Cutoff    1.18 Angstroem

   l    n(q)    QCUT    max X(q) W(low)/X(q) W(high)/X(q)  e(spline) 
   0      8    11.971    19.460    0.15E-03    0.31E-03    0.25E-06
   0      8    11.971    12.209    0.13E-03    0.29E-03    0.25E-06
   1      8    11.971     4.655    0.22E-03    0.24E-03    0.21E-06
  PAW_PBE Pt 04Feb2005                  :
 energy of atom  1       EATOM= -729.1176
 kinetic energy error for atom=    0.0021 (will be added to EATOM!!)
  PAW_PBE Co 02Aug2007                  :
 energy of atom  2       EATOM= -813.3670
 kinetic energy error for atom=    0.0026 (will be added to EATOM!!)
  PAW_PBE Ni 02Aug2007                  :
 energy of atom  3       EATOM=-1077.6739
 kinetic energy error for atom=    0.0027 (will be added to EATOM!!)
  PAW_PBE H 15Jun2001                   :
 energy of atom  4       EATOM=  -12.4884
 kinetic energy error for atom=    0.0008 (will be added to EATOM!!)
 
 
 POSCAR: 11.26                                   
  positions in direct lattice
  velocities in cartesian coordinates
 exchange correlation table for  LEXCH =        8
   RHO(1)=    0.500       N(1)  =     2000
   RHO(2)=  100.500       N(2)  =     4000
 


--------------------------------------------------------------------------------------------------------


 ion  position               nearest neighbor table
   1  0.789  0.879  0.301-  49 2.47  59 2.56  60 2.64  28 2.69   4 2.73   2 2.74  29 2.75  19 2.80
                            11 2.85  12 2.85  61 2.89  33 2.94
   2  0.033  0.879  0.293-  79 2.49  77 2.57  60 2.72   1 2.74  28 2.76   4 2.81   6 2.89  30 2.90
                            16 2.94  33 2.99  22 3.17  52 3.23
   3  0.276  0.362  0.311-  64 2.54  68 2.62  31 2.63  39 2.67  33 2.70   5 2.71  30 2.76  13 2.76
                            25 2.78  19 2.81  43 2.82  18 2.87
   4  0.875  0.964  0.400-  81 1.54  60 2.71   9 2.72  17 2.72   1 2.73   6 2.79  16 2.79  12 2.81
                             2 2.81  11 2.83
   5  0.113  0.467  0.410-  39 2.60  33 2.70   3 2.71  12 2.72  16 2.73  10 2.76   7 2.77  25 2.85
                            13 2.98
   6  0.125  0.959  0.400-  52 2.62  22 2.70   4 2.79   8 2.83  16 2.86   9 2.88   2 2.89  10 2.90
                            14 2.91
   7  0.873  0.455  0.412-  75 2.54  39 2.58   5 2.77  10 2.79  27 2.80   9 2.80  29 2.82  15 2.84
                            12 2.93
   8  0.377  0.956  0.415-  43 2.53  52 2.56  61 2.68  13 2.75  27 2.80  11 2.81   6 2.83  10 2.84
                            14 2.90
   9  0.864  0.211  0.396-  81 1.71  75 2.60  22 2.67   4 2.72  17 2.73  15 2.74  60 2.77   7 2.80
                             6 2.88  10 3.01
  10  0.129  0.214  0.413-  22 2.64  43 2.69  13 2.72   5 2.76  39 2.77   7 2.79   8 2.84   6 2.90
                             9 3.01
  11  0.629  0.952  0.410-  61 2.65  12 2.71  19 2.73  27 2.76  17 2.79  13 2.81   8 2.81   4 2.83
                             1 2.85
  12  0.875  0.714  0.408-  29 2.66  16 2.68  11 2.71   5 2.72   4 2.81  33 2.81  27 2.83   1 2.85
                             7 2.93
  13  0.378  0.200  0.413-  43 2.70  10 2.72  19 2.73   8 2.75   3 2.76  25 2.78  17 2.80  11 2.81
                             5 2.98
  14  0.381  0.696  0.403-  52 2.55  44 2.56  15 2.69  25 2.81  27 2.84  30 2.88  16 2.90   8 2.90
                             6 2.91
  15  0.620  0.456  0.399-  75 2.53  44 2.61  14 2.69   9 2.74  25 2.79  17 2.83   7 2.84  18 2.85
                            27 2.87
  16  0.116  0.709  0.404-  12 2.68  30 2.69   5 2.73  33 2.76   4 2.79   6 2.86  14 2.90  25 2.92
                             2 2.94
  17  0.627  0.201  0.404-  18 2.69   4 2.72   9 2.73  19 2.79  11 2.79  25 2.79  13 2.80  60 2.82
                            15 2.83
  18  0.538  0.348  0.301-  67 2.46  26 2.59  68 2.67  17 2.69  60 2.69  19 2.70  25 2.82  15 2.85
                             3 2.87  30 2.95  75 3.20
  19  0.527  0.113  0.308-  59 2.47  80 2.51  68 2.57  43 2.61  61 2.63  18 2.70  13 2.73  11 2.73
                            17 2.79   1 2.80   3 2.81  60 2.92
  20  0.546  0.126  0.067-  48 2.50  57 2.52  47 2.52  62 2.53  37 2.60  56 2.66  34 2.70  63 2.89

  21  0.118  0.408  0.119-  47 2.44  40 2.48  36 2.49  69 2.60  57 2.64  42 2.67  64 2.70  70 2.72
                            31 2.74  50 3.30
  22  0.055  0.148  0.310-  77 2.43  65 2.51  55 2.51  43 2.57  39 2.62  10 2.64   9 2.67   6 2.70
                            75 2.90  31 3.04  52 3.05   2 3.17  60 3.23
  23  0.009  0.102  0.049-  40 2.49  62 2.55  70 2.57  41 2.59  45 2.66  76 2.69  24 2.70  35 2.74
                            53 3.07
  24  0.138  0.927  0.142-  79 2.46  35 2.50  77 2.54  58 2.54  53 2.56  55 2.59  38 2.59  73 2.64
                            70 2.65  23 2.70  66 2.83
  25  0.376  0.448  0.407-  30 2.76  13 2.78   3 2.78  15 2.79  17 2.79  14 2.81  18 2.82   5 2.85
                            16 2.92
  26  0.480  0.554  0.230-  74 2.50  73 2.52  44 2.52  51 2.59  18 2.59  79 2.60  78 2.62  30 2.63
                            32 2.66  67 2.70
  27  0.627  0.707  0.413-  44 2.49  61 2.70  11 2.76   7 2.80   8 2.80  29 2.80  12 2.83  14 2.84
                            15 2.87
  28  0.953  0.759  0.204-  58 2.53  50 2.61  66 2.61  42 2.62  36 2.63  33 2.66   1 2.69   2 2.76
                            64 2.80  49 2.88  34 3.22  59 3.23  35 3.30
  29  0.797  0.631  0.311-  39 2.59  32 2.61  49 2.62  75 2.62  42 2.63  33 2.64  44 2.65  12 2.66
                             1 2.75  27 2.80   7 2.82  61 2.84
  30  0.274  0.608  0.304-  79 2.43  33 2.60  26 2.63  64 2.65  16 2.69  25 2.76   3 2.76  14 2.88
                             2 2.90  18 2.95  52 3.26
  31  0.187  0.262  0.225-  70 2.52  57 2.57  65 2.58  55 2.59  39 2.62   3 2.63  43 2.63  42 2.72
                            80 2.73  21 2.74  68 2.76  64 2.79  22 3.04
  32  0.711  0.561  0.214-  69 2.53  51 2.56  54 2.61  29 2.61  49 2.62  26 2.66  65 2.66  50 2.66
                            42 2.68  75 2.69  78 2.71  67 2.73  44 2.73
  33  0.042  0.609  0.305-  42 2.47  64 2.50  39 2.51  30 2.60  29 2.64  28 2.66   5 2.70   3 2.70
                            16 2.76  12 2.81   1 2.94   2 2.99
  34  0.782  0.884  0.080-  48 2.38  35 2.38  50 2.53  66 2.54  36 2.55  62 2.67  20 2.70  28 3.22

  35  0.002  0.866  0.072-  36 2.37  34 2.38  66 2.43  24 2.50  58 2.60  23 2.74  62 2.75  28 3.30

  36  0.006  0.657  0.094-  50 2.33  35 2.37  58 2.38  21 2.49  34 2.55  28 2.63
  37  0.628  0.234  0.150-  41 2.41  56 2.42  59 2.43  67 2.44  62 2.45  68 2.50  51 2.50  74 2.51
                            20 2.60  66 2.60
  38  0.361  0.942  0.135-  53 2.40  45 2.41  63 2.42  57 2.43  48 2.45  55 2.45  54 2.46  78 2.48
                            80 2.54  73 2.59  24 2.59  70 2.83
  39  0.024  0.396  0.316-  42 2.46  33 2.51   7 2.58  75 2.58  65 2.58  29 2.59   5 2.60  31 2.62
                            22 2.62   3 2.67  10 2.77
  40  0.013  0.321  0.044-  69 2.32  76 2.45  21 2.48  23 2.49  70 2.51  45 2.63  71 2.93
  41  0.844  0.228  0.139-  67 2.35  76 2.37  77 2.38  37 2.41  62 2.44  51 2.48  69 2.48  66 2.49
                            65 2.58  23 2.59  70 2.61
  42  0.967  0.520  0.219-  39 2.46  33 2.47  50 2.48  64 2.48  65 2.50  28 2.62  29 2.63  69 2.65
                            21 2.67  32 2.68  31 2.72
  43  0.303  0.099  0.319-  52 2.45  80 2.46  55 2.51   8 2.53  61 2.56  22 2.57  19 2.61  31 2.63
                            10 2.69  13 2.70   3 2.82
  44  0.553  0.648  0.317-  61 2.45  78 2.47  27 2.49  26 2.52  14 2.56  52 2.57  15 2.61  29 2.65
                            75 2.73  32 2.73
  45  0.251  0.091  0.049-  38 2.41  57 2.45  53 2.48  70 2.50  63 2.54  40 2.63  23 2.66
  46  0.529  0.612  0.047-  54 2.37  73 2.44  51 2.45  71 2.47  72 2.53  53 2.63  56 2.72  76 2.87
                            63 3.07
  47  0.334  0.361  0.072-  74 2.29  56 2.44  21 2.44  57 2.50  72 2.50  20 2.52
  48  0.581  0.937  0.137-  49 2.29  63 2.35  34 2.38  54 2.38  80 2.38  38 2.45  59 2.46  20 2.50
                            57 2.63  50 2.74
  49  0.677  0.809  0.223-  48 2.29  50 2.34  61 2.46  78 2.47   1 2.47  59 2.54  80 2.57  29 2.62
                            32 2.62  54 2.79  28 2.88
  50  0.810  0.679  0.140-  36 2.33  49 2.34  54 2.38  71 2.39  42 2.48  69 2.52  34 2.53  28 2.61
                            32 2.66  48 2.74  21 3.30
  51  0.629  0.454  0.133-  56 2.40  76 2.44  46 2.45  41 2.48  37 2.50  67 2.53  32 2.56  26 2.59
                            74 2.59  69 2.66  73 2.78  54 2.83
  52  0.320  0.872  0.317-  55 2.38  79 2.41  61 2.43  43 2.45  78 2.46  14 2.55   8 2.56  44 2.57
                             6 2.62  22 3.05   2 3.23  30 3.26
  53  0.299  0.850  0.050-  73 2.39  38 2.40  45 2.48  24 2.56  63 2.58  46 2.63  72 2.82  23 3.07

  54  0.581  0.726  0.124-  46 2.37  50 2.38  48 2.38  73 2.40  71 2.42  63 2.42  38 2.46  78 2.50
                            32 2.61  49 2.79  51 2.83
  55  0.229  0.013  0.230-  52 2.38  80 2.44  79 2.44  38 2.45  43 2.51  22 2.51  78 2.56  24 2.59
                            31 2.59  77 2.61  70 2.62
  56  0.549  0.361  0.055-  51 2.40  37 2.42  47 2.44  74 2.52  76 2.56  62 2.60  72 2.61  20 2.66
                            46 2.72
  57  0.344  0.167  0.132-  38 2.43  45 2.45  80 2.47  47 2.50  20 2.52  68 2.55  31 2.57  48 2.63
                            21 2.64  70 2.71
  58  0.176  0.684  0.148-  36 2.38  72 2.39  64 2.41  73 2.43  28 2.53  79 2.53  24 2.54  74 2.56
                            35 2.60
  59  0.661  0.042  0.213-  66 2.38  37 2.43  48 2.46  19 2.47  49 2.54  68 2.55   1 2.56  80 2.59
                            60 2.68  28 3.23
  60  0.785  0.116  0.297-  67 2.47  77 2.53   1 2.64  59 2.68  18 2.69   4 2.71   2 2.72   9 2.77
                            17 2.82  19 2.92  22 3.23
  61  0.536  0.875  0.316-  52 2.43  44 2.45  49 2.46  78 2.48  80 2.51  43 2.56  19 2.63  11 2.65
                             8 2.68  27 2.70  29 2.84   1 2.89
  62  0.773  0.123  0.060-  66 2.43  41 2.44  37 2.45  20 2.53  23 2.55  56 2.60  76 2.63  34 2.67
                            35 2.75
  63  0.500  0.898  0.045-  48 2.35  54 2.42  38 2.42  45 2.54  53 2.58  20 2.89  46 3.07
  64  0.196  0.505  0.214-  58 2.41  42 2.48  33 2.50  74 2.52   3 2.54  30 2.65  68 2.66  21 2.70
                            31 2.79  28 2.80
  65  0.935  0.315  0.226-  75 2.39  69 2.40  67 2.41  77 2.43  42 2.50  22 2.51  70 2.53  41 2.58
                            31 2.58  39 2.58  32 2.66
  66  0.858  0.002  0.156-  77 2.38  59 2.38  62 2.43  35 2.43  41 2.49  34 2.54  37 2.60  28 2.61
                            24 2.83
  67  0.721  0.315  0.230-  41 2.35  75 2.39  65 2.41  37 2.44  18 2.46  60 2.47  51 2.53  26 2.70
                            77 2.70  32 2.73
  68  0.430  0.266  0.214-  74 2.43  37 2.50  57 2.55  59 2.55  19 2.57   3 2.62  80 2.64  64 2.66
                            18 2.67  31 2.76
  69  0.877  0.430  0.129-  40 2.32  71 2.34  65 2.40  41 2.48  76 2.49  50 2.52  32 2.53  21 2.60
                            42 2.65  70 2.65  51 2.66
  70  0.096  0.181  0.140-  45 2.50  40 2.51  31 2.52  65 2.53  23 2.57  41 2.61  55 2.62  24 2.65
                            69 2.65  57 2.71  21 2.72  77 2.83  38 2.83
  71  0.760  0.589  0.052-  69 2.34  50 2.39  54 2.42  46 2.47  76 2.56  40 2.93
  72  0.315  0.592  0.059-  58 2.39  74 2.39  73 2.42  47 2.50  46 2.53  56 2.61  53 2.82
  73  0.382  0.701  0.136-  53 2.39  54 2.40  72 2.42  58 2.43  46 2.44  79 2.49  26 2.52  38 2.59
                            78 2.60  24 2.64  74 2.69  51 2.78
  74  0.400  0.454  0.149-  47 2.29  72 2.39  68 2.43  26 2.50  37 2.51  56 2.52  64 2.52  58 2.56
                            51 2.59  73 2.69
  75  0.792  0.401  0.314-  67 2.39  65 2.39  15 2.53   7 2.54  39 2.58   9 2.60  29 2.62  32 2.69
                            44 2.73  22 2.90  18 3.20
  76  0.781  0.351  0.046-  41 2.37  51 2.44  40 2.45  69 2.49  71 2.56  56 2.56  62 2.63  23 2.69
                            46 2.87
  77  0.970  0.084  0.222-  41 2.38  66 2.38  65 2.43  22 2.43  60 2.53  24 2.54   2 2.57  55 2.61
                            67 2.70  70 2.83
  78  0.465  0.795  0.225-  52 2.46  49 2.47  44 2.47  61 2.48  79 2.48  38 2.48  80 2.48  54 2.50
                            55 2.56  73 2.60  26 2.62  32 2.71
  79  0.249  0.786  0.233-  52 2.41  30 2.43  55 2.44  24 2.46  78 2.48  73 2.49   2 2.49  58 2.53
                            26 2.60
  80  0.439  0.028  0.225-  48 2.38  55 2.44  43 2.46  57 2.47  78 2.48  19 2.51  61 2.51  38 2.54
                            49 2.57  59 2.59  68 2.64  31 2.73
  81  0.864  0.083  0.438-   4 1.54   9 1.71
 
  LATTYP: Found a hexagonal cell.
 ALAT       =    11.2227001190
 C/A-ratio  =     1.9603125600
  
  Lattice vectors:
  
 A1 = (   5.6113500595,  -9.7191434021,   0.0000000000)
 A2 = ( -11.2227001190,   0.0000000000,   0.0000000000)
 A3 = (   0.0000000000,   0.0000000000, -22.0000000000)


Analysis of symmetry for initial positions (statically):
=====================================================================
 Subroutine PRICEL returns:
 Original cell was already a primitive cell.
 

 Routine SETGRP: Setting up the symmetry group for a 
 hexagonal supercell.


 Subroutine GETGRP returns: Found  1 space group operations
 (whereof  1 operations were pure point group operations)
 out of a pool of 24 trial point group operations.


The static configuration has the point symmetry C_1 .


Analysis of symmetry for dynamics (positions and initial velocities):
=====================================================================
 Subroutine PRICEL returns:
 Original cell was already a primitive cell.
 

 Routine SETGRP: Setting up the symmetry group for a 
 hexagonal supercell.


 Subroutine GETGRP returns: Found  1 space group operations
 (whereof  1 operations were pure point group operations)
 out of a pool of 24 trial point group operations.


The dynamic configuration has the point symmetry C_1 .


Analysis of constrained symmetry for selective dynamics:
=====================================================================
 Subroutine PRICEL returns:
 Original cell was already a primitive cell.
 

 Routine SETGRP: Setting up the symmetry group for a 
 hexagonal supercell.


 Subroutine GETGRP returns: Found  1 space group operations
 (whereof  1 operations were pure point group operations)
 out of a pool of 24 trial point group operations.


The constrained configuration has the point symmetry C_1 .


Analysis of structural, dynamic, and magnetic symmetry:
=====================================================================
 Subroutine PRICEL returns:
 Original cell was already a primitive cell.
 

 Routine SETGRP: Setting up the symmetry group for a 
 hexagonal supercell.


 Subroutine GETGRP returns: Found  1 space group operations
 (whereof  1 operations were pure point group operations)
 out of a pool of 24 trial point group operations.


The magnetic configuration has the point symmetry C_1 .


 Subroutine INISYM returns: Found  1 space group operations
 (whereof  1 operations are pure point group operations),
 and found     1 'primitive' translations

 
 
 KPOINTS: mesh auto                               

Automatic generation of k-mesh.
Space group operators:
 irot       det(A)        alpha          n_x          n_y          n_z        tau_x        tau_y        tau_z
    1     1.000000     0.000000     1.000000     0.000000     0.000000     0.000000     0.000000     0.000000
 
 Subroutine IBZKPT returns following result:
 ===========================================
 
 Found      4 irreducible k-points:
 
 Following reciprocal coordinates:
            Coordinates               Weight
  0.000000  0.000000  0.000000      1.000000
  0.500000  0.000000  0.000000      1.000000
  0.000000  0.500000  0.000000      1.000000
  0.500000  0.500000  0.000000      1.000000
 
 Following cartesian coordinates:
            Coordinates               Weight
  0.000000  0.000000  0.000000      1.000000
  0.044553 -0.025722  0.000000      1.000000
  0.000000  0.051445  0.000000      1.000000
  0.044553  0.025722  0.000000      1.000000
 


--------------------------------------------------------------------------------------------------------




 Dimension of arrays:
   k-points           NKPTS =      4   k-points in BZ     NKDIM =      4   number of bands    NBANDS=    576
   number of dos      NEDOS =    301   number of ions     NIONS =     81
   non local maximal  LDIM  =      6   non local SUM 2l+1 LMDIM =     18
   total plane-waves  NPLWV = ******
   max r-space proj   IRMAX =   7929   max aug-charges    IRDMAX=  34542
   dimension x,y,z NGX =    90 NGY =   90 NGZ =  168
   dimension x,y,z NGXF=   180 NGYF=  180 NGZF=  336
   support grid    NGXF=   180 NGYF=  180 NGZF=  336
   ions per type =              32  23  25   1
   NGX,Y,Z   is equivalent  to a cutoff of  13.33, 13.33, 12.70 a.u.
   NGXF,Y,Z  is equivalent  to a cutoff of  26.66, 26.66, 25.39 a.u.

 SYSTEM =  Pt111                                   
 POSCAR =  11.26                                   

 Startparameter for this run:
   NWRITE =      2    write-flag & timer
   PREC   = accura    normal or accurate (medium, high low for compatibility)
   ISTART =      0    job   : 0-new  1-cont  2-samecut
   ICHARG =      2    charge: 1-file 2-atom 10-const
   ISPIN  =      2    spin polarized calculation?
   LNONCOLLINEAR =      F non collinear calculations
   LSORBIT =      F    spin-orbit coupling
   INIWAV =      1    electr: 0-lowe 1-rand  2-diag
   LASPH  =      F    aspherical Exc in radial PAW
   METAGGA=      F    non-selfconsistent MetaGGA calc.

 Electronic Relaxation 1
   ENCUT  =  550.0 eV  40.42 Ry    6.36 a.u.  21.46 21.46 42.07*2*pi/ulx,y,z
   ENINI  =  550.0     initial cutoff
   ENAUG  =  544.6 eV  augmentation charge cutoff
   NELM   =    200;   NELMIN=  2; NELMDL= -5     # of ELM steps 
   EDIFF  = 0.1E-04   stopping-criterion for ELM
   LREAL  =      T    real-space projection
   NLSPLINE    = F    spline interpolate recip. space projectors
   LCOMPAT=      F    compatible to vasp.4.4
   GGA_COMPAT  = T    GGA compatible to vasp.4.4-vasp.4.6
   LMAXPAW     = -100 max onsite density
   LMAXMIX     =    2 max onsite mixed and CHGCAR
   VOSKOWN=      0    Vosko Wilk Nusair interpolation
   ROPT   =   -0.00025  -0.00025  -0.00025  -0.00025
 Ionic relaxation
   EDIFFG = -.5E-01   stopping-criterion for IOM
   NSW    =    300    number of steps for IOM
   NBLOCK =      1;   KBLOCK =    300    inner block; outer block 
   IBRION =      2    ionic relax: 0-MD 1-quasi-New 2-CG
   NFREE  =      1    steps in history (QN), initial steepest desc. (CG)
   ISIF   =      2    stress and relaxation
   IWAVPR =     11    prediction:  0-non 1-charg 2-wave 3-comb
   ISYM   =      2    0-nonsym 1-usesym 2-fastsym
   LCORR  =      T    Harris-Foulkes like correction to forces

   POTIM  = 0.5000    time-step for ionic-motion
   TEIN   =    0.0    initial temperature
   TEBEG  =    0.0;   TEEND  =   0.0 temperature during run
   SMASS  =  -3.00    Nose mass-parameter (am)
   estimated Nose-frequenzy (Omega)   =  0.10E-29 period in steps =****** mass=  -0.288E-26a.u.
   SCALEE = 1.0000    scale energy and forces
   NPACO  =    256;   APACO  = 16.0  distance and # of slots for P.C.
   PSTRESS=    0.0 pullay stress

  Mass of Ions in am
   POMASS = 195.08 58.93 58.69  1.00
  Ionic Valenz
   ZVAL   =  10.00  9.00 10.00  1.00
  Atomic Wigner-Seitz radii
   RWIGS  =  -1.00 -1.00 -1.00 -1.00
  virtual crystal weights 
   VCA    =   1.00  1.00  1.00  1.00
   NELECT =     778.0000    total number of electrons
   NUPDOWN=      -1.0000    fix difference up-down

 DOS related values:
   EMIN   =  10.00;   EMAX   =-10.00  energy-range for DOS
   EFERMI =   0.00
   ISMEAR =     1;   SIGMA  =   0.10  broadening in eV -4-tet -1-fermi 0-gaus

 Electronic relaxation 2 (details)
   IALGO  =     68    algorithm
   LDIAG  =      T    sub-space diagonalisation (order eigenvalues)
   LSUBROT=      F    optimize rotation matrix (better conditioning)
   TURBO    =      0    0=normal 1=particle mesh
   IRESTART =      0    0=no restart 2=restart with 2 vectors
   NREBOOT  =      0    no. of reboots
   NMIN     =      0    reboot dimension
   EREF     =   0.00    reference energy to select bands
   IMIX   =      4    mixing-type and parameters
     AMIX     =   0.40;   BMIX     =  1.00
     AMIX_MAG =   1.60;   BMIX_MAG =  1.00
     AMIN     =   0.10
     WC   =   100.;   INIMIX=   1;  MIXPRE=   1;  MAXMIX= -45

 Intra band minimization:
   WEIMIN = 0.0010     energy-eigenvalue tresh-hold
   EBREAK =  0.43E-08  absolut break condition
   DEPER  =   0.30     relativ break condition  

   TIME   =   0.40     timestep for ELM

  volume/ion in A,a.u.               =      29.63       199.92
  Fermi-wavevector in a.u.,A,eV,Ry     =   1.124653  2.125287 17.209264  1.264845
  Thomas-Fermi vector in A             =   2.261326
 
 Write flags
   LWAVE        =      F    write WAVECAR
   LDOWNSAMPLE  =      F    k-point downsampling of WAVECAR
   LCHARG       =      F    write CHGCAR
   LVTOT        =      F    write LOCPOT, total local potential
   LVHAR        =      F    write LOCPOT, Hartree potential only
   LELF         =      F    write electronic localiz. function (ELF)
   LORBIT       =      0    0 simple, 1 ext, 2 COOP (PROOUT), +10 PAW based schemes


 Dipole corrections
   LMONO  =      F    monopole corrections only (constant potential shift)
   LDIPOL =      F    correct potential (dipole corrections)
   IDIPOL =      0    1-x, 2-y, 3-z, 4-all directions 
   EPSILON=  1.0000000 bulk dielectric constant

 Exchange correlation treatment:
   GGA     =    --    GGA type
   LEXCH   =     8    internal setting for exchange type
   VOSKOWN=      0    Vosko Wilk Nusair interpolation
   LHFCALC =     F    Hartree Fock is set to
   LHFONE  =     F    Hartree Fock one center treatment
   AEXX    =    0.0000 exact exchange contribution

 Linear response parameters
   LEPSILON=     F    determine dielectric tensor
   LRPA    =     F    only Hartree local field effects (RPA)
   LNABLA  =     F    use nabla operator in PAW spheres
   LVEL    =     F    velocity operator in full k-point grid
   LINTERFAST=   F  fast interpolation
   KINTER  =     0    interpolate to denser k-point grid
   CSHIFT  =0.1000    complex shift for real part using Kramers Kronig
   OMEGAMAX=  -1.0    maximum frequency
   DEG_THRESHOLD= 0.2000000E-02 threshold for treating states as degnerate
   RTIME   =   -0.100 relaxation time in fs
  (WPLASMAI=    0.000 imaginary part of plasma frequency in eV, 0.658/RTIME)
   DFIELD  = 0.0000000 0.0000000 0.0000000 field for delta impulse in time
 
 Orbital magnetization related:
   ORBITALMAG=     F  switch on orbital magnetization
   LCHIMAG   =     F  perturbation theory with respect to B field
   DQ        =  0.001000  dq finite difference perturbation B field
   LLRAUG    =     F  two centre corrections for induced B field



--------------------------------------------------------------------------------------------------------


 conjugate gradient relaxation of ions
   using selective dynamics as specified on POSCAR
 charge density and potential will be updated during run
 spin polarized calculation
 RMM-DIIS sequential band-by-band and
  variant of blocked Davidson during initial phase
 perform sub-space diagonalisation
    before iterative eigenvector-optimisation
 modified Broyden-mixing scheme, WC =      100.0
 initial mixing is a Kerker type mixing with AMIX =  0.4000 and BMIX =      1.0000
 Hartree-type preconditioning will be used
 using additional bands          187
 real space projection scheme for non local part
 use partial core corrections
 calculate Harris-corrections to forces 
   (improved forces if not selfconsistent)
 use gradient corrections 
 use of overlap-Matrix (Vanderbilt PP)
 Methfessel and Paxton  Order N= 1 SIGMA  =   0.10


--------------------------------------------------------------------------------------------------------


  energy-cutoff  :      550.00
  volume of cell :     2399.65
      direct lattice vectors                 reciprocal lattice vectors
    11.222700119  0.000000000  0.000000000     0.089105116 -0.051444863  0.000000000
     5.611350060  9.719143402  0.000000000     0.000000000  0.102889726  0.000000000
     0.000000000  0.000000000 22.000000000     0.000000000  0.000000000  0.045454545

  length of vectors
    11.222700119 11.222700119 22.000000000     0.102889726  0.102889726  0.045454545


 
 k-points in units of 2pi/SCALE and weight: mesh auto                               
   0.00000000  0.00000000  0.00000000       0.250
   0.04455256 -0.02572243  0.00000000       0.250
   0.00000000  0.05144486  0.00000000       0.250
   0.04455256  0.02572243  0.00000000       0.250
 
 k-points in reciprocal lattice and weights: mesh auto                               
   0.00000000  0.00000000  0.00000000       0.250
   0.50000000  0.00000000  0.00000000       0.250
   0.00000000  0.50000000  0.00000000       0.250
   0.50000000  0.50000000  0.00000000       0.250
 
 position of ions in fractional coordinates (direct lattice) 
   0.78925998  0.87878802  0.30121222
   0.03270259  0.87918048  0.29281978
   0.27595481  0.36227641  0.31085980
   0.87452803  0.96417189  0.39986541
   0.11347695  0.46739997  0.41031125
   0.12514630  0.95929033  0.39950627
   0.87301284  0.45480225  0.41217167
   0.37701318  0.95585584  0.41523770
   0.86441231  0.21135176  0.39649291
   0.12938104  0.21430742  0.41300922
   0.62945289  0.95163036  0.40962071
   0.87531965  0.71431373  0.40848710
   0.37811308  0.20035718  0.41347329
   0.38084327  0.69648099  0.40256170
   0.62040281  0.45628506  0.39873021
   0.11607802  0.70916439  0.40358339
   0.62681720  0.20137626  0.40429930
   0.53828593  0.34754319  0.30086371
   0.52741195  0.11320966  0.30844004
   0.54569241  0.12647739  0.06683304
   0.11791659  0.40792499  0.11908862
   0.05457374  0.14826096  0.31034432
   0.00892895  0.10176852  0.04917651
   0.13783207  0.92691145  0.14197368
   0.37604756  0.44835740  0.40652188
   0.47979716  0.55399880  0.22971747
   0.62713798  0.70737237  0.41347945
   0.95252345  0.75898977  0.20420405
   0.79731901  0.63088403  0.31069021
   0.27421233  0.60849866  0.30376107
   0.18749030  0.26198206  0.22539890
   0.71089206  0.56100734  0.21410215
   0.04247202  0.60866576  0.30471865
   0.78196837  0.88367072  0.08012597
   0.00167860  0.86570870  0.07172203
   0.00649475  0.65686199  0.09367822
   0.62789021  0.23379040  0.14972974
   0.36050112  0.94235243  0.13470415
   0.02367156  0.39570538  0.31624423
   0.01296097  0.32139498  0.04442433
   0.84423970  0.22761319  0.13891977
   0.96744603  0.52048649  0.21885007
   0.30318925  0.09874004  0.31911861
   0.55336689  0.64796514  0.31680171
   0.25085454  0.09128101  0.04878728
   0.52913784  0.61162204  0.04697948
   0.33389242  0.36126594  0.07221963
   0.58147332  0.93651314  0.13694302
   0.67732667  0.80921239  0.22305304
   0.80979447  0.67906481  0.14024348
   0.62937817  0.45366950  0.13325724
   0.32036889  0.87194096  0.31726179
   0.29919813  0.84983568  0.05000644
   0.58103448  0.72612545  0.12392179
   0.22907234  0.01294552  0.22967573
   0.54871865  0.36069037  0.05545242
   0.34411655  0.16690962  0.13164412
   0.17554400  0.68420617  0.14761894
   0.66082635  0.04249037  0.21304482
   0.78516879  0.11592854  0.29690217
   0.53581451  0.87478900  0.31589053
   0.77284397  0.12278263  0.06048458
   0.50030742  0.89844953  0.04455515
   0.19571508  0.50522867  0.21438636
   0.93546177  0.31542046  0.22552712
   0.85824468  0.00195101  0.15611973
   0.72104290  0.31497628  0.22969726
   0.43002289  0.26577701  0.21377066
   0.87703755  0.42955743  0.12878365
   0.09634819  0.18069822  0.13969274
   0.75988870  0.58867799  0.05155611
   0.31527374  0.59151669  0.05925234
   0.38179216  0.70126590  0.13646584
   0.40042658  0.45377032  0.14884727
   0.79153862  0.40082537  0.31361618
   0.78089926  0.35148021  0.04598080
   0.96954404  0.08430315  0.22196820
   0.46486898  0.79463888  0.22533144
   0.24890496  0.78598962  0.23267623
   0.43862206  0.02771317  0.22450195
   0.86430680  0.08335520  0.43844976
 
 position of ions in cartesian coordinates  (Angst):
  13.78881523  8.54106679  6.62666878
   5.30040079  8.54488114  6.44203507
   5.12981781  3.52101637  6.83891552
  15.22487182  9.37092486  8.79703905
   3.89626264  4.54272733  9.02684743
   6.78739321  9.32348026  8.78913801
  12.34961596  4.42028825  9.06777677
   9.59474762  9.29009995  9.13522950
  10.88700891  2.05415809  8.72284412
   2.65455856  2.08288452  9.08620280
  12.40409210  9.24903192  9.01165573
  13.83171432  6.94251760  8.98671616
   5.36772404  1.94730018  9.09641244
   8.18228845  6.76919863  8.85635749
   9.52296988  4.43469994  8.77206466
   5.28207851  6.89247041  8.87883451
   8.16457415  1.95720479  8.89458451
   7.99120805  3.37782207  6.61900172
   6.55424518  1.10030096  6.78568086
   6.83385120  1.22925189  1.47032698
   3.61235247  3.96468152  2.61994962
   1.44440888  1.44096951  6.82757507
   0.67126575  0.98910281  1.08188317
   6.74807265  9.00878530  3.12342105
   6.73615930  4.35764984  8.94348133
   8.49330084  5.38439383  5.05378437
  11.00749549  6.87505349  9.09654801
  14.94884239  7.37673046  4.49248916
  12.48818327  6.13165233  6.83518465
   6.49190180  5.91408578  6.68274363
   3.57422044  2.54624125  4.95877580
  11.12613698  5.45251083  4.71024739
   3.89208734  5.91570976  6.70381020
  13.73438227  8.58852246  1.76277137
   4.87663302  8.41394697  1.57788465
   3.75877116  6.38413590  2.06092090
   8.35850333  2.27224245  3.29405432
   9.33366537  9.15885838  2.96349132
   2.48610016  3.84591731  6.95737300
   1.94891684  3.12368389  0.97733531
  10.75186628  2.21220519  3.05623495
  13.77798860  5.05868282  4.81470165
   3.95666700  0.95966865  7.02060946
   9.84622993  6.29766610  6.96963760
   3.32747495  0.88717326  1.07332023
   9.37038068  5.94444230  1.03354859
   5.77436416  3.51119550  1.58883193
  11.78080373  9.10210551  3.01274644
  12.14220806  7.86485128  4.90716692
  12.89855082  6.59992829  3.08535659
   9.60902083  4.40927897  2.93165935
   8.48817002  8.47451927  6.97975946
   8.12653637  8.25967484  1.10014163
  10.59531978  7.05731733  2.72627938
   2.64345207  0.12581940  5.05286608
   8.18206475  3.50560142  1.21995326
   4.79850516  1.62221856  2.89617069
   5.80939796  6.64989784  3.24761674
   7.65468432  0.41297001  4.68698615
   9.46222948  1.12672610  6.53184779
  10.92203289  8.50219970  6.94959171
   9.36237240  1.19334199  1.33066085
  10.65631497  8.73215981  0.98021322
   5.03146660  4.91038993  4.71649990
  12.26834149  3.06561666  4.96159659
   9.64277050  0.01896212  3.43463404
   9.85949038  3.06129963  5.05333976
   6.31738572  2.58312482  4.70295446
  12.25312658  4.17493029  2.83324027
   2.09524784  1.75623189  3.07324021
  11.83128130  5.72144585  1.13423452
   6.85742987  5.74903551  1.30355140
   8.21978744  6.81570388  3.00224843
   7.04013147  4.41025877  3.27463986
  11.13237201  3.89567921  6.89955600
  10.73607676  3.41608656  1.01157751
  11.35395654  0.81935443  4.88330047
   9.67608211  7.72320924  4.95729164
   7.20384860  7.63914586  5.11887697
   5.07803210  0.26934830  4.93904295
  10.16759120  0.81014111  9.64589479
 


--------------------------------------------------------------------------------------------------------


 k-point  1 :   0.0000 0.0000 0.0000  plane waves:   70321
 k-point  2 :   0.5000 0.0000 0.0000  plane waves:   70264
 k-point  3 :   0.0000 0.5000 0.0000  plane waves:   70264
 k-point  4 :   0.5000 0.5000 0.0000  plane waves:   70264

 maximum and minimum number of plane-waves per node :     17611    17530

 maximum number of plane-waves:     70321
 maximum index in each direction: 
   IXMAX=   21   IYMAX=   21   IZMAX=   42
   IXMIN=  -21   IYMIN=  -21   IZMIN=  -42


 real space projection operators:
  total allocation   :      70752.11 KBytes
  max/ min on nodes  :      18090.35      17294.93


 parallel 3D FFT for wavefunctions:
    minimum data exchange during FFTs selected (reduces bandwidth)
 parallel 3D FFT for charge:
    minimum data exchange during FFTs selected (reduces bandwidth)


 total amount of memory used by VASP MPI-rank0   243557. kBytes
=======================================================================

   base      :      30000. kBytes
   nonlr-proj:      33158. kBytes
   fftplans  :      18297. kBytes
   grid      :      51226. kBytes
   one-center:        653. kBytes
   wavefun   :     110223. kBytes
 
     INWAV:  cpu time    0.0000: real time    0.0000
 Broyden mixing: mesh for mixing (old mesh)
   NGX = 43   NGY = 43   NGZ = 85
  (NGX  =180   NGY  =180   NGZ  =336)
  gives a total of 157165 points

 initial charge density was supplied:
 charge density of overlapping atoms calculated
 number of electron     778.0000000 magnetization     206.0000000
 keeping initial charge density in first step


--------------------------------------------------------------------------------------------------------


 Maximum index for non-local projection operator         2137
 Maximum index for augmentation-charges         1121 (set IRDMAX)


--------------------------------------------------------------------------------------------------------


 First call to EWALD:  gamma=   0.132
 Maximum number of real-space cells 4x 4x 2
 Maximum number of reciprocal cells 2x 2x 4

    FEWALD:  cpu time    0.0093: real time    0.0093


--------------------------------------- Iteration      1(   1)  ---------------------------------------


    POTLOK:  cpu time    0.4740: real time    0.4776
    SETDIJ:  cpu time    0.0361: real time    0.0362
     EDDAV:  cpu time   67.1139: real time   67.4345
       DOS:  cpu time    0.0026: real time    0.0276
    --------------------------------------------
      LOOP:  cpu time   67.6267: real time   67.9760

 eigenvalue-minimisations  :  9216
 total energy-change (2. order) : 0.6870239E+04  (-0.3404409E+05)
 number of electron     778.0000000 magnetization     206.0000000
 augmentation part      778.0000000 magnetization     206.0000000

 Free energy of the ion-electron system (eV)
  ---------------------------------------------------
  alpha Z        PSCENC =      1751.32544349
  Ewald energy   TEWEN  =    237195.63506614
  -Hartree energ DENC   =   -307250.97315516
  -exchange      EXHF   =         0.00000000
  -V(xc)+E(xc)   XCENC  =      1334.74022019
  PAW double counting   =     62871.68470781   -64853.88848185
  entropy T*S    EENTRO =         0.00319359
  eigenvalues    EBANDS =      6828.36589112
  atomic energy  EATOM  =     68993.34587830
  Solvation  Ediel_sol  =         0.00000000
  ---------------------------------------------------
  free energy    TOTEN  =      6870.23876363 eV

  energy without entropy =     6870.23557004  energy(sigma->0) =     6870.23769910


--------------------------------------------------------------------------------------------------------




--------------------------------------- Iteration      1(   2)  ---------------------------------------


     EDDAV:  cpu time   67.0429: real time   67.2335
       DOS:  cpu time    0.0047: real time    1.4107
    --------------------------------------------
      LOOP:  cpu time   67.0476: real time   68.6442

 eigenvalue-minimisations  :  9216
 total energy-change (2. order) :-0.6437528E+04  (-0.5813486E+04)
 number of electron     778.0000000 magnetization     206.0000000
 augmentation part      778.0000000 magnetization     206.0000000

 Free energy of the ion-electron system (eV)
  ---------------------------------------------------
  alpha Z        PSCENC =      1751.32544349
  Ewald energy   TEWEN  =    237195.63506614
  -Hartree energ DENC   =   -307250.97315516
  -exchange      EXHF   =         0.00000000
  -V(xc)+E(xc)   XCENC  =      1334.74022019
  PAW double counting   =     62871.68470781   -64853.88848185
  entropy T*S    EENTRO =        -0.00264412
  eigenvalues    EBANDS =       390.84362028
  atomic energy  EATOM  =     68993.34587830
  Solvation  Ediel_sol  =         0.00000000
  ---------------------------------------------------
  free energy    TOTEN  =       432.71065508 eV

  energy without entropy =      432.71329921  energy(sigma->0) =      432.71153646


--------------------------------------------------------------------------------------------------------




--------------------------------------- Iteration      1(   3)  ---------------------------------------


     EDDAV:  cpu time   69.6972: real time   69.9655
       DOS:  cpu time    0.0029: real time    0.0131
    --------------------------------------------
      LOOP:  cpu time   69.7001: real time   69.9786

 eigenvalue-minimisations  :  9708
 total energy-change (2. order) :-0.8796558E+03  (-0.7316925E+03)
 number of electron     778.0000000 magnetization     206.0000000
 augmentation part      778.0000000 magnetization     206.0000000

 Free energy of the ion-electron system (eV)
  ---------------------------------------------------
  alpha Z        PSCENC =      1751.32544349
  Ewald energy   TEWEN  =    237195.63506614
  -Hartree energ DENC   =   -307250.97315516
  -exchange      EXHF   =         0.00000000
  -V(xc)+E(xc)   XCENC  =      1334.74022019
  PAW double counting   =     62871.68470781   -64853.88848185
  entropy T*S    EENTRO =         0.00372268
  eigenvalues    EBANDS =      -488.81855661
  atomic energy  EATOM  =     68993.34587830
  Solvation  Ediel_sol  =         0.00000000
  ---------------------------------------------------
  free energy    TOTEN  =      -446.94515500 eV

  energy without entropy =     -446.94887769  energy(sigma->0) =     -446.94639590


--------------------------------------------------------------------------------------------------------




--------------------------------------- Iteration      1(   4)  ---------------------------------------


     EDDAV:  cpu time   72.7432: real time   72.9629
       DOS:  cpu time    0.0030: real time    0.0190
    --------------------------------------------
      LOOP:  cpu time   72.7462: real time   72.9819

 eigenvalue-minimisations  : 10272
 total energy-change (2. order) :-0.5712673E+02  (-0.5493997E+02)
 number of electron     778.0000000 magnetization     206.0000000
 augmentation part      778.0000000 magnetization     206.0000000

 Free energy of the ion-electron system (eV)
  ---------------------------------------------------
  alpha Z        PSCENC =      1751.32544349
  Ewald energy   TEWEN  =    237195.63506614
  -Hartree energ DENC   =   -307250.97315516
  -exchange      EXHF   =         0.00000000
  -V(xc)+E(xc)   XCENC  =      1334.74022019
  PAW double counting   =     62871.68470781   -64853.88848185
  entropy T*S    EENTRO =         0.00068757
  eigenvalues    EBANDS =      -545.94225064
  atomic energy  EATOM  =     68993.34587830
  Solvation  Ediel_sol  =         0.00000000
  ---------------------------------------------------
  free energy    TOTEN  =      -504.07188414 eV

  energy without entropy =     -504.07257172  energy(sigma->0) =     -504.07211334


--------------------------------------------------------------------------------------------------------




--------------------------------------- Iteration      1(   5)  ---------------------------------------


     EDDAV:  cpu time   75.9010: real time   76.2083
       DOS:  cpu time    0.0030: real time    0.0200
    CHARGE:  cpu time    4.5454: real time    4.5611
    MIXING:  cpu time    0.0122: real time    0.0123
    --------------------------------------------
      LOOP:  cpu time   80.4617: real time   80.8016

 eigenvalue-minimisations  : 10884
 total energy-change (2. order) :-0.1112076E+01  (-0.1110062E+01)
 number of electron     778.0000031 magnetization     194.1431763
 augmentation part      338.0920874 magnetization     164.4668183

 Broyden mixing:
  rms(total) = 0.10671E+02    rms(broyden)= 0.10671E+02
  rms(prec ) = 0.11042E+02
  weight for this iteration     100.00

 Free energy of the ion-electron system (eV)
  ---------------------------------------------------
  alpha Z        PSCENC =      1751.32544349
  Ewald energy   TEWEN  =    237195.63506614
  -Hartree energ DENC   =   -307250.97315516
  -exchange      EXHF   =         0.00000000
  -V(xc)+E(xc)   XCENC  =      1334.74022019
  PAW double counting   =     62871.68470781   -64853.88848185
  entropy T*S    EENTRO =         0.00066304
  eigenvalues    EBANDS =      -547.05430217
  atomic energy  EATOM  =     68993.34587830
  Solvation  Ediel_sol  =         0.00000000
  ---------------------------------------------------
  free energy    TOTEN  =      -505.18396020 eV

  energy without entropy =     -505.18462324  energy(sigma->0) =     -505.18418122


--------------------------------------------------------------------------------------------------------




--------------------------------------- Iteration      1(   6)  ---------------------------------------


    POTLOK:  cpu time    0.4557: real time    0.4806
    SETDIJ:  cpu time    0.0357: real time    0.0359
    EDDIAG:  cpu time   12.3412: real time   12.3748
  RMM-DIIS:  cpu time   41.9687: real time   42.0982
    ORTHCH:  cpu time    1.3434: real time    1.3494
       DOS:  cpu time    0.0027: real time    0.0027
    CHARGE:  cpu time    4.4548: real time    4.4669
    MIXING:  cpu time    0.0135: real time    0.0141
    --------------------------------------------
      LOOP:  cpu time   60.6155: real time   60.8224

 eigenvalue-minimisations  :  9413
 total energy-change (2. order) :-0.2527897E+03  (-0.9964595E+02)
 number of electron     778.0000040 magnetization     190.8422560
 augmentation part      408.7307076 magnetization     162.5539560

 Broyden mixing:
  rms(total) = 0.20855E+02    rms(broyden)= 0.20855E+02
  rms(prec ) = 0.25988E+02
  weight for this iteration     100.00

 eigenvalues of (default mixing * dielectric matrix)
  average eigenvalue GAMMA=   0.1753
  0.1753

 Free energy of the ion-electron system (eV)
  ---------------------------------------------------
  alpha Z        PSCENC =      1751.32544349
  Ewald energy   TEWEN  =    237195.63506614
  -Hartree energ DENC   =   -305964.64459458
  -exchange      EXHF   =         0.00000000
  -V(xc)+E(xc)   XCENC  =      1289.09575102
  PAW double counting   =     67983.12697395   -69735.42431819
  entropy T*S    EENTRO =        -0.00022509
  eigenvalues    EBANDS =     -2270.43361461
  atomic energy  EATOM  =     68993.34587830
  Solvation  Ediel_sol  =         0.00000000
  ---------------------------------------------------
  free energy    TOTEN  =      -757.97363957 eV

  energy without entropy =     -757.97341448  energy(sigma->0) =     -757.97356454


--------------------------------------------------------------------------------------------------------




--------------------------------------- Iteration      1(   7)  ---------------------------------------


    POTLOK:  cpu time    0.4641: real time    0.7905
    SETDIJ:  cpu time    0.0359: real time    0.0360
    EDDIAG:  cpu time   12.6897: real time   14.3622
  RMM-DIIS:  cpu time   41.2981: real time   41.4189
    ORTHCH:  cpu time    1.3286: real time    1.3495
       DOS:  cpu time    0.0025: real time    0.0025
    CHARGE:  cpu time    4.4472: real time    4.4739
    MIXING:  cpu time    0.0128: real time    0.0131
    --------------------------------------------
      LOOP:  cpu time   60.2789: real time   62.4465

 eigenvalue-minimisations  :  9235
 total energy-change (2. order) : 0.2406811E+03  (-0.1715648E+02)
 number of electron     778.0000031 magnetization     187.9020060
 augmentation part      372.1626450 magnetization     153.0222713

 Broyden mixing:
  rms(total) = 0.14979E+02    rms(broyden)= 0.14979E+02
  rms(prec ) = 0.18177E+02
  weight for this iteration     100.00

 eigenvalues of (default mixing * dielectric matrix)
  average eigenvalue GAMMA=   0.2159
  0.2159  0.2159

 Free energy of the ion-electron system (eV)
  ---------------------------------------------------
  alpha Z        PSCENC =      1751.32544349
  Ewald energy   TEWEN  =    237195.63506614
  -Hartree energ DENC   =   -306572.92607390
  -exchange      EXHF   =         0.00000000
  -V(xc)+E(xc)   XCENC  =      1305.60798524
  PAW double counting   =     69028.61674164   -70945.32038381
  entropy T*S    EENTRO =        -0.00273363
  eigenvalues    EBANDS =     -1273.57441482
  atomic energy  EATOM  =     68993.34587830
  Solvation  Ediel_sol  =         0.00000000
  ---------------------------------------------------
  free energy    TOTEN  =      -517.29249135 eV

  energy without entropy =     -517.28975772  energy(sigma->0) =     -517.29158014


--------------------------------------------------------------------------------------------------------




--------------------------------------- Iteration      1(   8)  ---------------------------------------


    POTLOK:  cpu time    0.4537: real time    0.4569
    SETDIJ:  cpu time    0.0339: real time    0.0384
    EDDIAG:  cpu time   12.3485: real time   12.3830
  RMM-DIIS:  cpu time   41.3887: real time   41.5049
    ORTHCH:  cpu time    1.3850: real time    1.3933
       DOS:  cpu time    0.0025: real time    0.0025
    CHARGE:  cpu time    4.4539: real time    4.4659
    MIXING:  cpu time    0.0136: real time    0.0143
    --------------------------------------------
      LOOP:  cpu time   60.0799: real time   60.2592

 eigenvalue-minimisations  :  9263
 total energy-change (2. order) : 0.8621390E+02  (-0.1332425E+02)
 number of electron     778.0000041 magnetization     180.8580714
 augmentation part      380.6609938 magnetization     142.5021891

 Broyden mixing:
  rms(total) = 0.11866E+02    rms(broyden)= 0.11866E+02
  rms(prec ) = 0.13885E+02
  weight for this iteration     100.00

 eigenvalues of (default mixing * dielectric matrix)
  average eigenvalue GAMMA=   0.3163
  0.5740  0.2828  0.0922

 Free energy of the ion-electron system (eV)
  ---------------------------------------------------
  alpha Z        PSCENC =      1751.32544349
  Ewald energy   TEWEN  =    237195.63506614
  -Hartree energ DENC   =   -306433.89691754
  -exchange      EXHF   =         0.00000000
  -V(xc)+E(xc)   XCENC  =      1310.21250404
  PAW double counting   =     69739.75087940   -71678.98666800
  entropy T*S    EENTRO =        -0.00112184
  eigenvalues    EBANDS =     -1308.46365058
  atomic energy  EATOM  =     68993.34587830
  Solvation  Ediel_sol  =         0.00000000
  ---------------------------------------------------
  free energy    TOTEN  =      -431.07858659 eV

  energy without entropy =     -431.07746476  energy(sigma->0) =     -431.07821265


--------------------------------------------------------------------------------------------------------




--------------------------------------- Iteration      1(   9)  ---------------------------------------


    POTLOK:  cpu time    0.4641: real time    0.4993
    SETDIJ:  cpu time    0.0360: real time    0.0361
    EDDIAG:  cpu time   12.3375: real time   12.3720
  RMM-DIIS:  cpu time   41.3234: real time   41.4873
    ORTHCH:  cpu time    1.3468: real time    1.3647
       DOS:  cpu time    0.0026: real time    0.0026
    CHARGE:  cpu time    4.3512: real time    4.3633
    MIXING:  cpu time    0.0135: real time    0.0137
    --------------------------------------------
      LOOP:  cpu time   59.8749: real time   60.1390

 eigenvalue-minimisations  :  9225
 total energy-change (2. order) :-0.1003270E+03  (-0.1729155E+02)
 number of electron     778.0000029 magnetization     174.7178818
 augmentation part      380.6335170 magnetization     141.3535906

 Broyden mixing:
  rms(total) = 0.16596E+02    rms(broyden)= 0.16596E+02
  rms(prec ) = 0.19061E+02
  weight for this iteration     100.00

 eigenvalues of (default mixing * dielectric matrix)
  average eigenvalue GAMMA=   0.3448
  0.8485  0.3098  0.1105  0.1105

 Free energy of the ion-electron system (eV)
  ---------------------------------------------------
  alpha Z        PSCENC =      1751.32544349
  Ewald energy   TEWEN  =    237195.63506614
  -Hartree energ DENC   =   -306180.88482082
  -exchange      EXHF   =         0.00000000
  -V(xc)+E(xc)   XCENC  =      1327.62734961
  PAW double counting   =     71375.04873119   -73378.29430120
  entropy T*S    EENTRO =         0.00855504
  eigenvalues    EBANDS =     -1615.21745880
  atomic energy  EATOM  =     68993.34587830
  Solvation  Ediel_sol  =         0.00000000
  ---------------------------------------------------
  free energy    TOTEN  =      -531.40555705 eV

  energy without entropy =     -531.41411208  energy(sigma->0) =     -531.40840873


--------------------------------------------------------------------------------------------------------




--------------------------------------- Iteration      1(  10)  ---------------------------------------


    POTLOK:  cpu time    0.4551: real time    0.4666
    SETDIJ:  cpu time    0.0360: real time    0.0361
    EDDIAG:  cpu time   12.3453: real time   12.3800
  RMM-DIIS:  cpu time   41.3212: real time   41.4327
    ORTHCH:  cpu time    1.3407: real time    1.6169
       DOS:  cpu time    0.0025: real time    0.0025
    CHARGE:  cpu time    4.3950: real time    4.4098
    MIXING:  cpu time    0.0136: real time    0.0140
    --------------------------------------------
      LOOP:  cpu time   59.9094: real time   60.3586

 eigenvalue-minimisations  :  9247
 total energy-change (2. order) : 0.1136391E+03  (-0.1242796E+02)
 number of electron     778.0000036 magnetization     169.2468212
 augmentation part      381.5464121 magnetization     126.1214892

 Broyden mixing:
  rms(total) = 0.10536E+02    rms(broyden)= 0.10536E+02
  rms(prec ) = 0.13484E+02
  weight for this iteration     100.00

 eigenvalues of (default mixing * dielectric matrix)
  average eigenvalue GAMMA=   0.3513
  0.9465  0.4266  0.1466  0.1466  0.0900

 Free energy of the ion-electron system (eV)
  ---------------------------------------------------
  alpha Z        PSCENC =      1751.32544349
  Ewald energy   TEWEN  =    237195.63506614
  -Hartree energ DENC   =   -306588.57080761
  -exchange      EXHF   =         0.00000000
  -V(xc)+E(xc)   XCENC  =      1336.96852144
  PAW double counting   =     72689.71047401   -74754.01373642
  entropy T*S    EENTRO =        -0.00293633
  eigenvalues    EBANDS =     -1042.16431214
  atomic energy  EATOM  =     68993.34587830
  Solvation  Ediel_sol  =         0.00000000
  ---------------------------------------------------
  free energy    TOTEN  =      -417.76640911 eV

  energy without entropy =     -417.76347279  energy(sigma->0) =     -417.76543034


--------------------------------------------------------------------------------------------------------




--------------------------------------- Iteration      1(  11)  ---------------------------------------


    POTLOK:  cpu time    0.4538: real time    0.4568
    SETDIJ:  cpu time    0.0362: real time    0.0363
    EDDIAG:  cpu time   12.5268: real time   12.5621
  RMM-DIIS:  cpu time   41.3162: real time   41.4473
    ORTHCH:  cpu time    1.3327: real time    1.3380
       DOS:  cpu time    0.0027: real time    0.0027
    CHARGE:  cpu time    4.4227: real time    4.4349
    MIXING:  cpu time    0.0156: real time    0.0158
    --------------------------------------------
      LOOP:  cpu time   60.1068: real time   60.2940

 eigenvalue-minimisations  :  9263
 total energy-change (2. order) : 0.6026466E+02  (-0.8779942E+01)
 number of electron     778.0000034 magnetization     165.1084050
 augmentation part      373.5617176 magnetization     122.8300668

 Broyden mixing:
  rms(total) = 0.95498E+01    rms(broyden)= 0.95497E+01
  rms(prec ) = 0.10377E+02
  weight for this iteration     100.00

 eigenvalues of (default mixing * dielectric matrix)
  average eigenvalue GAMMA=   0.3540
  1.0703  0.4709  0.1675  0.1675  0.1541  0.0933

 Free energy of the ion-electron system (eV)
  ---------------------------------------------------
  alpha Z        PSCENC =      1751.32544349
  Ewald energy   TEWEN  =    237195.63506614
  -Hartree energ DENC   =   -306802.15802202
  -exchange      EXHF   =         0.00000000
  -V(xc)+E(xc)   XCENC  =      1337.04209677
  PAW double counting   =     73583.89557426   -75684.01677634
  entropy T*S    EENTRO =         0.00052782
  eigenvalues    EBANDS =      -732.57153864
  atomic energy  EATOM  =     68993.34587830
  Solvation  Ediel_sol  =         0.00000000
  ---------------------------------------------------
  free energy    TOTEN  =      -357.50175022 eV

  energy without entropy =     -357.50227804  energy(sigma->0) =     -357.50192616


--------------------------------------------------------------------------------------------------------




--------------------------------------- Iteration      1(  12)  ---------------------------------------


    POTLOK:  cpu time    0.4545: real time    0.4574
    SETDIJ:  cpu time    0.0359: real time    0.0360
    EDDIAG:  cpu time   12.3396: real time   12.3928
  RMM-DIIS:  cpu time   41.4318: real time   41.5494
    ORTHCH:  cpu time    1.3469: real time    1.3524
       DOS:  cpu time    0.0027: real time    0.0027
    CHARGE:  cpu time    4.3884: real time    4.4004
    MIXING:  cpu time    0.0147: real time    0.0149
    --------------------------------------------
      LOOP:  cpu time   60.0145: real time   60.2061

 eigenvalue-minimisations  :  9264
 total energy-change (2. order) :-0.1035409E+02  (-0.5411438E+01)
 number of electron     778.0000033 magnetization     160.6383563
 augmentation part      372.4918174 magnetization     122.1088114

 Broyden mixing:
  rms(total) = 0.11324E+02    rms(broyden)= 0.11324E+02
  rms(prec ) = 0.12754E+02
  weight for this iteration     100.00

 eigenvalues of (default mixing * dielectric matrix)
  average eigenvalue GAMMA=   0.3535
  1.1939  0.4233  0.3569  0.1456  0.1456  0.0963  0.1133

 Free energy of the ion-electron system (eV)
  ---------------------------------------------------
  alpha Z        PSCENC =      1751.32544349
  Ewald energy   TEWEN  =    237195.63506614
  -Hartree energ DENC   =   -306783.94989926
  -exchange      EXHF   =         0.00000000
  -V(xc)+E(xc)   XCENC  =      1333.13897878
  PAW double counting   =     74098.30866453   -76211.69470277
  entropy T*S    EENTRO =         0.00619931
  eigenvalues    EBANDS =      -743.97146835
  atomic energy  EATOM  =     68993.34587830
  Solvation  Ediel_sol  =         0.00000000
  ---------------------------------------------------
  free energy    TOTEN  =      -367.85583983 eV

  energy without entropy =     -367.86203914  energy(sigma->0) =     -367.85790627


--------------------------------------------------------------------------------------------------------




--------------------------------------- Iteration      1(  13)  ---------------------------------------


    POTLOK:  cpu time    0.4528: real time    0.4696
    SETDIJ:  cpu time    0.0361: real time    0.0362
    EDDIAG:  cpu time   12.3589: real time   12.3949
  RMM-DIIS:  cpu time   41.3577: real time   41.5168
    ORTHCH:  cpu time    1.3471: real time    1.3533
       DOS:  cpu time    0.0027: real time    0.0027
    CHARGE:  cpu time    4.4288: real time    4.4409
    MIXING:  cpu time    0.0148: real time    0.0150
    --------------------------------------------
      LOOP:  cpu time   59.9989: real time   60.2293

 eigenvalue-minimisations  :  9262
 total energy-change (2. order) : 0.2866951E+01  (-0.3805699E+01)
 number of electron     778.0000030 magnetization     156.1878440
 augmentation part      372.6611458 magnetization     117.3929600

 Broyden mixing:
  rms(total) = 0.98350E+01    rms(broyden)= 0.98349E+01
  rms(prec ) = 0.10959E+02
  weight for this iteration     100.00

 eigenvalues of (default mixing * dielectric matrix)
  average eigenvalue GAMMA=   0.3529
  1.2807  0.4649  0.4649  0.1487  0.1487  0.1326  0.0869  0.0961

 Free energy of the ion-electron system (eV)
  ---------------------------------------------------
  alpha Z        PSCENC =      1751.32544349
  Ewald energy   TEWEN  =    237195.63506614
  -Hartree energ DENC   =   -306893.35120700
  -exchange      EXHF   =         0.00000000
  -V(xc)+E(xc)   XCENC  =      1328.93087805
  PAW double counting   =     74625.60610485   -76749.08018935
  entropy T*S    EENTRO =         0.00524486
  eigenvalues    EBANDS =      -617.40610788
  atomic energy  EATOM  =     68993.34587830
  Solvation  Ediel_sol  =         0.00000000
  ---------------------------------------------------
  free energy    TOTEN  =      -364.98888853 eV

  energy without entropy =     -364.99413339  energy(sigma->0) =     -364.99063682


--------------------------------------------------------------------------------------------------------




--------------------------------------- Iteration      1(  14)  ---------------------------------------


    POTLOK:  cpu time    0.4536: real time    0.4559
    SETDIJ:  cpu time    0.0363: real time    0.0364
    EDDIAG:  cpu time   12.4019: real time   12.4365
  RMM-DIIS:  cpu time   41.4325: real time   41.5440
    ORTHCH:  cpu time    1.3386: real time    1.3447
       DOS:  cpu time    0.0026: real time    0.0026
    CHARGE:  cpu time    4.4161: real time    4.4285
    MIXING:  cpu time    0.0154: real time    0.0155
    --------------------------------------------
      LOOP:  cpu time   60.0970: real time   60.2640

 eigenvalue-minimisations  :  9258
 total energy-change (2. order) : 0.2563979E+02  (-0.2763460E+01)
 number of electron     778.0000034 magnetization     153.7490079
 augmentation part      371.3252959 magnetization     113.2469584

 Broyden mixing:
  rms(total) = 0.64077E+01    rms(broyden)= 0.64076E+01
  rms(prec ) = 0.69228E+01
  weight for this iteration     100.00

 eigenvalues of (default mixing * dielectric matrix)
  average eigenvalue GAMMA=   0.3379
  1.2906  0.5012  0.5012  0.1636  0.1636  0.1217  0.1217  0.0888  0.0888

 Free energy of the ion-electron system (eV)
  ---------------------------------------------------
  alpha Z        PSCENC =      1751.32544349
  Ewald energy   TEWEN  =    237195.63506614
  -Hartree energ DENC   =   -306957.15862122
  -exchange      EXHF   =         0.00000000
  -V(xc)+E(xc)   XCENC  =      1327.66384882
  PAW double counting   =     75119.77969322   -77252.57758150
  entropy T*S    EENTRO =        -0.00688372
  eigenvalues    EBANDS =      -517.35593791
  atomic energy  EATOM  =     68993.34587830
  Solvation  Ediel_sol  =         0.00000000
  ---------------------------------------------------
  free energy    TOTEN  =      -339.34909438 eV

  energy without entropy =     -339.34221066  energy(sigma->0) =     -339.34679981


--------------------------------------------------------------------------------------------------------




--------------------------------------- Iteration      1(  15)  ---------------------------------------


    POTLOK:  cpu time    0.4399: real time    0.4662
    SETDIJ:  cpu time    0.0359: real time    0.0361
    EDDIAG:  cpu time   12.5269: real time   12.5737
  RMM-DIIS:  cpu time   41.3770: real time   41.5000
    ORTHCH:  cpu time    1.3349: real time    1.3405
       DOS:  cpu time    0.0026: real time    0.0026
    CHARGE:  cpu time    4.4135: real time    4.4254
    MIXING:  cpu time    0.0154: real time    0.0159
    --------------------------------------------
      LOOP:  cpu time   60.1461: real time   60.3605

 eigenvalue-minimisations  :  9261
 total energy-change (2. order) : 0.4233016E+01  (-0.1158694E+01)
 number of electron     778.0000035 magnetization     150.9462231
 augmentation part      371.0508642 magnetization     111.7707261

 Broyden mixing:
  rms(total) = 0.51139E+01    rms(broyden)= 0.51138E+01
  rms(prec ) = 0.54946E+01
  weight for this iteration     100.00

 eigenvalues of (default mixing * dielectric matrix)
  average eigenvalue GAMMA=   0.3428
  1.3180  0.5744  0.5744  0.2082  0.2082  0.1326  0.1326  0.0996  0.0996  0.0803

 Free energy of the ion-electron system (eV)
  ---------------------------------------------------
  alpha Z        PSCENC =      1751.32544349
[...]
   -.386E+02 0.296E+02 -.270E+04   0.391E+02 -.288E+02 0.270E+04   -.408E+00 -.745E+00 -.161E+00   -.195E-01 0.876E-02 -.179E-01
   -.685E+02 -.276E+02 -.283E+04   0.676E+02 0.284E+02 0.283E+04   0.860E+00 -.708E+00 0.247E+01   0.178E-02 -.257E-02 0.284E-01
   0.102E+03 0.539E+01 -.269E+04   -.101E+03 -.667E+01 0.269E+04   -.103E+01 0.133E+01 0.238E+01   -.132E-01 0.354E-02 -.123E-01
   0.814E+01 -.704E+00 -.291E+04   -.809E+01 -.300E+00 0.290E+04   -.612E-01 0.956E+00 0.274E+01   0.216E-02 0.203E-01 0.117E-01
   0.524E+02 0.921E+01 -.297E+04   -.527E+02 -.869E+01 0.296E+04   0.287E+00 -.508E+00 0.333E+01   0.192E-01 -.131E-01 0.108E-01
   0.154E+02 0.613E+02 -.272E+04   -.159E+02 -.608E+02 0.272E+04   0.609E+00 -.600E+00 0.556E+00   -.460E-01 -.171E-01 -.543E-01
   0.538E+02 0.125E+02 -.288E+04   -.528E+02 -.121E+02 0.287E+04   -.104E+01 -.417E+00 0.271E+01   0.114E-01 -.758E-02 0.319E-01
   -.929E+02 -.201E+02 -.284E+04   0.924E+02 0.194E+02 0.283E+04   0.471E+00 0.684E+00 0.173E+01   0.351E-03 -.837E-02 -.279E-01
   -.593E+02 -.282E+02 -.278E+04   0.595E+02 0.282E+02 0.278E+04   -.261E+00 -.863E-01 0.182E+01   -.143E-01 0.189E-01 0.406E-02
   -.434E+02 -.706E+02 -.286E+04   0.432E+02 0.700E+02 0.286E+04   0.159E+00 0.612E+00 0.207E+01   0.173E-01 -.128E-01 -.511E-02
   0.107E+03 0.548E+02 -.275E+04   -.106E+03 -.549E+02 0.275E+04   -.615E+00 -.826E-02 0.243E+01   0.343E-01 0.205E-01 0.234E-01
   0.862E+02 0.396E+02 -.273E+04   -.857E+02 -.386E+02 0.273E+04   -.534E+00 -.989E+00 0.211E+01   -.103E-01 -.987E-02 0.716E-02
   -.309E+02 -.313E+02 -.269E+04   0.305E+02 0.308E+02 0.269E+04   0.427E+00 0.513E+00 0.170E+01   -.945E-02 0.531E-02 0.548E-02
   -.356E+02 -.222E+02 -.276E+04   0.345E+02 0.226E+02 0.276E+04   0.106E+01 -.311E+00 0.217E+01   0.136E-01 -.321E-01 -.279E-01
   0.445E+02 -.574E+02 -.133E+04   -.433E+02 0.564E+02 0.132E+04   -.115E+01 0.102E+01 0.195E+01   0.120E-01 -.398E-01 -.428E-01
   -.111E+03 -.808E+02 -.147E+04   0.109E+03 0.804E+02 0.147E+04   0.110E+01 0.468E+00 0.229E+01   0.333E-01 -.385E-01 -.289E-01
   0.591E+02 0.541E+02 0.278E+04   -.584E+02 -.538E+02 -.278E+04   -.638E+00 -.428E+00 -.195E+01   0.227E-01 -.132E-02 0.673E-02
   -.118E+03 -.144E+03 0.197E+04   0.118E+03 0.144E+03 -.197E+04   -.147E+00 -.387E+00 0.138E+01   0.182E-01 0.109E-01 0.241E-02
   0.780E+02 0.699E+02 -.155E+04   -.773E+02 -.694E+02 0.154E+04   -.789E+00 -.506E+00 0.171E+01   -.107E-01 -.398E-01 -.345E-01
   0.813E+01 0.189E+03 0.297E+04   -.778E+01 -.187E+03 -.296E+04   -.219E+00 -.164E+01 -.199E+01   -.285E-01 -.554E-01 0.595E-02
   0.159E+03 0.247E+02 0.147E+04   -.159E+03 -.256E+02 -.147E+04   -.755E+00 0.938E+00 -.376E+00   -.278E-01 -.200E-01 -.501E-01
   -.182E+02 -.385E+02 -.276E+04   0.183E+02 0.380E+02 0.276E+04   -.481E-01 0.523E+00 0.183E+01   0.152E-01 -.719E-02 0.155E-01
   0.109E+03 0.909E+02 -.231E+03   -.109E+03 -.906E+02 0.230E+03   0.818E-01 -.287E+00 0.129E+00   -.483E-02 -.698E-02 -.459E-01
   -.608E+01 0.425E+02 -.293E+04   0.603E+01 -.422E+02 0.292E+04   0.190E-01 -.393E+00 0.272E+01   0.449E-02 0.198E-01 -.576E-02
   -.457E+02 -.484E+02 0.332E+03   0.454E+02 0.472E+02 -.332E+03   0.190E+00 0.124E+01 -.565E-01   0.165E-01 0.206E-01 -.213E-01
   -.871E+02 -.513E+02 -.144E+04   0.876E+02 0.507E+02 0.144E+04   -.411E+00 0.614E+00 0.197E+01   -.480E-02 0.550E-01 -.112E-01
   0.124E+02 0.615E+01 -.133E+04   -.131E+02 -.559E+01 0.133E+04   0.728E+00 -.524E+00 0.193E+01   -.220E-02 0.137E-01 -.468E-01
   -.642E+02 -.992E+02 -.253E+02   0.639E+02 0.987E+02 0.251E+02   0.374E+00 0.510E+00 0.204E+00   0.306E-01 -.108E-01 -.497E-01
   -.228E+02 -.282E+02 0.128E+03   0.234E+02 0.283E+02 -.128E+03   -.487E+00 -.634E-01 0.816E+00   -.159E-01 0.235E-01 -.401E-01
   -.667E+02 -.123E+03 -.120E+04   0.667E+02 0.122E+03 0.120E+04   0.536E-01 0.836E+00 0.736E+00   0.146E-02 0.374E-01 -.355E-01
   -.249E+01 0.110E+03 0.236E+04   0.373E+01 -.109E+03 -.236E+04   -.113E+01 -.350E+00 -.153E+01   0.367E-01 0.178E-01 -.608E-02
   0.788E+01 0.137E+03 0.248E+04   -.903E+01 -.136E+03 -.248E+04   0.106E+01 -.760E+00 -.244E+01   0.243E-01 0.655E-02 -.636E-02
   -.747E+01 0.870E+02 0.223E+04   0.730E+01 -.854E+02 -.223E+04   0.673E-01 -.138E+01 -.217E+01   0.416E-01 0.397E-01 -.984E-02
   0.125E+03 0.710E+02 0.107E+04   -.125E+03 -.710E+02 -.107E+04   -.286E+00 0.117E-01 0.341E-01   0.452E-02 -.122E-01 -.123E-01
   0.495E+02 -.606E+02 0.143E+04   -.491E+02 0.606E+02 -.142E+04   -.524E+00 0.240E-01 -.342E+00   -.218E-02 -.129E-01 -.310E-01
   -.703E+02 0.123E+02 -.140E+04   0.702E+02 -.121E+02 0.140E+04   0.171E+00 -.291E+00 0.325E+00   0.136E-01 0.215E-01 -.768E-02
   -.256E+03 -.128E+03 0.278E+04   0.255E+03 0.126E+03 -.277E+04   0.150E+01 0.154E+01 -.401E+01   -.874E-02 -.155E-01 -.280E-02
   -.159E+02 0.100E+03 0.131E+04   0.156E+02 -.100E+03 -.131E+04   0.438E+00 -.260E+00 -.669E+00   -.342E-01 -.247E-01 -.169E-01
   -.971E+02 -.861E+02 0.137E+03   0.970E+02 0.862E+02 -.137E+03   0.319E-01 -.181E+00 -.351E+00   0.181E-01 0.318E-01 -.290E-01
   0.164E+02 -.130E+03 -.147E+04   -.167E+02 0.130E+03 0.147E+04   0.184E+00 0.496E+00 0.301E+00   0.287E-01 -.290E-01 -.115E-01
   0.827E+02 0.131E+03 -.141E+04   -.827E+02 -.130E+03 0.141E+04   -.448E-01 -.604E+00 -.684E+00   0.752E-02 0.288E-01 -.187E-01
   -.796E+02 -.138E+03 0.273E+04   0.778E+02 0.137E+03 -.272E+04   0.156E+01 0.163E+01 -.327E+01   0.126E-03 -.413E-01 -.184E-02
   0.168E+02 -.253E+02 0.276E+04   -.173E+02 0.253E+02 -.276E+04   0.403E+00 -.109E+00 -.327E+01   -.134E-01 0.124E-01 0.373E-02
   0.227E+03 -.396E+02 0.247E+04   -.226E+03 0.393E+02 -.247E+04   -.130E+01 0.257E+00 -.201E+01   0.272E-01 0.246E-02 0.229E-02
   -.186E+03 -.302E+02 0.146E+04   0.186E+03 0.303E+02 -.146E+04   0.260E+00 -.264E-01 0.238E+00   -.695E-02 0.947E-02 0.305E-02
   -.194E+03 0.579E+02 0.721E+01   0.194E+03 -.576E+02 -.687E+01   0.419E+00 -.363E+00 -.429E+00   0.150E-04 0.309E-01 -.319E-02
   -.188E+03 -.409E+02 0.139E+04   0.188E+03 0.414E+02 -.139E+04   -.671E-01 -.425E+00 0.493E+00   -.867E-02 0.163E-01 -.803E-02
   0.266E+02 -.673E+02 0.135E+04   -.266E+02 0.669E+02 -.135E+04   -.582E-01 0.511E+00 -.293E-01   -.178E-01 -.142E-01 -.188E-01
   0.191E+03 0.427E+02 -.146E+04   -.191E+03 -.428E+02 0.146E+04   -.639E+00 0.103E+00 -.229E-01   0.138E-01 -.824E-02 -.160E-01
   0.180E+03 0.543E+01 0.274E+04   -.178E+03 -.554E+01 -.273E+04   -.188E+01 0.955E-01 -.324E+01   -.156E-01 0.326E-02 0.102E-02
   -.975E+02 0.351E+02 0.159E+04   0.977E+02 -.348E+02 -.159E+04   -.176E+00 -.422E+00 0.307E+00   -.155E-01 0.134E-01 -.145E-01
   0.115E+03 -.601E+02 -.102E+03   -.115E+03 0.600E+02 0.102E+03   -.403E+00 0.141E+00 -.140E+00   -.467E-02 -.223E-01 -.412E-01
   0.134E+03 0.314E+02 0.297E+04   -.134E+03 -.309E+02 -.297E+04   -.152E+00 -.318E+00 -.149E+01   0.137E-01 -.111E-01 0.764E-02
   -.529E+02 -.162E+03 0.172E+04   0.529E+02 0.162E+03 -.172E+04   -.611E-01 0.340E+00 0.160E+00   0.146E-01 -.288E-01 -.833E-02
   0.193E+03 -.108E+02 0.134E+04   -.193E+03 0.109E+02 -.134E+04   0.392E+00 -.377E-01 0.502E+00   0.212E-04 0.282E-01 -.380E-01
   -.131E+03 0.264E+02 0.197E+03   0.130E+03 -.264E+02 -.197E+03   0.500E+00 -.594E-01 -.334E+00   0.630E-02 0.865E-02 -.106E-01
   -.187E+00 0.570E+02 -.130E+04   0.294E+00 -.573E+02 0.130E+04   -.564E-01 0.303E+00 0.690E+00   -.270E-01 -.127E-01 -.384E-01
   -.130E+03 0.133E+02 -.161E+04   0.130E+03 -.130E+02 0.161E+04   0.301E+00 -.283E+00 0.522E+00   0.303E-01 0.483E-02 -.178E-01
   0.827E+02 0.199E+03 0.290E+04   -.827E+02 -.199E+03 -.289E+04   -.292E-01 -.684E-01 -.122E+01   0.763E-02 -.961E-02 0.850E-02
   -.194E+03 -.247E+02 0.312E+04   0.192E+03 0.252E+02 -.312E+04   0.216E+01 -.424E+00 -.406E+01   -.228E-01 -.143E-02 0.559E-02
   -.499E+01 -.412E+02 0.207E+03   0.526E+01 0.412E+02 -.206E+03   -.374E+00 -.110E+00 -.319E+00   0.140E-01 0.198E-01 -.397E-01
   -.827E+02 -.803E+01 -.768E+02   0.825E+02 0.760E+01 0.769E+02   0.299E+00 0.436E+00 -.652E-01   -.303E-01 -.230E-01 -.541E-01
   0.314E+02 0.202E+03 0.110E+04   -.317E+02 -.202E+03 -.111E+04   0.276E+00 -.415E+00 0.627E-01   0.964E-02 0.373E-02 -.288E-01
   0.146E+03 0.240E+02 -.218E+03   -.146E+03 -.246E+02 0.218E+03   0.214E+00 0.701E+00 -.550E+00   -.394E-01 -.379E-01 -.433E-01
   -.135E+02 -.941E+02 0.170E+03   0.139E+02 0.941E+02 -.170E+03   -.479E+00 0.809E-02 -.331E+00   0.312E-01 -.205E-01 -.318E-01
   -.170E+03 -.109E+03 0.165E+04   0.170E+03 0.109E+03 -.165E+04   0.337E-01 -.195E+00 -.323E+00   -.284E-01 0.742E-02 -.110E-01
   -.694E+02 0.714E+01 0.148E+04   0.698E+02 -.705E+01 -.148E+04   -.248E+00 -.120E+00 -.676E+00   -.953E-02 -.409E-01 -.242E-01
   -.272E+03 -.156E+03 0.302E+04   0.270E+03 0.155E+03 -.302E+04   0.225E+01 0.136E+01 -.366E+01   -.216E-01 0.176E-01 -.289E-02
   0.296E+03 -.679E+02 0.296E+04   -.294E+03 0.672E+02 -.296E+04   -.219E+01 0.765E+00 -.281E+01   0.363E-02 0.320E-01 0.341E-02
   0.877E+02 0.276E+02 0.151E+04   -.878E+02 -.279E+02 -.151E+04   0.118E+00 0.189E+00 0.496E-02   -.131E-01 0.153E-01 -.365E-01
   0.140E+03 0.129E+02 0.120E+04   -.140E+03 -.128E+02 -.120E+04   0.108E+00 -.346E-01 -.315E+00   0.136E-01 0.120E-02 -.152E-01
   0.895E+02 0.274E+02 -.156E+04   -.893E+02 -.274E+02 0.156E+04   -.187E+00 -.474E-02 -.296E+00   -.377E-01 -.750E-03 -.152E-01
   -.676E+00 -.959E+01 0.308E+04   0.705E+00 0.101E+02 -.307E+04   -.759E-01 -.422E+00 -.173E+01   -.412E-01 -.142E-01 0.617E-02
   0.683E+02 0.177E+03 -.538E+02   -.687E+02 -.177E+03 0.547E+02   0.402E+00 0.223E+00 -.880E+00   -.368E-01 -.224E-01 -.368E-01
   0.693E+01 0.955E+02 -.269E+02   -.716E+01 -.949E+02 0.270E+02   0.267E+00 -.689E+00 -.204E+00   0.159E-01 0.129E-01 -.333E-01
   0.231E+03 0.498E+02 -.244E+03   -.231E+03 -.495E+02 0.244E+03   0.294E+00 -.337E+00 -.558E+00   -.131E-01 0.633E-02 -.515E-01
   -.618E+02 -.117E+03 -.831E+01   0.619E+02 0.117E+03 0.815E+01   -.146E+00 0.299E+00 0.120E+00   0.372E-01 -.192E-01 -.304E-01
   -.293E+01 0.238E+00 -.331E+03   0.289E+01 -.587E-01 0.333E+03   0.313E-01 -.200E+00 -.180E+01   -.238E-02 -.102E-02 -.111E-03
 -----------------------------------------------------------------------------------------------
   -.279E+01 -.785E+00 -.379E+01   -.358E-12 0.665E-12 0.144E-10   0.277E+01 0.912E+00 0.507E+01   -.648E-02 -.725E-01 -.131E+01
 
 
 POSITION                                       TOTAL-FORCE (eV/Angst)
 -----------------------------------------------------------------------------------
     13.79120      8.54531      6.63843        -0.008203      0.004702     -0.004817
      5.28522      8.55560      6.42573         0.015466      0.006034      0.004731
      5.12844      3.50530      6.83978        -0.012545     -0.006816     -0.008604
     15.24464      9.33094      8.86251         0.001785      0.002013      0.010810
      3.90030      4.53021      9.02168        -0.013429      0.025828      0.002360
      6.80757      9.21151      8.73618         0.021246     -0.002669      0.012546
     12.35618      4.43629      9.06436        -0.004419     -0.004025      0.003336
      9.56013      9.27347      9.13533         0.003468     -0.008093      0.001442
     10.91355      2.10794      8.80821         0.021247     -0.007985      0.030321
      2.63992      2.06955      9.08982         0.004582     -0.007712      0.002564
     12.39211      9.24325      9.01895        -0.013519      0.006767     -0.014607
     13.84731      6.93954      8.98351        -0.001045      0.002050      0.003460
      5.35681      1.93325      9.09765        -0.006466      0.002096     -0.010088
      8.11945      6.79418      8.79426        -0.001458      0.007355     -0.007096
      9.51133      4.47064      8.77943        -0.006916      0.000363      0.001291
      5.32020      6.88831      8.81626        -0.008426      0.009925      0.005415
      8.13393      1.96276      8.90425        -0.002898      0.008652     -0.000863
      7.99946      3.36922      6.62024         0.006322      0.001546      0.003498
      6.55733      1.09621      6.78831        -0.016132      0.004405      0.003296
      6.83385      1.22925      1.47033        -0.000326      0.038084      0.000358
      3.61235      3.96468      2.61995        -0.008446     -0.001044      0.001614
      1.40974      1.42999      6.84203        -0.018587     -0.009798      0.011051
      0.67127      0.98910      1.08188        -0.016516     -0.017252     -0.000944
      6.74807      9.00879      3.12342        -0.006748      0.007238     -0.011571
      6.73765      4.36575      8.92970         0.001169      0.011233      0.023655
      8.49330      5.38439      5.05378         0.014545     -0.006574      0.006974
     10.99797      6.87905      9.09748        -0.002857      0.010012      0.008044
     14.94884      7.37673      4.49249         0.024426      0.015736      0.016460
     12.48183      6.13862      6.83908         0.003036      0.012260     -0.021027
      6.47692      5.89190      6.64436         0.011351      0.007947     -0.010285
      3.57422      2.54624      4.95878         0.000969     -0.010719     -0.060266
     11.12614      5.45251      4.71025         0.038639      0.034885     -0.022131
      3.87898      5.90631      6.70543         0.017395     -0.002643      0.000748
     13.73438      8.58852      1.76277        -0.005829     -0.021630     -0.040408
      4.87663      8.41395      1.57788         0.009026      0.006147      0.023000
      3.75877      6.38414      2.06092         0.017286     -0.002775      0.017788
      8.35850      2.27224      3.29405        -0.012580     -0.002358      0.000711
      9.33367      9.15886      2.96349         0.000913      0.000642      0.028759
      2.47564      3.83758      6.95279        -0.001487     -0.012120      0.007778
      1.94892      3.12368      0.97734        -0.003399      0.007625     -0.000247
     10.75187      2.21221      3.05623         0.010621      0.006607     -0.000792
     13.77799      5.05868      4.81470        -0.024861      0.010784     -0.018505
      3.94817      0.97029      7.02285         0.004715     -0.012751     -0.003381
      9.83659      6.29853      6.97224        -0.006672     -0.004182      0.004929
      3.32747      0.88717      1.07332        -0.000855     -0.001830     -0.011870
      9.37038      5.94444      1.03355         0.025575      0.015427     -0.045232
      5.77436      3.51120      1.58883         0.004538      0.007545      0.001032
     11.78080      9.10211      3.01275        -0.012902     -0.012486      0.039086
     12.14221      7.86485      4.90717        -0.046770     -0.020948     -0.040530
     12.89855      6.59993      3.08536         0.008736     -0.004901      0.023404
      9.60902      4.40928      2.93166        -0.001656     -0.015618      0.015384
      8.51169      8.48338      6.95784        -0.000815     -0.007184      0.010379
      8.12654      8.25967      1.10014        -0.017691      0.005121     -0.016296
     10.59532      7.05732      2.72628         0.003044     -0.011285      0.023299
      2.64345      0.12582      5.05287        -0.015359      0.049442      0.012309
      8.18206      3.50560      1.21995        -0.010565     -0.029742      0.010904
      4.79851      1.62222      2.89617        -0.009886     -0.005084      0.012902
      5.80940      6.64990      3.24762        -0.015750      0.009413     -0.022069
      7.65468      0.41297      4.68699         0.038228     -0.005045      0.032870
      9.47187      1.13509      6.56875         0.019134      0.006824      0.006444
     10.93763      8.49613      6.95280        -0.019706      0.004844     -0.000300
      9.36237      1.19334      1.33066         0.029977      0.007236      0.008837
     10.65631      8.73216      0.98021         0.000789     -0.003938     -0.011065
      5.03147      4.91039      4.71650        -0.021409     -0.003678     -0.029336
     12.26834      3.06562      4.96160         0.010732     -0.007729     -0.002907
      9.64277      0.01896      3.43463         0.017343     -0.000210      0.016585
      9.85949      3.06130      5.05334        -0.002558     -0.024306     -0.006861
      6.31739      2.58312      4.70295        -0.004525     -0.012059     -0.007493
     12.25313      4.17493      2.83324        -0.004285     -0.000624      0.002668
      2.09525      1.75623      3.07324        -0.000824     -0.002288      0.026143
     11.83128      5.72145      1.13423         0.031420      0.000707     -0.001400
      6.85743      5.74904      1.30355        -0.003197     -0.005859      0.010418
      8.21979      6.81570      3.00225         0.003008      0.014568     -0.009303
      7.04013      4.41026      3.27464         0.004145     -0.000436      0.003030
     11.12067      3.90148      6.90021         0.009916     -0.022236      0.008720
     10.73608      3.41609      1.01158        -0.000251     -0.012909      0.002382
     11.35396      0.81935      4.88330        -0.060370     -0.011862     -0.012802
      9.67608      7.72321      4.95729         0.021603     -0.000767     -0.035020
      7.20385      7.63915      5.11888         0.022186      0.015961      0.008660
      5.07803      0.26935      4.93904        -0.010556     -0.003908     -0.004490
     10.19094      0.90292      9.88253        -0.014886     -0.019944     -0.019793
 -----------------------------------------------------------------------------------
    total drift:                               -0.018339      0.054477     -0.033901


--------------------------------------------------------------------------------------------------------



  FREE ENERGIE OF THE ION-ELECTRON SYSTEM (eV)
  ---------------------------------------------------
  free  energy   TOTEN  =      -503.38410464 eV

  energy  without entropy=     -503.40707385  energy(sigma->0) =     -503.39176104
 
 d Force = 0.1740193E-02[ 0.858E-03, 0.262E-02]  d Energy = 0.1632557E-02 0.108E-03
 d Force = 0.4537446E+02[ 0.454E+02, 0.454E+02]  d Ewald  = 0.4537448E+02-0.201E-04


--------------------------------------------------------------------------------------------------------


    POTLOK:  cpu time    0.4924: real time    0.4943


--------------------------------------------------------------------------------------------------------


 Conjugate gradient step on ions:
 trial-energy change:   -0.001633  1 .order   -0.001740   -0.002622   -0.000858
  (g-gl).g = 0.123E-02      g.g   = 0.140E-02  gl.gl    = 0.251E-02
 g(Force)  = 0.140E-02   g(Stress)= 0.000E+00 ortho     =-0.115E-03
 gamma     =   0.49077
 trial     =   1.94583
 opt step  =   2.89297  (harmonic =   2.89297) maximal distance =0.01494052
 next E    =  -503.384421   (d E  =  -0.00195)


--------------------------------------------------------------------------------------------------------


  
 reached required accuracy - stopping structural energy minimisation
     LOOP+:  cpu time  845.8705: real time  848.5204
    4ORBIT:  cpu time    0.0000: real time    0.0000

 total amount of memory used by VASP MPI-rank0   243557. kBytes
=======================================================================

   base      :      30000. kBytes
   nonlr-proj:      33158. kBytes
   fftplans  :      18297. kBytes
   grid      :      51226. kBytes
   one-center:        653. kBytes
   wavefun   :     110223. kBytes
 
  
  
 General timing and accounting informations for this job:
 ========================================================
  
                  Total CPU time used (sec):    18431.531
                            User time (sec):    17892.759
                          System time (sec):      538.772
                         Elapsed time (sec):    18541.508
  
                   Maximum memory used (kb):      401100.
                   Average memory used (kb):           0.
  
                          Minor page faults:     20900360
                          Major page faults:          223
                 Voluntary context switches:        16094
