 vasp.5.4.4.18Apr17-6-g9f103f2a35 (build Oct 25 2019 11:13:22) complex          
  
 executed on             LinuxIFC date 2021.10.30  02:09:16
 running on   48 total cores
 distrk:  each k-point on   48 cores,    1 groups
 distr:  one band on NCORES_PER_BAND=   4 cores,   12 groups


--------------------------------------------------------------------------------------------------------


 INCAR:
 POTCAR:    PAW_PBE Pt 04Feb2005                  
 POTCAR:    PAW_PBE Fe 06Sep2000                  
 POTCAR:    PAW_PBE Co 02Aug2007                  
 POTCAR:    PAW_PBE Cu 22Jun2005                  
 POTCAR:    PAW_PBE Ni 02Aug2007                  
 POTCAR:    PAW_PBE H 15Jun2001                   
 POTCAR:    PAW_PBE Pt 04Feb2005                  
   VRHFIN =Pt: s1d9                                                             
   LEXCH  = PE                                                                  
   EATOM  =   729.1176 eV,   53.5886 Ry                                         
                                                                                
   TITEL  = PAW_PBE Pt 04Feb2005                                                
   LULTRA =        F    use ultrasoft PP ?                                      
   IUNSCR =        1    unscreen: 0-lin 1-nonlin 2-no                           
   RPACOR =    2.330    partial core radius                                     
   POMASS =  195.080; ZVAL   =   10.000    mass and valenz                      
   RCORE  =    2.600    outmost cutoff radius                                   
   RWIGS  =    2.750; RWIGS  =    1.455    wigner-seitz radius (au A)           
   ENMAX  =  230.283; ENMIN  =  172.712 eV                                      
   ICORE  =        3    local potential                                         
   LCOR   =        T    correct aug charges                                     
   LPAW   =        T    paw PP                                                  
   EAUG   =  358.966                                                            
   DEXC   =    0.000                                                            
   RMAX   =    2.658    core radius for proj-oper                               
   RAUG   =    1.300    factor for augmentation sphere                          
   RDEP   =    2.761    radius for radial grids                                 
   RDEPT  =    2.203    core radius for aug-charge                              
                                                                                
   Atomic configuration                                                         
   16 entries                                                                   
     n  l   j            E        occ.                                          
     1  0  0.50    -78401.1885   2.0000                                         
     2  0  0.50    -13770.7750   2.0000                                         
     2  1  1.50    -11931.0468   6.0000                                         
     3  0  0.50     -3234.7234   2.0000                                         
     3  1  1.50     -2699.2216   6.0000                                         
     3  2  2.50     -2119.5714  10.0000                                         
     4  0  0.50      -695.1528   2.0000                                         
     4  1  1.50      -519.6034   6.0000                                         
     4  2  2.50      -306.6786  10.0000                                         
     4  3  3.50       -70.1041  14.0000                                         
     5  0  0.50      -101.7747   2.0000                                         
     5  1  1.50       -55.9873   6.0000                                         
     5  2  2.50        -6.1423   9.0000                                         
     6  0  0.50        -5.6573   1.0000                                         
     6  1  1.50        -6.8029   0.0000                                         
     5  3  2.50        -1.3606   0.0000                                         
   Description                                                                  
     l       E           TYP  RCUT    TYP  RCUT                                 
     2     -6.1423404     23  2.500                                             
     2     -7.5029230     23  2.500                                             
     0     -5.6573207     23  2.500                                             
     0      0.7416693     23  2.500                                             
     1     -2.7211652     23  2.600                                             
     1     20.4087390     23  2.600                                             
     3     -1.3605826     23  2.500                                             
  local pseudopotential read in
  partial core-charges read in
  partial kinetic energy density read in
  atomic valenz-charges read in
  non local Contribution for L=           2  read in
    real space projection operators read in
  non local Contribution for L=           2  read in
    real space projection operators read in
  non local Contribution for L=           0  read in
    real space projection operators read in
  non local Contribution for L=           0  read in
    real space projection operators read in
  non local Contribution for L=           1  read in
    real space projection operators read in
  non local Contribution for L=           1  read in
    real space projection operators read in
    PAW grid and wavefunctions read in
 
   number of l-projection  operators is LMAX  =           6
   number of lm-projection operators is LMMAX =          18
 
 POTCAR:    PAW_PBE Fe 06Sep2000                  
   VRHFIN =Fe:  d7 s1                                                           
   LEXCH  = PE                                                                  
   EATOM  =   594.3153 eV,   43.6809 Ry                                         
                                                                                
   TITEL  = PAW_PBE Fe 06Sep2000                                                
   LULTRA =        F    use ultrasoft PP ?                                      
   IUNSCR =        1    unscreen: 0-lin 1-nonlin 2-no                           
   RPACOR =    2.000    partial core radius                                     
   POMASS =   55.847; ZVAL   =    8.000    mass and valenz                      
   RCORE  =    2.300    outmost cutoff radius                                   
   RWIGS  =    2.460; RWIGS  =    1.302    wigner-seitz radius (au A)           
   ENMAX  =  267.882; ENMIN  =  200.911 eV                                      
   RCLOC  =    1.701    cutoff for local pot                                    
   LCOR   =        T    correct aug charges                                     
   LPAW   =        T    paw PP                                                  
   EAUG   =  511.368                                                            
   DEXC   =    0.000                                                            
   RMAX   =    2.356    core radius for proj-oper                               
   RAUG   =    1.300    factor for augmentation sphere                          
   RDEP   =    2.442    radius for radial grids                                 
   RDEPT  =    1.890    core radius for aug-charge                              
                                                                                
   Atomic configuration                                                         
    9 entries                                                                   
     n  l   j            E        occ.                                          
     1  0  0.50     -6993.8440   2.0000                                         
     2  0  0.50      -814.6047   2.0000                                         
     2  1  1.50      -693.3689   6.0000                                         
     3  0  0.50       -89.4732   2.0000                                         
     3  1  1.50       -55.6373   6.0000                                         
     3  2  2.50        -3.8151   7.0000                                         
     4  0  0.50        -4.2551   1.0000                                         
     4  1  1.50        -3.4015   0.0000                                         
     4  3  2.50        -1.3606   0.0000                                         
   Description                                                                  
     l       E           TYP  RCUT    TYP  RCUT                                 
     2     -3.8151135     23  2.300                                             
     2     -5.1756961     23  2.300                                             
     0     -4.2550963     23  2.300                                             
     0      7.2035603     23  2.300                                             
     1     -2.7211652     23  2.300                                             
     1     18.4316424     23  2.300                                             
  local pseudopotential read in
  partial core-charges read in
  partial kinetic energy density read in
  atomic valenz-charges read in
  non local Contribution for L=           2  read in
    real space projection operators read in
  non local Contribution for L=           2  read in
    real space projection operators read in
  non local Contribution for L=           0  read in
    real space projection operators read in
  non local Contribution for L=           0  read in
    real space projection operators read in
  non local Contribution for L=           1  read in
    real space projection operators read in
  non local Contribution for L=           1  read in
    real space projection operators read in
    PAW grid and wavefunctions read in
 
   number of l-projection  operators is LMAX  =           6
   number of lm-projection operators is LMMAX =          18
 
 POTCAR:    PAW_PBE Co 02Aug2007                  
   VRHFIN =Co: d8 s1                                                            
   LEXCH  = PE                                                                  
   EATOM  =   813.3670 eV,   59.7808 Ry                                         
                                                                                
   TITEL  = PAW_PBE Co 02Aug2007                                                
   LULTRA =        F    use ultrasoft PP ?                                      
   IUNSCR =        1    unscreen: 0-lin 1-nonlin 2-no                           
   RPACOR =    2.000    partial core radius                                     
   POMASS =   58.933; ZVAL   =    9.000    mass and valenz                      
   RCORE  =    2.300    outmost cutoff radius                                   
   RWIGS  =    2.460; RWIGS  =    1.302    wigner-seitz radius (au A)           
   ENMAX  =  267.968; ENMIN  =  200.976 eV                                      
   RCLOC  =    1.203    cutoff for local pot                                    
   LCOR   =        T    correct aug charges                                     
   LPAW   =        T    paw PP                                                  
   EAUG   =  477.818                                                            
   DEXC   =    0.000                                                            
   RMAX   =    2.360    core radius for proj-oper                               
   RAUG   =    1.300    factor for augmentation sphere                          
   RDEP   =    2.393    radius for radial grids                                 
   RDEPT  =    1.864    core radius for aug-charge                              
                                                                                
   Atomic configuration                                                         
    9 entries                                                                   
     n  l   j            E        occ.                                          
     1  0  0.50     -7587.6674   2.0000                                         
     2  0  0.50      -893.6084   2.0000                                         
     2  1  1.50      -764.5805   6.0000                                         
     3  0  0.50       -97.5973   2.0000                                         
     3  1  1.50       -60.9648   6.0000                                         
     3  2  2.50        -4.2382   8.0000                                         
     4  0  0.50        -4.3746   1.0000                                         
     4  1  1.50        -4.0817   0.0000                                         
     4  3  2.50        -1.3606   0.0000                                         
   Description                                                                  
     l       E           TYP  RCUT    TYP  RCUT                                 
     2     -4.2382362     23  2.300                                             
     2     -5.5988188     23  2.300                                             
     0     -4.3745797     23  2.300                                             
     0      5.7660125     23  2.300                                             
     1     -2.7211652     23  2.300                                             
     1     16.9860234     23  2.300                                             
  local pseudopotential read in
  partial core-charges read in
  partial kinetic energy density read in
  atomic valenz-charges read in
  non local Contribution for L=           2  read in
    real space projection operators read in
  non local Contribution for L=           2  read in
    real space projection operators read in
  non local Contribution for L=           0  read in
    real space projection operators read in
  non local Contribution for L=           0  read in
    real space projection operators read in
  non local Contribution for L=           1  read in
    real space projection operators read in
  non local Contribution for L=           1  read in
    real space projection operators read in
    PAW grid and wavefunctions read in
 
   number of l-projection  operators is LMAX  =           6
   number of lm-projection operators is LMMAX =          18
 
 POTCAR:    PAW_PBE Cu 22Jun2005                  
   VRHFIN =Cu: d10 p1                                                           
   LEXCH  = PE                                                                  
   EATOM  =  1390.9808 eV,  102.2342 Ry                                         
                                                                                
   TITEL  = PAW_PBE Cu 22Jun2005                                                
   LULTRA =        F    use ultrasoft PP ?                                      
   IUNSCR =        1    unscreen: 0-lin 1-nonlin 2-no                           
   RPACOR =    2.000    partial core radius                                     
   POMASS =   63.546; ZVAL   =   11.000    mass and valenz                      
   RCORE  =    2.300    outmost cutoff radius                                   
   RWIGS  =    2.200; RWIGS  =    1.164    wigner-seitz radius (au A)           
   ENMAX  =  295.446; ENMIN  =  221.585 eV                                      
   ICORE  =        3    local potential                                         
   LCOR   =        T    correct aug charges                                     
   LPAW   =        T    paw PP                                                  
   EAUG   =  586.980                                                            
   DEXC   =    0.000                                                            
   RMAX   =    2.344    core radius for proj-oper                               
   RAUG   =    1.300    factor for augmentation sphere                          
   RDEP   =    2.302    radius for radial grids                                 
   RDEPT  =    1.771    core radius for aug-charge                              
                                                                                
   Atomic configuration                                                         
    9 entries                                                                   
     n  l   j            E        occ.                                          
     1  0  0.50     -8850.2468   2.0000                                         
     2  0  0.50     -1062.3498   2.0000                                         
     2  1  1.50      -916.8226   6.0000                                         
     3  0  0.50      -114.6929   2.0000                                         
     3  1  1.50       -72.1325   6.0000                                         
     3  2  2.50        -5.0394  10.0000                                         
     4  0  0.50        -4.6097   1.0000                                         
     4  1  0.50        -4.0817   0.0000                                         
     4  3  2.50        -1.3606   0.0000                                         
   Description                                                                  
     l       E           TYP  RCUT    TYP  RCUT                                 
     2     -5.0393973     23  2.200                                             
     2     10.8846608     23  2.200                                             
     0     -4.6097109     23  2.200                                             
     0      8.2520465     23  2.200                                             
     1     -2.7211652     23  2.200                                             
     1     21.7055443     23  2.200                                             
     3      2.7211652     23  2.300                                             
  local pseudopotential read in
  partial core-charges read in
  partial kinetic energy density read in
  atomic valenz-charges read in
  non local Contribution for L=           2  read in
    real space projection operators read in
  non local Contribution for L=           2  read in
    real space projection operators read in
  non local Contribution for L=           0  read in
    real space projection operators read in
  non local Contribution for L=           0  read in
    real space projection operators read in
  non local Contribution for L=           1  read in
    real space projection operators read in
  non local Contribution for L=           1  read in
    real space projection operators read in
    PAW grid and wavefunctions read in
 
   number of l-projection  operators is LMAX  =           6
   number of lm-projection operators is LMMAX =          18
 
 POTCAR:    PAW_PBE Ni 02Aug2007                  
   VRHFIN =Ni:                                                                  
   LEXCH  = PE                                                                  
   EATOM  =  1077.6739 eV,   79.2068 Ry                                         
                                                                                
   TITEL  = PAW_PBE Ni 02Aug2007                                                
   LULTRA =        F    use ultrasoft PP ?                                      
   IUNSCR =        1    unscreen: 0-lin 1-nonlin 2-no                           
   RPACOR =    2.000    partial core radius                                     
   POMASS =   58.690; ZVAL   =   10.000    mass and valenz                      
   RCORE  =    2.300    outmost cutoff radius                                   
   RWIGS  =    2.430; RWIGS  =    1.286    wigner-seitz radius (au A)           
   ENMAX  =  269.532; ENMIN  =  202.149 eV                                      
   RCLOC  =    1.201    cutoff for local pot                                    
   LCOR   =        T    correct aug charges                                     
   LPAW   =        T    paw PP                                                  
   EAUG   =  544.565                                                            
   DEXC   =    0.000                                                            
   RMAX   =    2.357    core radius for proj-oper                               
   RAUG   =    1.300    factor for augmentation sphere                          
   RDEP   =    2.390    radius for radial grids                                 
   RDEPT  =    1.838    core radius for aug-charge                              
                                                                                
   Atomic configuration                                                         
    9 entries                                                                   
     n  l   j            E        occ.                                          
     1  0  0.50     -8206.4253   2.0000                                         
     2  0  0.50      -976.1748   2.0000                                         
     2  1  1.50      -839.0571   6.0000                                         
     3  0  0.50      -105.9991   2.0000                                         
     3  1  1.50       -66.4603   6.0000                                         
     3  2  2.50        -4.6458   9.0000                                         
     4  0  0.50        -4.4926   1.0000                                         
     4  1  1.50        -4.0817   0.0000                                         
     4  3  2.50        -1.3606   0.0000                                         
   Description                                                                  
     l       E           TYP  RCUT    TYP  RCUT                                 
     2     -4.6457903     23  2.300                                             
     2     -6.0063729     23  2.300                                             
     0     -4.4925590     23  2.300                                             
     0      5.0102601     23  2.300                                             
     1     -2.7211652     23  2.300                                             
     1     16.5183231     23  2.300                                             
  local pseudopotential read in
  partial core-charges read in
  partial kinetic energy density read in
  atomic valenz-charges read in
  non local Contribution for L=           2  read in
    real space projection operators read in
  non local Contribution for L=           2  read in
    real space projection operators read in
  non local Contribution for L=           0  read in
    real space projection operators read in
  non local Contribution for L=           0  read in
    real space projection operators read in
  non local Contribution for L=           1  read in
    real space projection operators read in
  non local Contribution for L=           1  read in
    real space projection operators read in
    PAW grid and wavefunctions read in
 
   number of l-projection  operators is LMAX  =           6
   number of lm-projection operators is LMMAX =          18
 
 POTCAR:    PAW_PBE H 15Jun2001                   
   VRHFIN =H: ultrasoft test                                                    
   LEXCH  = PE                                                                  
   EATOM  =    12.4884 eV,    0.9179 Ry                                         
                                                                                
   TITEL  = PAW_PBE H 15Jun2001                                                 
   LULTRA =        F    use ultrasoft PP ?                                      
   IUNSCR =        0    unscreen: 0-lin 1-nonlin 2-no                           
   RPACOR =    0.000    partial core radius                                     
   POMASS =    1.000; ZVAL   =    1.000    mass and valenz                      
   RCORE  =    1.100    outmost cutoff radius                                   
   RWIGS  =    0.700; RWIGS  =    0.370    wigner-seitz radius (au A)           
   ENMAX  =  250.000; ENMIN  =  200.000 eV                                      
   RCLOC  =    0.701    cutoff for local pot                                    
   LCOR   =        T    correct aug charges                                     
   LPAW   =        T    paw PP                                                  
   EAUG   =  400.000                                                            
   RMAX   =    1.123    core radius for proj-oper                               
   RAUG   =    1.200    factor for augmentation sphere                          
   RDEP   =    1.112    radius for radial grids                                 
   RDEPT  =    0.926    core radius for aug-charge                              
                                                                                
   Atomic configuration                                                         
    2 entries                                                                   
     n  l   j            E        occ.                                          
     1  0  0.50        -6.4927   1.0000                                         
     2  1  0.50        -3.4015   0.0000                                         
   Description                                                                  
     l       E           TYP  RCUT    TYP  RCUT                                 
     0     -6.4927494     23  1.100                                             
     0      6.8029130     23  1.100                                             
     1     -4.0817478     23  1.100                                             
  local pseudopotential read in
  atomic valenz-charges read in
  non local Contribution for L=           0  read in
    real space projection operators read in
  non local Contribution for L=           0  read in
    real space projection operators read in
  non local Contribution for L=           1  read in
    real space projection operators read in
    PAW grid and wavefunctions read in
 
   number of l-projection  operators is LMAX  =           3
   number of lm-projection operators is LMMAX =           5
 
 Optimization of the real space projectors (new method)

 maximal supplied QI-value         = 14.36
 optimisation between [QCUT,QGAM] = [ 11.92, 23.98] = [ 39.79,161.09] Ry 
 Optimized for a Real-space Cutoff    1.49 Angstroem

   l    n(q)    QCUT    max X(q) W(low)/X(q) W(high)/X(q)  e(spline) 
   2     10    11.920    66.195    0.79E-04    0.18E-03    0.24E-06
   2     10    11.920    64.643    0.81E-04    0.19E-03    0.24E-06
   0     11    11.920    95.520    0.28E-04    0.54E-04    0.18E-06
   0     11    11.920    63.403    0.27E-04    0.52E-04    0.17E-06
   1     10    11.920    19.961    0.18E-04    0.11E-03    0.23E-06
   1     10    11.920    13.289    0.25E-04    0.87E-04    0.19E-06
 Optimization of the real space projectors (new method)

 maximal supplied QI-value         = 16.25
 optimisation between [QCUT,QGAM] = [ 11.86, 23.89] = [ 39.41,159.82] Ry 
 Optimized for a Real-space Cutoff    1.49 Angstroem

   l    n(q)    QCUT    max X(q) W(low)/X(q) W(high)/X(q)  e(spline) 
   2     10    11.864    80.901    0.13E-03    0.23E-03    0.37E-06
   2     10    11.864    75.754    0.13E-03    0.23E-03    0.38E-06
   0     11    11.864    58.752    0.44E-04    0.11E-04    0.20E-06
   0     11    11.864    30.679    0.36E-04    0.10E-04    0.18E-06
   1     10    11.864    17.977    0.31E-04    0.45E-04    0.10E-06
   1     10    11.864    13.559    0.25E-04    0.37E-04    0.89E-07
 Optimization of the real space projectors (new method)

 maximal supplied QI-value         = 16.25
 optimisation between [QCUT,QGAM] = [ 11.86, 23.89] = [ 39.41,159.82] Ry 
 Optimized for a Real-space Cutoff    1.33 Angstroem

   l    n(q)    QCUT    max X(q) W(low)/X(q) W(high)/X(q)  e(spline) 
   2      9    11.864    65.824    0.22E-03    0.53E-03    0.26E-06
   2      9    11.864    61.429    0.22E-03    0.53E-03    0.26E-06
   0      9    11.864    56.174    0.21E-03    0.32E-04    0.15E-06
   0      9    11.864    31.263    0.19E-03    0.30E-04    0.14E-06
   1      9    11.864    19.828    0.63E-04    0.30E-03    0.16E-06
   1      9    11.864    15.139    0.49E-04    0.25E-03    0.13E-06
 Optimization of the real space projectors (new method)

 maximal supplied QI-value         = 16.25
 optimisation between [QCUT,QGAM] = [ 11.86, 23.89] = [ 39.41,159.82] Ry 
 Optimized for a Real-space Cutoff    1.49 Angstroem

   l    n(q)    QCUT    max X(q) W(low)/X(q) W(high)/X(q)  e(spline) 
   2     10    11.864     4.610    0.10E-03    0.20E-03    0.29E-06
   2     10    11.864     8.522    0.17E-03    0.33E-03    0.50E-06
   0     11    11.864    51.609    0.52E-04    0.55E-04    0.33E-06
   0     11    11.864    27.747    0.46E-04    0.52E-04    0.31E-06
   1     10    11.864    20.408    0.54E-04    0.25E-04    0.21E-06
   1     10    11.864    13.425    0.48E-04    0.22E-04    0.18E-06
 Optimization of the real space projectors (new method)

 maximal supplied QI-value         = 16.25
 optimisation between [QCUT,QGAM] = [ 11.86, 23.89] = [ 39.41,159.82] Ry 
 Optimized for a Real-space Cutoff    1.33 Angstroem

   l    n(q)    QCUT    max X(q) W(low)/X(q) W(high)/X(q)  e(spline) 
   2      9    11.864    60.317    0.21E-03    0.51E-03    0.25E-06
   2      9    11.864    55.921    0.21E-03    0.51E-03    0.26E-06
   0      9    11.864    51.690    0.22E-03    0.30E-04    0.17E-06
   0      9    11.864    30.015    0.20E-03    0.28E-04    0.15E-06
   1      9    11.864    18.849    0.76E-04    0.33E-03    0.17E-06
   1      9    11.864    14.624    0.60E-04    0.28E-03    0.15E-06
 Optimization of the real space projectors (new method)

 maximal supplied QI-value         = 34.20
 optimisation between [QCUT,QGAM] = [ 11.97, 23.94] = [ 40.13,160.53] Ry 
 Optimized for a Real-space Cutoff    1.18 Angstroem

   l    n(q)    QCUT    max X(q) W(low)/X(q) W(high)/X(q)  e(spline) 
   0      8    11.971    19.460    0.15E-03    0.31E-03    0.25E-06
   0      8    11.971    12.209    0.13E-03    0.29E-03    0.25E-06
   1      8    11.971     4.655    0.22E-03    0.24E-03    0.21E-06
  PAW_PBE Pt 04Feb2005                  :
 energy of atom  1       EATOM= -729.1176
 kinetic energy error for atom=    0.0021 (will be added to EATOM!!)
  PAW_PBE Fe 06Sep2000                  :
 energy of atom  2       EATOM= -594.3153
 kinetic energy error for atom=    0.0024 (will be added to EATOM!!)
  PAW_PBE Co 02Aug2007                  :
 energy of atom  3       EATOM= -813.3670
 kinetic energy error for atom=    0.0026 (will be added to EATOM!!)
  PAW_PBE Cu 22Jun2005                  :
 energy of atom  4       EATOM=-1390.9808
 kinetic energy error for atom=    0.0036 (will be added to EATOM!!)
  PAW_PBE Ni 02Aug2007                  :
 energy of atom  5       EATOM=-1077.6739
 kinetic energy error for atom=    0.0027 (will be added to EATOM!!)
  PAW_PBE H 15Jun2001                   :
 energy of atom  6       EATOM=  -12.4884
 kinetic energy error for atom=    0.0008 (will be added to EATOM!!)
 
 
 POSCAR: 11.26-high                              
  positions in direct lattice
  velocities in cartesian coordinates
 exchange correlation table for  LEXCH =        8
   RHO(1)=    0.500       N(1)  =     2000
   RHO(2)=  100.500       N(2)  =     4000
 


--------------------------------------------------------------------------------------------------------


 ion  position               nearest neighbor table
   1  0.776  0.870  0.315-  56 2.59  32 2.67  15 2.74  33 2.75  65 2.77  23 2.78   8 2.78  40 2.79
                            16 2.83  41 2.87   3 2.88   2 2.93
   2  0.037  0.869  0.316-  38 2.65  79 2.66  32 2.76  26 2.76   8 2.79  34 2.81  58 2.81  10 2.81
                            41 2.83   3 2.83  20 2.84   1 2.93
   3  0.036  0.617  0.313-  50 2.60  68 2.63  32 2.69   6 2.81   9 2.81   4 2.81   2 2.83  20 2.84
                            33 2.85  34 2.86  16 2.87   1 2.88
   4  0.028  0.371  0.319-  50 2.61  36 2.68  42 2.70  11 2.72  77 2.76   9 2.77  14 2.77  33 2.80
                             3 2.81  26 2.83   6 2.88   5 2.96
   5  0.290  0.106  0.318-  61 2.55  36 2.68  12 2.69  39 2.69  58 2.70  26 2.77  65 2.77  14 2.78
                            17 2.79  23 2.80   6 2.92   4 2.96
   6  0.287  0.368  0.317-  68 2.59  71 2.62  36 2.71  23 2.75  29 2.76   9 2.80  17 2.81   3 2.81
                            34 2.86   4 2.88  22 2.90   5 2.92
   7  0.860  0.689  0.125-  74 2.52  43 2.54  45 2.59  55 2.63  60 2.65  50 2.65  56 2.66  32 2.70
                            72 2.71  25 2.83  64 3.07
   8  0.861  0.955  0.416-  15 2.76  21 2.77   1 2.78  41 2.78   2 2.79  16 2.80  13 2.83  20 2.87
                            10 2.94
   9  0.115  0.456  0.419-  81 1.87  20 2.72   4 2.77  16 2.78  11 2.79   6 2.80  29 2.81   3 2.81
                            14 2.84  17 2.90
  10  0.124  0.953  0.420-  58 2.71  14 2.76  26 2.76  12 2.78   2 2.81  18 2.83  13 2.87  20 2.90
                             8 2.94
  11  0.870  0.449  0.421-   4 2.72  77 2.72  19 2.74  13 2.76  14 2.79   9 2.79  33 2.82  31 2.82
                            16 2.83
  12  0.375  0.947  0.418-   5 2.69  65 2.70  58 2.70  18 2.72  15 2.74  31 2.75  10 2.78  17 2.79
                            14 2.86
  13  0.866  0.205  0.416-  77 2.72  11 2.76  21 2.77  26 2.77  41 2.77  19 2.78  14 2.83   8 2.83
                            10 2.87
  14  0.120  0.201  0.420-  10 2.76   4 2.77   5 2.78  11 2.79  26 2.81  17 2.81  13 2.83   9 2.84
                            12 2.86
  15  0.619  0.946  0.418-   1 2.74  12 2.74  16 2.75  65 2.75  31 2.76   8 2.76  17 2.79  23 2.81
                            21 2.92
  16  0.867  0.703  0.420-  15 2.75  20 2.76  33 2.77   9 2.78  31 2.79   8 2.80   1 2.83  11 2.83
                             3 2.87
  17  0.372  0.197  0.420-  23 2.75  12 2.79   5 2.79  15 2.79   6 2.81  14 2.81  21 2.82  29 2.83
                             9 2.90
  18  0.378  0.703  0.417-  51 2.60  58 2.67  31 2.69  12 2.72  34 2.74  19 2.75  10 2.83  29 2.89
                            20 2.98
  19  0.622  0.456  0.419-  51 2.65  77 2.66  31 2.72  22 2.73  11 2.74  18 2.75  13 2.78  21 2.82
                            29 2.88
  20  0.115  0.699  0.421-  81 1.96   9 2.72  16 2.76  29 2.81  34 2.82   3 2.84   2 2.84   8 2.87
                            10 2.90  18 2.98
  21  0.619  0.206  0.417-  22 2.75  13 2.77   8 2.77  23 2.77  29 2.78  41 2.80  17 2.82  19 2.82
                            15 2.92
  22  0.541  0.377  0.317-  70 2.59  30 2.64  71 2.64  77 2.68  51 2.70  19 2.73  21 2.75  34 2.79
                            41 2.80  29 2.80   6 2.90  23 2.92
  23  0.532  0.121  0.317-  71 2.65  40 2.70  39 2.75  17 2.75   6 2.75  21 2.77   1 2.78   5 2.80
                            15 2.81  41 2.84  22 2.92  65 2.94
  24  0.544  0.120  0.050-  46 2.53  63 2.54  55 2.60  43 2.70  66 2.73  54 2.84  62 2.84  52 2.87
                            67 2.92
  25  0.114  0.439  0.123-  54 2.49  48 2.53  45 2.58  36 2.70  73 2.70  63 2.75  50 2.75  68 2.78
                             7 2.83  72 2.85  64 2.94  76 3.11
  26  0.039  0.114  0.316-  79 2.55  61 2.63  42 2.67   2 2.76  10 2.76  13 2.77   5 2.77  58 2.79
                            14 2.81  41 2.82   4 2.83  77 2.96
  27  0.024  0.132  0.037-  48 2.54  49 2.59  73 2.61  28 2.65  78 2.71  59 2.73  66 2.74  52 2.92
                            44 3.11
  28  0.115  0.958  0.130-  59 2.54  79 2.58  44 2.59  38 2.63  27 2.65  61 2.66  69 2.68  73 2.69
                            47 2.79  49 2.84  35 2.87  64 2.93
  29  0.368  0.451  0.419-  81 1.82   6 2.76  34 2.77  21 2.78  22 2.80   9 2.81  20 2.81  17 2.83
                            19 2.88  18 2.89
  30  0.456  0.540  0.221-  76 2.51  57 2.56  22 2.64  34 2.68  51 2.72  37 2.72  35 2.73  80 2.74
                            71 2.76  38 2.79  70 2.79  68 2.85
  31  0.619  0.700  0.421-  51 2.68  18 2.69  65 2.72  19 2.72  33 2.75  12 2.75  15 2.76  16 2.79
                            11 2.82
  32  0.941  0.791  0.218-  64 2.57  69 2.60   1 2.67   3 2.69   7 2.70   2 2.76  56 2.78  40 2.87
                            50 2.87  79 2.91  68 3.02  38 3.04
  33  0.780  0.622  0.318-  56 2.60  37 2.62  50 2.62  65 2.69  77 2.73  31 2.75  51 2.75   1 2.75
                            16 2.77   4 2.80  11 2.82   3 2.85
  34  0.289  0.621  0.318-  38 2.67  30 2.68  68 2.74  18 2.74  58 2.75  29 2.77  51 2.77  22 2.79
                             2 2.81  20 2.82   6 2.86   3 2.86
  35  0.377  0.709  0.122-  53 2.48  75 2.55  59 2.60  47 2.62  60 2.68  30 2.73  80 2.74  38 2.75
                            57 2.85  76 2.87  28 2.87  64 2.87
  36  0.198  0.277  0.223-  73 2.54  63 2.54   4 2.68   5 2.68  25 2.70   6 2.71  61 2.76  42 2.81
                            68 2.83  50 2.84  39 2.91  71 2.97
  37  0.694  0.548  0.222-  72 2.55  60 2.56  57 2.60  33 2.62  56 2.63  80 2.66  51 2.69  77 2.70
                            30 2.72  50 2.75  70 2.82  42 2.88
  38  0.211  0.792  0.224-  64 2.58  58 2.59  61 2.62  28 2.63   2 2.65  34 2.67  80 2.70  35 2.75
                            30 2.79  79 2.85  68 3.02  32 3.04
  39  0.456  0.016  0.221-  47 2.49  55 2.60  80 2.62  63 2.64  65 2.65  61 2.65   5 2.69  56 2.69
                            23 2.75  40 2.78  36 2.91  71 3.11
  40  0.686  0.047  0.215-  46 2.52  69 2.55  55 2.59  23 2.70  71 2.71  41 2.74  39 2.78   1 2.79
                            70 2.86  32 2.87  56 2.93  79 2.99
  41  0.785  0.121  0.313-  70 2.55  79 2.58  40 2.74  13 2.77   8 2.78  21 2.80  22 2.80  26 2.82
                             2 2.83  23 2.84  77 2.87   1 2.87
  42  0.943  0.286  0.222-  49 2.49  72 2.55  70 2.65  26 2.67  79 2.67  73 2.68  77 2.70   4 2.70
                            50 2.78  36 2.81  37 2.88  61 3.01
  43  0.787  0.882  0.049-  55 2.41  69 2.50   7 2.54  44 2.64  24 2.70  66 2.72  45 2.88  67 2.95

  44  0.036  0.851  0.047-  45 2.41  69 2.53  64 2.55  28 2.59  43 2.64  75 2.68  59 3.07  27 3.11

  45  0.048  0.630  0.044-  44 2.41  75 2.46  64 2.49  25 2.58   7 2.59  54 2.82  43 2.88
  46  0.621  0.226  0.132-  70 2.50  62 2.51  57 2.51  40 2.52  24 2.53  66 2.58  76 2.58  71 2.59
                            49 2.65  69 2.81  63 2.90
  47  0.371  0.944  0.131-  59 2.38  52 2.40  39 2.49  67 2.54  61 2.56  35 2.62  80 2.62  60 2.68
                            73 2.76  55 2.77  28 2.79
  48  0.994  0.372  0.045-  72 2.33  78 2.48  74 2.51  25 2.53  27 2.54  73 2.62
  49  0.863  0.212  0.131-  78 2.43  42 2.49  66 2.56  70 2.57  27 2.59  79 2.61  72 2.63  69 2.64
                            46 2.65  57 2.68  28 2.84  73 2.86
  50  0.946  0.532  0.224-   3 2.60   4 2.61  33 2.62  72 2.64   7 2.65  37 2.75  25 2.75  56 2.78
                            42 2.78  36 2.84  32 2.87  68 2.92
  51  0.537  0.619  0.323-  18 2.60  80 2.64  19 2.65  65 2.67  31 2.68  37 2.69  77 2.69  22 2.70
                            30 2.72  33 2.75  34 2.77  58 2.78
  52  0.294  0.109  0.050-  47 2.40  73 2.40  59 2.41  63 2.57  67 2.71  24 2.87  27 2.92
  53  0.565  0.596  0.047-  74 2.34  57 2.36  60 2.45  35 2.48  78 2.49  62 2.65  67 2.86
  54  0.304  0.384  0.050-  76 2.31  75 2.43  25 2.49  63 2.55  62 2.58  45 2.82  24 2.84
  55  0.628  0.924  0.130-  43 2.41  56 2.46  67 2.47  60 2.47  40 2.59  39 2.60  24 2.60   7 2.63
                            47 2.77
  56  0.699  0.780  0.223-  55 2.46  60 2.53   1 2.59  33 2.60  37 2.63  65 2.64   7 2.66  39 2.69
                            80 2.72  50 2.78  32 2.78  40 2.93
  57  0.622  0.449  0.131-  53 2.36  78 2.44  46 2.51  62 2.53  70 2.55  30 2.56  37 2.60  72 2.63
                            76 2.65  49 2.68  35 2.85  60 2.89
  58  0.289  0.866  0.320-  61 2.57  38 2.59  80 2.61  18 2.67   5 2.70  12 2.70  10 2.71  65 2.72
                            34 2.75  51 2.78  26 2.79   2 2.81
  59  0.279  0.903  0.041-  47 2.38  52 2.41  28 2.54  35 2.60  67 2.66  27 2.73  44 3.07
  60  0.614  0.710  0.130-  53 2.45  55 2.47  67 2.48  74 2.50  56 2.53  37 2.56  80 2.64   7 2.65
                            35 2.68  47 2.68  72 2.82  57 2.89
  61  0.217  0.022  0.226-   5 2.55  47 2.56  58 2.57  38 2.62  26 2.63  39 2.65  28 2.66  73 2.66
                            80 2.68  36 2.76  79 2.84  42 3.01
  62  0.536  0.376  0.040-  76 2.49  46 2.51  57 2.53  54 2.58  78 2.63  53 2.65  75 2.80  24 2.84

  63  0.370  0.211  0.137-  71 2.51  24 2.54  36 2.54  54 2.55  52 2.57  39 2.64  25 2.75  76 2.78
                            73 2.84  46 2.90
  64  0.133  0.690  0.137-  75 2.44  68 2.46  45 2.49  44 2.55  32 2.57  38 2.58  76 2.77  35 2.87
                            28 2.93  25 2.94   7 3.07
  65  0.536  0.858  0.319-  80 2.51  56 2.64  39 2.65  51 2.67  33 2.69  12 2.70  31 2.72  58 2.72
                            15 2.75   1 2.77   5 2.77  23 2.94
  66  0.784  0.126  0.040-  69 2.51  49 2.56  46 2.58  78 2.65  43 2.72  24 2.73  27 2.74
  67  0.533  0.866  0.041-  55 2.47  60 2.48  47 2.54  59 2.66  52 2.71  74 2.86  53 2.86  24 2.92
                            43 2.95
  68  0.211  0.523  0.221-  64 2.46   6 2.59  76 2.61   3 2.63  71 2.65  34 2.74  25 2.78  36 2.83
                            30 2.85  50 2.92  32 3.02  38 3.02
  69  0.869  0.974  0.132-  79 2.49  43 2.50  66 2.51  44 2.53  40 2.55  32 2.60  49 2.64  28 2.68
                            46 2.81
  70  0.705  0.291  0.225-  46 2.50  41 2.55  57 2.55  49 2.57  22 2.59  77 2.62  42 2.65  79 2.79
                            30 2.79  37 2.82  40 2.86
  71  0.453  0.295  0.224-  63 2.51  76 2.52  46 2.59   6 2.62  22 2.64  68 2.65  23 2.65  40 2.71
                            30 2.76  36 2.97  39 3.11
  72  0.856  0.450  0.131-  48 2.33  74 2.44  78 2.50  42 2.55  37 2.55  49 2.63  57 2.63  50 2.64
                             7 2.71  60 2.82  25 2.85  73 2.97
  73  0.127  0.192  0.131-  52 2.40  36 2.54  27 2.61  48 2.62  61 2.66  42 2.68  28 2.69  25 2.70
                            47 2.76  63 2.84  49 2.86  72 2.97
  74  0.773  0.598  0.042-  53 2.34  72 2.44  60 2.50  48 2.51   7 2.52  78 2.59  67 2.86
  75  0.275  0.613  0.046-  54 2.43  64 2.44  45 2.46  76 2.48  35 2.55  44 2.68  62 2.80
  76  0.385  0.450  0.132-  54 2.31  75 2.48  62 2.49  30 2.51  71 2.52  46 2.58  68 2.61  57 2.65
                            64 2.77  63 2.78  35 2.87  25 3.11
  77  0.777  0.380  0.320-  70 2.62  19 2.66  22 2.68  51 2.69  37 2.70  42 2.70  13 2.72  11 2.72
                            33 2.73   4 2.76  41 2.87  26 2.96
  78  0.776  0.366  0.044-  49 2.43  57 2.44  48 2.48  53 2.49  72 2.50  74 2.59  62 2.63  66 2.65
                            27 2.71
  79  0.954  0.043  0.223-  69 2.49  26 2.55  41 2.58  28 2.58  49 2.61   2 2.66  42 2.67  70 2.79
                            61 2.84  38 2.85  32 2.91  40 2.99
  80  0.455  0.784  0.227-  65 2.51  58 2.61  39 2.62  47 2.62  60 2.64  51 2.64  37 2.66  61 2.68
                            38 2.70  56 2.72  30 2.74  35 2.74
  81  0.211  0.523  0.464-  29 1.82   9 1.87  20 1.96
 
  LATTYP: Found a hexagonal cell.
 ALAT       =    11.2227001190
 C/A-ratio  =     1.9603125600
  
  Lattice vectors:
  
 A1 = (   5.6113500595,  -9.7191434021,   0.0000000000)
 A2 = ( -11.2227001190,   0.0000000000,   0.0000000000)
 A3 = (   0.0000000000,   0.0000000000, -22.0000000000)


Analysis of symmetry for initial positions (statically):
=====================================================================
 Subroutine PRICEL returns:
 Original cell was already a primitive cell.
 

 Routine SETGRP: Setting up the symmetry group for a 
 hexagonal supercell.


 Subroutine GETGRP returns: Found  1 space group operations
 (whereof  1 operations were pure point group operations)
 out of a pool of 24 trial point group operations.


The static configuration has the point symmetry C_1 .


Analysis of symmetry for dynamics (positions and initial velocities):
=====================================================================
 Subroutine PRICEL returns:
 Original cell was already a primitive cell.
 

 Routine SETGRP: Setting up the symmetry group for a 
 hexagonal supercell.


 Subroutine GETGRP returns: Found  1 space group operations
 (whereof  1 operations were pure point group operations)
 out of a pool of 24 trial point group operations.


The dynamic configuration has the point symmetry C_1 .


Analysis of constrained symmetry for selective dynamics:
=====================================================================
 Subroutine PRICEL returns:
 Original cell was already a primitive cell.
 

 Routine SETGRP: Setting up the symmetry group for a 
 hexagonal supercell.


 Subroutine GETGRP returns: Found  1 space group operations
 (whereof  1 operations were pure point group operations)
 out of a pool of 24 trial point group operations.


The constrained configuration has the point symmetry C_1 .


Analysis of structural, dynamic, and magnetic symmetry:
=====================================================================
 Subroutine PRICEL returns:
 Original cell was already a primitive cell.
 

 Routine SETGRP: Setting up the symmetry group for a 
 hexagonal supercell.


 Subroutine GETGRP returns: Found  1 space group operations
 (whereof  1 operations were pure point group operations)
 out of a pool of 24 trial point group operations.


The magnetic configuration has the point symmetry C_1 .


 Subroutine INISYM returns: Found  1 space group operations
 (whereof  1 operations are pure point group operations),
 and found     1 'primitive' translations

 
 
 KPOINTS: mesh auto                               

Automatic generation of k-mesh.
Space group operators:
 irot       det(A)        alpha          n_x          n_y          n_z        tau_x        tau_y        tau_z
    1     1.000000     0.000000     1.000000     0.000000     0.000000     0.000000     0.000000     0.000000
 
 Subroutine IBZKPT returns following result:
 ===========================================
 
 Found      4 irreducible k-points:
 
 Following reciprocal coordinates:
            Coordinates               Weight
  0.000000  0.000000  0.000000      1.000000
  0.500000  0.000000  0.000000      1.000000
  0.000000  0.500000  0.000000      1.000000
  0.500000  0.500000  0.000000      1.000000
 
 Following cartesian coordinates:
            Coordinates               Weight
  0.000000  0.000000  0.000000      1.000000
  0.044553 -0.025722  0.000000      1.000000
  0.000000  0.051445  0.000000      1.000000
  0.044553  0.025722  0.000000      1.000000
 


--------------------------------------------------------------------------------------------------------




 Dimension of arrays:
   k-points           NKPTS =      4   k-points in BZ     NKDIM =      4   number of bands    NBANDS=    588
   number of dos      NEDOS =    301   number of ions     NIONS =     81
   non local maximal  LDIM  =      6   non local SUM 2l+1 LMDIM =     18
   total plane-waves  NPLWV = ******
   max r-space proj   IRMAX =   7929   max aug-charges    IRDMAX=  34542
   dimension x,y,z NGX =    90 NGY =   90 NGZ =  168
   dimension x,y,z NGXF=   180 NGYF=  180 NGZF=  336
   support grid    NGXF=   180 NGYF=  180 NGZF=  336
   ions per type =              42  10   9  10   9   1
   NGX,Y,Z   is equivalent  to a cutoff of  13.33, 13.33, 12.70 a.u.
   NGXF,Y,Z  is equivalent  to a cutoff of  26.66, 26.66, 25.39 a.u.

 SYSTEM =  Pt111                                   
 POSCAR =  11.26-high                              

 Startparameter for this run:
   NWRITE =      2    write-flag & timer
   PREC   = accura    normal or accurate (medium, high low for compatibility)
   ISTART =      0    job   : 0-new  1-cont  2-samecut
   ICHARG =      2    charge: 1-file 2-atom 10-const
   ISPIN  =      2    spin polarized calculation?
   LNONCOLLINEAR =      F non collinear calculations
   LSORBIT =      F    spin-orbit coupling
   INIWAV =      1    electr: 0-lowe 1-rand  2-diag
   LASPH  =      F    aspherical Exc in radial PAW
   METAGGA=      F    non-selfconsistent MetaGGA calc.

 Electronic Relaxation 1
   ENCUT  =  550.0 eV  40.42 Ry    6.36 a.u.  21.46 21.46 42.07*2*pi/ulx,y,z
   ENINI  =  550.0     initial cutoff
   ENAUG  =  587.0 eV  augmentation charge cutoff
   NELM   =    200;   NELMIN=  2; NELMDL= -5     # of ELM steps 
   EDIFF  = 0.1E-04   stopping-criterion for ELM
   LREAL  =      T    real-space projection
   NLSPLINE    = F    spline interpolate recip. space projectors
   LCOMPAT=      F    compatible to vasp.4.4
   GGA_COMPAT  = T    GGA compatible to vasp.4.4-vasp.4.6
   LMAXPAW     = -100 max onsite density
   LMAXMIX     =    2 max onsite mixed and CHGCAR
   VOSKOWN=      0    Vosko Wilk Nusair interpolation
   ROPT   =   -0.00025  -0.00025  -0.00025  -0.00025
   ROPT   =   -0.00025  -0.00025
 Ionic relaxation
   EDIFFG = -.5E-01   stopping-criterion for IOM
   NSW    =    300    number of steps for IOM
   NBLOCK =      1;   KBLOCK =    300    inner block; outer block 
   IBRION =      2    ionic relax: 0-MD 1-quasi-New 2-CG
   NFREE  =      1    steps in history (QN), initial steepest desc. (CG)
   ISIF   =      2    stress and relaxation
   IWAVPR =     11    prediction:  0-non 1-charg 2-wave 3-comb
   ISYM   =      2    0-nonsym 1-usesym 2-fastsym
   LCORR  =      T    Harris-Foulkes like correction to forces

   POTIM  = 0.5000    time-step for ionic-motion
   TEIN   =    0.0    initial temperature
   TEBEG  =    0.0;   TEEND  =   0.0 temperature during run
   SMASS  =  -3.00    Nose mass-parameter (am)
   estimated Nose-frequenzy (Omega)   =  0.10E-29 period in steps =****** mass=  -0.288E-26a.u.
   SCALEE = 1.0000    scale energy and forces
   NPACO  =    256;   APACO  = 16.0  distance and # of slots for P.C.
   PSTRESS=    0.0 pullay stress

  Mass of Ions in am
   POMASS = 195.08 55.85 58.93 63.55 58.69  1.00
  Ionic Valenz
   ZVAL   =  10.00  8.00  9.00 11.00 10.00  1.00
  Atomic Wigner-Seitz radii
   RWIGS  =  -1.00 -1.00 -1.00 -1.00 -1.00 -1.00
  virtual crystal weights 
   VCA    =   1.00  1.00  1.00  1.00  1.00  1.00
   NELECT =     782.0000    total number of electrons
   NUPDOWN=      -1.0000    fix difference up-down

 DOS related values:
   EMIN   =  10.00;   EMAX   =-10.00  energy-range for DOS
   EFERMI =   0.00
   ISMEAR =     1;   SIGMA  =   0.10  broadening in eV -4-tet -1-fermi 0-gaus

 Electronic relaxation 2 (details)
   IALGO  =     68    algorithm
   LDIAG  =      T    sub-space diagonalisation (order eigenvalues)
   LSUBROT=      F    optimize rotation matrix (better conditioning)
   TURBO    =      0    0=normal 1=particle mesh
   IRESTART =      0    0=no restart 2=restart with 2 vectors
   NREBOOT  =      0    no. of reboots
   NMIN     =      0    reboot dimension
   EREF     =   0.00    reference energy to select bands
   IMIX   =      4    mixing-type and parameters
     AMIX     =   0.40;   BMIX     =  1.00
     AMIX_MAG =   1.60;   BMIX_MAG =  1.00
     AMIN     =   0.10
     WC   =   100.;   INIMIX=   1;  MIXPRE=   1;  MAXMIX= -45

 Intra band minimization:
   WEIMIN = 0.0010     energy-eigenvalue tresh-hold
   EBREAK =  0.43E-08  absolut break condition
   DEPER  =   0.30     relativ break condition  

   TIME   =   0.40     timestep for ELM

  volume/ion in A,a.u.               =      29.63       199.92
  Fermi-wavevector in a.u.,A,eV,Ry     =   1.126577  2.128923 17.268199  1.269177
  Thomas-Fermi vector in A             =   2.263260
 
 Write flags
   LWAVE        =      F    write WAVECAR
   LDOWNSAMPLE  =      F    k-point downsampling of WAVECAR
   LCHARG       =      F    write CHGCAR
   LVTOT        =      F    write LOCPOT, total local potential
   LVHAR        =      F    write LOCPOT, Hartree potential only
   LELF         =      F    write electronic localiz. function (ELF)
   LORBIT       =      0    0 simple, 1 ext, 2 COOP (PROOUT), +10 PAW based schemes


 Dipole corrections
   LMONO  =      F    monopole corrections only (constant potential shift)
   LDIPOL =      F    correct potential (dipole corrections)
   IDIPOL =      0    1-x, 2-y, 3-z, 4-all directions 
   EPSILON=  1.0000000 bulk dielectric constant

 Exchange correlation treatment:
   GGA     =    --    GGA type
   LEXCH   =     8    internal setting for exchange type
   VOSKOWN=      0    Vosko Wilk Nusair interpolation
   LHFCALC =     F    Hartree Fock is set to
   LHFONE  =     F    Hartree Fock one center treatment
   AEXX    =    0.0000 exact exchange contribution

 Linear response parameters
   LEPSILON=     F    determine dielectric tensor
   LRPA    =     F    only Hartree local field effects (RPA)
   LNABLA  =     F    use nabla operator in PAW spheres
   LVEL    =     F    velocity operator in full k-point grid
   LINTERFAST=   F  fast interpolation
   KINTER  =     0    interpolate to denser k-point grid
   CSHIFT  =0.1000    complex shift for real part using Kramers Kronig
   OMEGAMAX=  -1.0    maximum frequency
   DEG_THRESHOLD= 0.2000000E-02 threshold for treating states as degnerate
   RTIME   =   -0.100 relaxation time in fs
  (WPLASMAI=    0.000 imaginary part of plasma frequency in eV, 0.658/RTIME)
   DFIELD  = 0.0000000 0.0000000 0.0000000 field for delta impulse in time
 
 Orbital magnetization related:
   ORBITALMAG=     F  switch on orbital magnetization
   LCHIMAG   =     F  perturbation theory with respect to B field
   DQ        =  0.001000  dq finite difference perturbation B field
   LLRAUG    =     F  two centre corrections for induced B field



--------------------------------------------------------------------------------------------------------


 conjugate gradient relaxation of ions
   using selective dynamics as specified on POSCAR
 charge density and potential will be updated during run
 spin polarized calculation
 RMM-DIIS sequential band-by-band and
  variant of blocked Davidson during initial phase
 perform sub-space diagonalisation
    before iterative eigenvector-optimisation
 modified Broyden-mixing scheme, WC =      100.0
 initial mixing is a Kerker type mixing with AMIX =  0.4000 and BMIX =      1.0000
 Hartree-type preconditioning will be used
 using additional bands          197
 real space projection scheme for non local part
 use partial core corrections
 calculate Harris-corrections to forces 
   (improved forces if not selfconsistent)
 use gradient corrections 
 use of overlap-Matrix (Vanderbilt PP)
 Methfessel and Paxton  Order N= 1 SIGMA  =   0.10


--------------------------------------------------------------------------------------------------------


  energy-cutoff  :      550.00
  volume of cell :     2399.65
      direct lattice vectors                 reciprocal lattice vectors
    11.222700119  0.000000000  0.000000000     0.089105116 -0.051444863  0.000000000
     5.611350060  9.719143402  0.000000000     0.000000000  0.102889726  0.000000000
     0.000000000  0.000000000 22.000000000     0.000000000  0.000000000  0.045454545

  length of vectors
    11.222700119 11.222700119 22.000000000     0.102889726  0.102889726  0.045454545


 
 k-points in units of 2pi/SCALE and weight: mesh auto                               
   0.00000000  0.00000000  0.00000000       0.250
   0.04455256 -0.02572243  0.00000000       0.250
   0.00000000  0.05144486  0.00000000       0.250
   0.04455256  0.02572243  0.00000000       0.250
 
 k-points in reciprocal lattice and weights: mesh auto                               
   0.00000000  0.00000000  0.00000000       0.250
   0.50000000  0.00000000  0.00000000       0.250
   0.00000000  0.50000000  0.00000000       0.250
   0.50000000  0.50000000  0.00000000       0.250
 
 position of ions in fractional coordinates (direct lattice) 
   0.77565141  0.86995642  0.31454616
   0.03726767  0.86939735  0.31633907
   0.03633080  0.61739466  0.31308321
   0.02817284  0.37111849  0.31877620
   0.28981435  0.10615917  0.31846553
   0.28694614  0.36750652  0.31705326
   0.86038307  0.68854678  0.12531565
   0.86069082  0.95542901  0.41608579
   0.11497805  0.45611201  0.41918237
   0.12378233  0.95279974  0.41954381
   0.86991530  0.44881839  0.42066107
   0.37451156  0.94679451  0.41841843
   0.86561038  0.20525736  0.41580717
   0.11965739  0.20103720  0.42002402
   0.61932181  0.94576628  0.41793782
   0.86652285  0.70309507  0.41969294
   0.37224683  0.19668105  0.41982619
   0.37781609  0.70293761  0.41744273
   0.62177792  0.45633513  0.41932186
   0.11486893  0.69885824  0.42092527
   0.61873688  0.20625851  0.41701190
   0.54091360  0.37662976  0.31743913
   0.53152675  0.12125144  0.31653045
   0.54420190  0.12019148  0.05044345
   0.11424052  0.43860757  0.12340508
   0.03892265  0.11414894  0.31609053
   0.02432533  0.13236688  0.03690154
   0.11521348  0.95848802  0.12979272
   0.36812537  0.45060942  0.41935956
   0.45574359  0.53965249  0.22135250
   0.61893284  0.70045261  0.42070730
   0.94101394  0.79056552  0.21791424
   0.78018468  0.62239096  0.31794447
   0.28883354  0.62109808  0.31837640
   0.37681260  0.70908830  0.12233112
   0.19804412  0.27712854  0.22298714
   0.69395409  0.54843935  0.22211682
   0.21076833  0.79187996  0.22361313
   0.45574183  0.01649232  0.22064103
   0.68628609  0.04688739  0.21472279
   0.78458062  0.12142453  0.31297370
   0.94349309  0.28579245  0.22158907
   0.78678573  0.88216808  0.04880706
   0.03586233  0.85071210  0.04654319
   0.04812293  0.63029630  0.04396441
   0.62094942  0.22562192  0.13235731
   0.37094220  0.94439705  0.13130330
   0.99360993  0.37197898  0.04479349
   0.86316425  0.21223953  0.13085093
   0.94632970  0.53215547  0.22401160
   0.53690276  0.61906035  0.32268017
   0.29424967  0.10946403  0.05024110
   0.56523708  0.59647576  0.04673852
   0.30353543  0.38377122  0.04999638
   0.62775780  0.92360755  0.13039321
   0.69891684  0.78000591  0.22256618
   0.62226646  0.44852339  0.13148461
   0.28862215  0.86645821  0.32000596
   0.27920356  0.90344548  0.04109614
   0.61435034  0.71013018  0.13007464
   0.21650964  0.02241820  0.22577642
   0.53614829  0.37642561  0.04013354
   0.37023431  0.21051928  0.13657032
   0.13264840  0.68967264  0.13748505
   0.53558057  0.85771964  0.31850993
   0.78410875  0.12570915  0.04035826
   0.53292063  0.86611421  0.04082352
   0.21068881  0.52291933  0.22146415
   0.86931925  0.97366600  0.13234433
   0.70506050  0.29142744  0.22453327
   0.45331117  0.29469085  0.22351187
   0.85569873  0.44978941  0.13133023
   0.12736941  0.19194945  0.13066156
   0.77259672  0.59820800  0.04206678
   0.27526983  0.61273885  0.04635559
   0.38521707  0.45004557  0.13185726
   0.77733999  0.38038046  0.31965691
   0.77578291  0.36553722  0.04363425
   0.95382533  0.04285795  0.22280997
   0.45511611  0.78378709  0.22716765
   0.21090994  0.52258312  0.46388847
 
 position of ions in cartesian coordinates  (Angst):
  13.58653325  8.45523123  6.92001548
   5.29673679  8.44979751  6.95945955
   3.87214724  6.00054726  6.88783066
   2.39865113  3.60695384  7.01307648
   3.84819579  1.03177618  7.00624170
   5.28251818  3.57184852  6.97517183
  13.51949814  6.69208485  2.75694422
  15.02052160  9.28595154  9.15388738
   3.84976837  4.43301802  9.22201210
   6.73566480  9.26039728  9.22996380
  12.28127557  4.36213025  9.25454358
   9.51582632  9.20203158  9.20520554
  10.86625656  1.99492569  9.14775772
   2.47096915  1.95390936  9.24052850
  12.25748868  9.19203815  9.19463215
  13.67003872  6.83348184  9.23324467
   5.28126076  1.91157136  9.23617623
   8.18454572  6.83195148  9.18374013
   9.53868327  4.43518658  9.22508087
   5.21067777  6.79230343  9.26035602
   8.10128715  2.00465607  9.17426171
   8.18391251  3.66051863  6.98366078
   6.64554963  1.17846010  6.96366999
   6.78185123  1.16815827  1.10975587
   3.74326768  4.26288989  2.71491169
   1.07734692  1.10942995  6.95399167
   1.01575276  1.28649272  0.81183379
   6.67141817  9.31568253  2.85543986
   6.65988779  4.37953755  9.22591026
   8.14285267  5.24495994  4.86975508
  10.87658250  6.80779939  9.25556067
  14.99685718  7.68361965  4.79411333
  12.24823225  6.04910695  6.99477833
   6.72669100  6.03654129  7.00428089
   8.20779749  6.89173084  2.69128464
   3.77765507  2.69345205  4.90571710
  10.86552387  5.33036073  4.88657006
   6.80890548  7.69639494  4.91948892
   5.20719800  0.16029118  4.85410263
   7.96508457  0.45570528  4.72390144
   9.48646863  1.18014246  6.88542147
  12.19222152  2.77765781  4.87495965
  13.78001418  8.57391807  1.07375538
   5.17611559  8.26819293  1.02395014
   4.07688236  6.12594009  0.96721713
   8.23477271  2.19285182  2.91186093
   9.46231548  9.17873039  2.88867254
  13.23829050  3.61531702  0.98545676
  10.87798387  2.06278643  2.87872037
  13.60648511  5.17209535  4.92825516
   9.49926302  6.01673636  7.09896376
   3.91651686  1.06389665  1.10530426
   9.69052050  5.79723345  1.02824752
   5.55996175  3.72992755  1.09992033
  12.22782284  8.97667424  2.86865054
  12.22062035  7.58098930  4.89645605
   9.50033164  4.35926310  2.89266135
   8.10112017  8.42123155  7.04013101
   8.20296665  8.78071621  0.90411500
  10.87945866  6.90185704  2.86164217
   2.55561917  0.21788571  4.96708124
   8.12928731  3.65853446  0.88293797
   5.33632603  2.04606707  3.00454701
   5.35866784  6.70302732  3.02467112
  10.82362526  8.33630022  7.00721852
   9.50521537  1.22178527  0.88788171
  10.84087843  8.41788825  0.89811744
   5.29878074  5.08232791  4.87221127
  15.21969006  9.46319948  2.91157520
   9.54798398  2.83242508  4.93973185
   6.74098883  2.86414265  4.91726116
  12.12717608  4.37156778  2.88926501
   2.50652432  1.86558426  2.87455439
  12.02737582  5.81406929  0.92546912
   6.52756292  5.95529675  1.01982289
   6.84853891  4.37405744  2.90085982
  10.85830151  3.69697227  7.03245195
  10.75753628  3.55270863  0.95995355
  10.94498656  0.41654257  4.90181936
   9.50573532  7.61773913  4.99768830
   5.29937581  5.07906023 10.20554644
 


--------------------------------------------------------------------------------------------------------


 k-point  1 :   0.0000 0.0000 0.0000  plane waves:   70321
 k-point  2 :   0.5000 0.0000 0.0000  plane waves:   70264
 k-point  3 :   0.0000 0.5000 0.0000  plane waves:   70264
 k-point  4 :   0.5000 0.5000 0.0000  plane waves:   70264

 maximum and minimum number of plane-waves per node :     17611    17530

 maximum number of plane-waves:     70321
 maximum index in each direction: 
   IXMAX=   21   IYMAX=   21   IZMAX=   42
   IXMIN=  -21   IYMIN=  -21   IZMIN=  -42


 real space projection operators:
  total allocation   :      80381.91 KBytes
  max/ min on nodes  :      20546.23      19654.85


 parallel 3D FFT for wavefunctions:
    minimum data exchange during FFTs selected (reduces bandwidth)
 parallel 3D FFT for charge:
    minimum data exchange during FFTs selected (reduces bandwidth)


 total amount of memory used by VASP MPI-rank0   252732. kBytes
=======================================================================

   base      :      30000. kBytes
   nonlr-proj:      36143. kBytes
   fftplans  :      18297. kBytes
   grid      :      55120. kBytes
   one-center:        653. kBytes
   wavefun   :     112519. kBytes
 
     INWAV:  cpu time    0.0001: real time    0.0004
 Broyden mixing: mesh for mixing (old mesh)
   NGX = 43   NGY = 43   NGZ = 85
  (NGX  =180   NGY  =180   NGZ  =336)
  gives a total of 157165 points

 initial charge density was supplied:
 charge density of overlapping atoms calculated
 number of electron     782.0000000 magnetization     231.0000000
 keeping initial charge density in first step


--------------------------------------------------------------------------------------------------------


 Maximum index for non-local projection operator         2111
 Maximum index for augmentation-charges         1115 (set IRDMAX)


--------------------------------------------------------------------------------------------------------


 First call to EWALD:  gamma=   0.132
 Maximum number of real-space cells 4x 4x 2
 Maximum number of reciprocal cells 2x 2x 4

    FEWALD:  cpu time    0.0072: real time    0.0749


--------------------------------------- Iteration      1(   1)  ---------------------------------------


    POTLOK:  cpu time    0.4354: real time    0.5309
    SETDIJ:  cpu time    0.0358: real time    0.0484
     EDDAV:  cpu time   66.7549: real time   66.9698
       DOS:  cpu time    0.0021: real time    0.0478
    --------------------------------------------
      LOOP:  cpu time   67.2282: real time   67.5969

 eigenvalue-minimisations  :  9408
 total energy-change (2. order) : 0.7525617E+04  (-0.3320614E+05)
 number of electron     782.0000000 magnetization     231.0000000
 augmentation part      782.0000000 magnetization     231.0000000

 Free energy of the ion-electron system (eV)
  ---------------------------------------------------
  alpha Z        PSCENC =      2087.66410956
  Ewald energy   TEWEN  =    207659.90304450
  -Hartree energ DENC   =   -277367.54473462
  -exchange      EXHF   =         0.00000000
  -V(xc)+E(xc)   XCENC  =      1139.72859501
  PAW double counting   =     62149.36172160   -63175.55445867
  entropy T*S    EENTRO =        -0.00896201
  eigenvalues    EBANDS =      7524.50550921
  atomic energy  EATOM  =     67507.56188773
  Solvation  Ediel_sol  =         0.00000000
  ---------------------------------------------------
  free energy    TOTEN  =      7525.61671232 eV

  energy without entropy =     7525.62567433  energy(sigma->0) =     7525.61969966


--------------------------------------------------------------------------------------------------------




--------------------------------------- Iteration      1(   2)  ---------------------------------------


     EDDAV:  cpu time   67.4769: real time   67.7327
       DOS:  cpu time    0.0024: real time    0.0073
    --------------------------------------------
      LOOP:  cpu time   67.4793: real time   67.7400

 eigenvalue-minimisations  :  9576
 total energy-change (2. order) :-0.6889022E+04  (-0.6144397E+04)
 number of electron     782.0000000 magnetization     231.0000000
 augmentation part      782.0000000 magnetization     231.0000000

 Free energy of the ion-electron system (eV)
  ---------------------------------------------------
  alpha Z        PSCENC =      2087.66410956
  Ewald energy   TEWEN  =    207659.90304450
  -Hartree energ DENC   =   -277367.54473462
  -exchange      EXHF   =         0.00000000
  -V(xc)+E(xc)   XCENC  =      1139.72859501
  PAW double counting   =     62149.36172160   -63175.55445867
  entropy T*S    EENTRO =         0.00938659
  eigenvalues    EBANDS =       635.46497703
  atomic energy  EATOM  =     67507.56188773
  Solvation  Ediel_sol  =         0.00000000
  ---------------------------------------------------
  free energy    TOTEN  =       636.59452874 eV

  energy without entropy =      636.58514215  energy(sigma->0) =      636.59139988


--------------------------------------------------------------------------------------------------------




--------------------------------------- Iteration      1(   3)  ---------------------------------------


     EDDAV:  cpu time   66.9793: real time   67.1663
       DOS:  cpu time    0.0027: real time    0.0061
    --------------------------------------------
      LOOP:  cpu time   66.9820: real time   67.1724

 eigenvalue-minimisations  :  9480
 total energy-change (2. order) :-0.1014195E+04  (-0.8332932E+03)
 number of electron     782.0000000 magnetization     231.0000000
 augmentation part      782.0000000 magnetization     231.0000000

 Free energy of the ion-electron system (eV)
  ---------------------------------------------------
  alpha Z        PSCENC =      2087.66410956
  Ewald energy   TEWEN  =    207659.90304450
  -Hartree energ DENC   =   -277367.54473462
  -exchange      EXHF   =         0.00000000
  -V(xc)+E(xc)   XCENC  =      1139.72859501
  PAW double counting   =     62149.36172160   -63175.55445867
  entropy T*S    EENTRO =         0.00560345
  eigenvalues    EBANDS =      -378.72607452
  atomic energy  EATOM  =     67507.56188773
  Solvation  Ediel_sol  =         0.00000000
  ---------------------------------------------------
  free energy    TOTEN  =      -377.60030594 eV

  energy without entropy =     -377.60590939  energy(sigma->0) =     -377.60217376


--------------------------------------------------------------------------------------------------------




--------------------------------------- Iteration      1(   4)  ---------------------------------------


     EDDAV:  cpu time   79.9511: real time   80.2198
       DOS:  cpu time    0.0027: real time    0.0081
    --------------------------------------------
      LOOP:  cpu time   79.9539: real time   80.2280

 eigenvalue-minimisations  : 11964
 total energy-change (2. order) :-0.9082118E+02  (-0.8343007E+02)
 number of electron     782.0000000 magnetization     231.0000000
 augmentation part      782.0000000 magnetization     231.0000000

 Free energy of the ion-electron system (eV)
  ---------------------------------------------------
  alpha Z        PSCENC =      2087.66410956
  Ewald energy   TEWEN  =    207659.90304450
  -Hartree energ DENC   =   -277367.54473462
  -exchange      EXHF   =         0.00000000
  -V(xc)+E(xc)   XCENC  =      1139.72859501
  PAW double counting   =     62149.36172160   -63175.55445867
  entropy T*S    EENTRO =        -0.00062250
  eigenvalues    EBANDS =      -469.54103299
  atomic energy  EATOM  =     67507.56188773
  Solvation  Ediel_sol  =         0.00000000
  ---------------------------------------------------
  free energy    TOTEN  =      -468.42149036 eV

  energy without entropy =     -468.42086786  energy(sigma->0) =     -468.42128286


--------------------------------------------------------------------------------------------------------




--------------------------------------- Iteration      1(   5)  ---------------------------------------


     EDDAV:  cpu time   76.3129: real time   76.5486
       DOS:  cpu time    0.0029: real time    0.0213
    CHARGE:  cpu time    4.3767: real time    4.4820
    MIXING:  cpu time    0.0140: real time    0.0206
    --------------------------------------------
      LOOP:  cpu time   80.7065: real time   81.0724

 eigenvalue-minimisations  : 11292
 total energy-change (2. order) :-0.3657870E+01  (-0.3628386E+01)
 number of electron     782.0000027 magnetization     215.6925270
 augmentation part      312.8696673 magnetization     181.2381899

 Broyden mixing:
  rms(total) = 0.11789E+02    rms(broyden)= 0.11789E+02
  rms(prec ) = 0.12176E+02
  weight for this iteration     100.00

 Free energy of the ion-electron system (eV)
  ---------------------------------------------------
  alpha Z        PSCENC =      2087.66410956
  Ewald energy   TEWEN  =    207659.90304450
  -Hartree energ DENC   =   -277367.54473462
  -exchange      EXHF   =         0.00000000
  -V(xc)+E(xc)   XCENC  =      1139.72859501
  PAW double counting   =     62149.36172160   -63175.55445867
  entropy T*S    EENTRO =        -0.00044523
  eigenvalues    EBANDS =      -473.19907986
  atomic energy  EATOM  =     67507.56188773
  Solvation  Ediel_sol  =         0.00000000
  ---------------------------------------------------
  free energy    TOTEN  =      -472.07935997 eV

  energy without entropy =     -472.07891474  energy(sigma->0) =     -472.07921156


--------------------------------------------------------------------------------------------------------




--------------------------------------- Iteration      1(   6)  ---------------------------------------


    POTLOK:  cpu time    0.4060: real time    0.4196
    SETDIJ:  cpu time    0.0305: real time    0.0359
    EDDIAG:  cpu time   12.0123: real time   12.0543
  RMM-DIIS:  cpu time   44.7919: real time   44.9168
    ORTHCH:  cpu time    1.2893: real time    1.2938
       DOS:  cpu time    0.0026: real time    0.0026
    CHARGE:  cpu time    4.3960: real time    4.4082
    MIXING:  cpu time    0.0127: real time    0.0170
    --------------------------------------------
      LOOP:  cpu time   62.9413: real time   63.1481

 eigenvalue-minimisations  : 10038
 total energy-change (2. order) :-0.2857403E+03  (-0.1018609E+03)
 number of electron     782.0000038 magnetization     211.7871325
 augmentation part      370.4727501 magnetization     175.6060604

 Broyden mixing:
  rms(total) = 0.20573E+02    rms(broyden)= 0.20573E+02
  rms(prec ) = 0.27321E+02
  weight for this iteration     100.00

 eigenvalues of (default mixing * dielectric matrix)
  average eigenvalue GAMMA=   0.2556
  0.2556

 Free energy of the ion-electron system (eV)
  ---------------------------------------------------
  alpha Z        PSCENC =      2087.66410956
  Ewald energy   TEWEN  =    207659.90304450
  -Hartree energ DENC   =   -275790.16960868
  -exchange      EXHF   =         0.00000000
  -V(xc)+E(xc)   XCENC  =      1102.54411507
  PAW double counting   =     66602.94417697   -67454.36071890
  entropy T*S    EENTRO =         0.00124405
  eigenvalues    EBANDS =     -2473.90790907
  atomic energy  EATOM  =     67507.56188773
  Solvation  Ediel_sol  =         0.00000000
  ---------------------------------------------------
  free energy    TOTEN  =      -757.81965877 eV

  energy without entropy =     -757.82090282  energy(sigma->0) =     -757.82007345


--------------------------------------------------------------------------------------------------------




--------------------------------------- Iteration      1(   7)  ---------------------------------------


    POTLOK:  cpu time    0.4105: real time    0.4134
    SETDIJ:  cpu time    0.0345: real time    0.0346
    EDDIAG:  cpu time   12.0480: real time   12.0820
  RMM-DIIS:  cpu time   42.1678: real time   42.2850
    ORTHCH:  cpu time    1.2933: real time    1.2968
       DOS:  cpu time    0.0026: real time    0.0026
    CHARGE:  cpu time    4.3610: real time    4.3729
    MIXING:  cpu time    0.0124: real time    0.0125
    --------------------------------------------
      LOOP:  cpu time   60.3300: real time   60.4998

 eigenvalue-minimisations  :  9424
 total energy-change (2. order) : 0.2104202E+03  (-0.1875991E+02)
 number of electron     782.0000026 magnetization     206.9267643
 augmentation part      340.5146074 magnetization     165.9963968

 Broyden mixing:
  rms(total) = 0.15163E+02    rms(broyden)= 0.15163E+02
  rms(prec ) = 0.19355E+02
  weight for this iteration     100.00

 eigenvalues of (default mixing * dielectric matrix)
  average eigenvalue GAMMA=   0.2693
  0.3844  0.1542

 Free energy of the ion-electron system (eV)
  ---------------------------------------------------
  alpha Z        PSCENC =      2087.66410956
  Ewald energy   TEWEN  =    207659.90304450
  -Hartree energ DENC   =   -276418.63287549
  -exchange      EXHF   =         0.00000000
  -V(xc)+E(xc)   XCENC  =      1120.92308727
  PAW double counting   =     67578.59451772   -68571.79846073
  entropy T*S    EENTRO =         0.00009214
  eigenvalues    EBANDS =     -1511.61488856
  atomic energy  EATOM  =     67507.56188773
  Solvation  Ediel_sol  =         0.00000000
  ---------------------------------------------------
  free energy    TOTEN  =      -547.39948586 eV

  energy without entropy =     -547.39957800  energy(sigma->0) =     -547.39951657


--------------------------------------------------------------------------------------------------------




--------------------------------------- Iteration      1(   8)  ---------------------------------------


    POTLOK:  cpu time    0.4104: real time    0.4131
    SETDIJ:  cpu time    0.0335: real time    0.0336
    EDDIAG:  cpu time   11.9749: real time   12.0084
  RMM-DIIS:  cpu time   42.1080: real time   42.2273
    ORTHCH:  cpu time    1.2926: real time    1.2963
       DOS:  cpu time    0.0026: real time    0.0026
    CHARGE:  cpu time    4.3128: real time    4.3248
    MIXING:  cpu time    0.0124: real time    0.0126
    --------------------------------------------
      LOOP:  cpu time   60.1472: real time   60.3187

 eigenvalue-minimisations  :  9434
 total energy-change (2. order) : 0.1218502E+03  (-0.1723768E+02)
 number of electron     782.0000028 magnetization     199.8654267
 augmentation part      350.8769181 magnetization     156.6660294

 Broyden mixing:
  rms(total) = 0.12553E+02    rms(broyden)= 0.12553E+02
  rms(prec ) = 0.13942E+02
  weight for this iteration     100.00

 eigenvalues of (default mixing * dielectric matrix)
  average eigenvalue GAMMA=   0.3153
  0.5583  0.2777  0.1098

 Free energy of the ion-electron system (eV)
  ---------------------------------------------------
  alpha Z        PSCENC =      2087.66410956
  Ewald energy   TEWEN  =    207659.90304450
  -Hartree energ DENC   =   -276599.09844212
  -exchange      EXHF   =         0.00000000
  -V(xc)+E(xc)   XCENC  =      1130.48076188
  PAW double counting   =     68729.96446954   -69781.01960042
  entropy T*S    EENTRO =         0.00570445
  eigenvalues    EBANDS =     -1161.01123060
  atomic energy  EATOM  =     67507.56188773
  Solvation  Ediel_sol  =         0.00000000
  ---------------------------------------------------
  free energy    TOTEN  =      -425.54929548 eV

  energy without entropy =     -425.55499993  energy(sigma->0) =     -425.55119696


--------------------------------------------------------------------------------------------------------




--------------------------------------- Iteration      1(   9)  ---------------------------------------


    POTLOK:  cpu time    0.4099: real time    0.4122
    SETDIJ:  cpu time    0.0341: real time    0.0342
    EDDIAG:  cpu time   11.9947: real time   12.0633
  RMM-DIIS:  cpu time   42.3400: real time   42.4582
    ORTHCH:  cpu time    1.2876: real time    1.2932
       DOS:  cpu time    0.0027: real time    0.0027
    CHARGE:  cpu time    4.2432: real time    4.2688
    MIXING:  cpu time    0.0124: real time    0.0126
    --------------------------------------------
      LOOP:  cpu time   60.3246: real time   60.5450

 eigenvalue-minimisations  :  9448
 total energy-change (2. order) : 0.2381235E+02  (-0.2053564E+02)
 number of electron     782.0000035 magnetization     192.6783474
 augmentation part      347.2815403 magnetization     149.1317644

 Broyden mixing:
  rms(total) = 0.13748E+02    rms(broyden)= 0.13748E+02
  rms(prec ) = 0.15102E+02
  weight for this iteration     100.00

 eigenvalues of (default mixing * dielectric matrix)
  average eigenvalue GAMMA=   0.3496
  0.7592  0.3851  0.1270  0.1270

 Free energy of the ion-electron system (eV)
  ---------------------------------------------------
  alpha Z        PSCENC =      2087.66410956
  Ewald energy   TEWEN  =    207659.90304450
  -Hartree energ DENC   =   -276542.15144287
  -exchange      EXHF   =         0.00000000
  -V(xc)+E(xc)   XCENC  =      1142.77131009
  PAW double counting   =     70085.97783296   -71199.19778696
  entropy T*S    EENTRO =         0.00166553
  eigenvalues    EBANDS =     -1144.26756483
  atomic energy  EATOM  =     67507.56188773
  Solvation  Ediel_sol  =         0.00000000
  ---------------------------------------------------
  free energy    TOTEN  =      -401.73694429 eV

  energy without entropy =     -401.73860982  energy(sigma->0) =     -401.73749947


--------------------------------------------------------------------------------------------------------




--------------------------------------- Iteration      1(  10)  ---------------------------------------


    POTLOK:  cpu time    0.4101: real time    0.4126
    SETDIJ:  cpu time    0.0341: real time    0.0342
    EDDIAG:  cpu time   11.9634: real time   11.9963
  RMM-DIIS:  cpu time   42.3098: real time   42.4471
    ORTHCH:  cpu time    1.2988: real time    1.3030
       DOS:  cpu time    0.0027: real time    0.0027
    CHARGE:  cpu time    4.2640: real time    4.2759
[...]
   -.450E+02 -.322E+00 -.135E+04   0.443E+02 0.102E+01 0.135E+04   0.510E+00 -.723E+00 0.148E+01   0.619E-01 0.165E-01 0.616E-01
   -.833E+00 -.823E+02 -.137E+04   0.209E+00 0.811E+02 0.137E+04   0.554E+00 0.112E+01 0.177E+01   0.585E-01 0.865E-02 0.889E-01
   0.502E+02 -.635E-01 -.142E+04   -.500E+02 0.619E-01 0.141E+04   -.272E+00 -.124E-01 0.161E+01   0.213E-01 0.106E-01 0.316E-01
   -.122E+03 -.386E+01 0.153E+04   0.121E+03 0.453E+01 -.154E+04   0.987E+00 -.721E+00 0.678E+00   -.368E-02 0.280E-01 -.302E-01
   -.351E+01 -.191E+01 -.265E+04   0.381E+01 0.170E+01 0.265E+04   -.299E+00 0.251E+00 0.164E+01   -.231E-01 -.340E-01 0.291E-01
   -.128E+02 0.745E+01 -.265E+04   0.117E+02 -.736E+01 0.265E+04   0.112E+01 -.114E+00 0.105E+01   0.256E-01 0.162E-01 0.492E-02
   0.414E+02 -.131E+02 -.268E+04   -.409E+02 0.128E+02 0.267E+04   -.451E+00 0.361E+00 0.229E+01   -.227E-01 -.351E-01 0.552E-01
   -.336E+02 -.267E-01 -.270E+04   0.335E+02 -.622E+00 0.270E+04   0.373E-01 0.625E+00 0.182E+01   0.506E-01 0.238E-01 0.928E-01
   0.116E+02 -.425E+02 -.272E+04   -.120E+02 0.423E+02 0.271E+04   0.352E+00 0.215E+00 0.209E+01   0.175E-01 -.110E-01 0.536E-01
   -.540E+01 0.459E+02 -.267E+04   0.497E+01 -.454E+02 0.266E+04   0.453E+00 -.338E+00 0.166E+01   -.181E-01 -.108E+00 0.821E-01
   -.350E+01 -.114E+01 -.268E+04   0.355E+01 0.132E+01 0.268E+04   -.485E-01 -.156E+00 0.161E+01   0.189E-01 -.211E-01 0.465E-01
   -.451E+02 -.325E+02 -.268E+04   0.450E+02 0.318E+02 0.268E+04   0.414E-01 0.713E+00 0.156E+01   0.314E-01 0.130E-02 0.342E-01
   -.428E+02 0.360E+01 -.266E+04   0.421E+02 -.318E+01 0.266E+04   0.697E+00 -.507E+00 0.151E+01   0.320E-01 0.559E-01 0.167E-01
   0.263E+01 -.383E+02 -.268E+04   -.227E+01 0.373E+02 0.268E+04   -.398E+00 0.110E+01 0.190E+01   0.251E-01 -.318E-01 0.102E-01
   0.612E+02 0.192E+02 -.268E+04   -.599E+02 -.188E+02 0.268E+04   -.130E+01 -.567E+00 0.217E+01   -.375E-01 0.518E-01 0.626E-01
   0.315E+02 0.221E+02 -.272E+04   -.307E+02 -.215E+02 0.272E+04   -.772E+00 -.650E+00 0.210E+01   -.328E-01 0.170E-01 0.780E-01
   0.971E+01 -.123E+02 -.265E+04   -.984E+01 0.129E+02 0.265E+04   0.150E+00 -.627E+00 0.105E+01   -.196E-01 0.667E-01 0.146E-01
   0.622E+01 0.240E+02 -.268E+04   -.606E+01 -.235E+02 0.267E+04   -.148E+00 -.442E+00 0.187E+01   -.303E-01 -.675E-01 0.222E-01
   0.518E+02 0.208E+01 -.142E+04   -.504E+02 -.120E+01 0.142E+04   -.123E+01 -.885E+00 0.124E+01   -.920E-01 -.331E-01 0.505E-01
   -.394E+01 0.120E+02 -.135E+04   0.363E+01 -.117E+02 0.135E+04   0.255E+00 -.302E+00 0.110E+01   0.112E-01 -.343E-01 0.716E-01
   0.821E+02 0.605E+02 0.270E+04   -.818E+02 -.606E+02 -.270E+04   -.299E+00 0.925E-01 -.262E+01   0.969E-02 -.140E-01 -.129E-01
   0.518E+02 -.338E+02 0.159E+04   -.524E+02 0.336E+02 -.160E+04   0.641E+00 0.148E+00 0.144E+01   0.282E-01 0.186E-01 -.112E-01
   -.130E+02 -.157E+02 -.135E+04   0.131E+02 0.153E+02 0.135E+04   -.787E-01 0.375E+00 0.184E+01   -.232E-01 -.523E-01 0.126E+00
   -.789E+02 0.857E+02 0.283E+04   0.796E+02 -.844E+02 -.283E+04   -.653E+00 -.134E+01 -.296E+01   -.639E-02 0.135E-02 -.430E-01
   -.147E+02 0.280E+02 0.149E+04   0.144E+02 -.279E+02 -.149E+04   0.306E+00 -.101E+00 -.307E+00   -.280E-01 -.351E-01 -.502E-01
   0.138E+02 0.955E+01 -.268E+04   -.136E+02 -.968E+01 0.268E+04   -.169E+00 0.121E+00 0.122E+01   -.686E-01 0.527E-02 0.398E-01
   0.138E+02 -.790E+02 0.502E+01   -.133E+02 0.782E+02 -.560E+01   -.470E+00 0.717E+00 0.629E+00   -.374E-01 -.115E-01 -.345E-01
   -.293E+02 0.103E+02 -.273E+04   0.287E+02 -.105E+02 0.273E+04   0.576E+00 0.182E+00 0.192E+01   0.266E-01 0.702E-01 0.652E-01
   0.218E+02 0.336E+02 0.963E+02   -.225E+02 -.342E+02 -.965E+02   0.775E+00 0.608E+00 0.239E+00   0.184E-01 0.103E-01 0.499E-01
   -.821E+02 0.240E+02 -.135E+04   0.812E+02 -.238E+02 0.135E+04   0.833E+00 -.262E+00 0.232E+01   0.685E-01 0.743E-01 0.769E-01
   0.494E+02 -.119E+02 -.139E+04   -.483E+02 0.125E+02 0.138E+04   -.103E+01 -.586E+00 0.135E+01   -.516E-01 -.166E-01 0.617E-01
   0.416E+02 -.779E+02 0.159E+04   -.402E+02 0.779E+02 -.159E+04   -.139E+01 -.334E-01 0.132E+01   0.572E-02 -.506E-01 -.738E-01
   0.375E+02 -.328E+02 0.159E+00   -.380E+02 0.327E+02 -.824E+00   0.535E+00 0.779E-01 0.692E+00   0.622E-01 0.422E-01 0.376E-01
   -.500E+02 -.549E+01 0.609E+01   0.504E+02 0.669E+01 -.671E+01   -.400E+00 -.130E+01 0.676E+00   -.223E-01 0.191E-01 -.643E-01
   0.525E+02 0.281E-01 0.259E+02   -.516E+02 0.126E+01 -.257E+02   -.900E+00 -.126E+01 -.211E+00   -.551E-01 -.541E-01 0.273E-01
   -.310E+02 -.606E+02 0.878E+02   0.300E+02 0.589E+02 -.893E+02   0.105E+01 0.167E+01 0.154E+01   0.716E-01 0.326E-01 0.245E-01
   0.157E+02 0.768E+02 0.139E+03   -.160E+02 -.759E+02 -.141E+03   0.394E+00 -.854E+00 0.158E+01   -.461E-03 0.846E-02 0.342E-01
   0.194E+02 0.731E+02 -.134E+04   -.190E+02 -.726E+02 0.134E+04   -.296E+00 -.358E+00 0.149E+01   -.450E-01 -.112E+00 0.859E-01
   -.108E+03 0.103E+01 0.274E+02   0.107E+03 -.116E+01 -.286E+02   0.923E+00 0.878E-01 0.126E+01   -.859E-02 0.340E-03 -.203E-01
   -.804E+00 0.746E+02 0.220E+04   0.198E+01 -.741E+02 -.220E+04   -.119E+01 -.473E+00 -.366E+01   -.215E-01 0.927E-02 -.933E-02
   -.189E+02 -.160E+02 0.222E+04   0.172E+02 0.143E+02 -.222E+04   0.175E+01 0.195E+01 -.303E+01   0.794E-02 -.144E-01 -.178E-01
   0.122E+03 0.274E+02 0.225E+04   -.120E+03 -.261E+02 -.224E+04   -.200E+01 -.134E+01 -.398E+01   0.215E-01 -.376E-02 -.172E-01
   0.427E+02 0.106E+03 0.112E+04   -.421E+02 -.106E+03 -.112E+04   -.592E+00 -.231E+00 -.651E+00   -.230E-02 0.603E-02 -.596E-02
   0.923E+01 -.401E+02 0.114E+04   -.908E+01 0.399E+02 -.114E+04   -.214E+00 0.158E+00 -.532E+00   0.379E-01 -.359E-01 -.611E-01
   -.212E+03 0.613E+01 0.225E+04   0.209E+03 -.636E+01 -.224E+04   0.271E+01 0.188E+00 -.344E+01   0.208E-02 0.354E-02 -.408E-01
   -.617E+02 0.687E+02 0.113E+04   0.615E+02 -.677E+02 -.113E+04   0.348E+00 -.107E+01 -.645E+00   -.387E-01 0.215E-02 -.212E-01
   -.571E+02 -.103E+02 0.332E+02   0.565E+02 0.102E+02 -.326E+02   0.615E+00 0.310E-01 -.672E+00   0.412E-01 0.148E-01 0.175E-01
   0.247E+02 0.702E+01 -.113E+04   -.247E+02 -.727E+01 0.113E+04   0.305E-02 0.133E+00 -.207E+00   -.177E-01 0.431E-01 0.479E-01
   -.290E+02 -.104E+03 0.220E+04   0.283E+02 0.102E+03 -.220E+04   0.696E+00 0.260E+01 -.314E+01   0.164E-01 -.144E-01 -.386E-01
   0.105E+03 -.140E+03 0.252E+04   -.104E+03 0.139E+03 -.252E+04   -.128E+01 0.106E+01 -.309E+01   -.277E-01 0.135E-01 -.341E-02
   0.201E+03 0.807E+02 0.252E+04   -.200E+03 -.795E+02 -.252E+04   -.116E+01 -.138E+01 -.299E+01   0.343E-01 0.284E-01 -.151E-01
   -.503E+02 -.584E+02 0.131E+04   0.501E+02 0.579E+02 -.131E+04   0.221E+00 0.627E+00 -.551E+00   0.623E-02 0.718E-02 -.413E-01
   -.999E+02 -.146E+01 0.402E+02   0.996E+02 0.121E+01 -.404E+02   0.251E+00 0.257E+00 0.118E+00   0.245E-01 0.290E-01 0.164E-02
   -.141E+01 -.464E+02 0.122E+04   0.164E+01 0.457E+02 -.122E+04   -.238E+00 0.768E+00 -.442E+00   -.288E-01 0.208E-01 -.429E-01
   0.524E+02 0.534E+01 -.125E+04   -.522E+02 -.537E+01 0.125E+04   -.254E+00 0.740E-01 0.364E+00   -.251E-01 -.248E-01 0.136E+00
   0.710E+02 0.479E+02 0.255E+04   -.703E+02 -.460E+02 -.254E+04   -.716E+00 -.188E+01 -.407E+01   0.138E-01 -.364E-01 -.338E-01
   -.586E+01 -.354E+02 0.127E+04   0.609E+01 0.357E+02 -.127E+04   -.233E+00 -.363E+00 -.409E+00   -.259E-01 -.376E-02 -.669E-01
   0.251E+02 -.451E+02 0.289E+02   -.246E+02 0.446E+02 -.286E+02   -.574E+00 0.596E+00 -.396E+00   0.430E-02 -.122E-01 0.336E-01
   0.801E+02 0.126E+02 0.316E+04   -.799E+02 -.121E+02 -.316E+04   -.183E+00 -.604E+00 -.434E+01   0.118E-02 0.472E-01 -.737E-02
   0.658E+02 0.760E+02 0.155E+04   -.664E+02 -.755E+02 -.155E+04   0.496E+00 -.560E+00 0.198E+00   0.471E-01 0.265E-02 -.654E-02
   0.941E+02 -.717E+02 0.147E+04   -.942E+02 0.716E+02 -.147E+04   0.911E-01 0.124E+00 -.493E+00   0.282E-01 -.275E-01 -.135E-01
   -.454E+02 -.366E+02 -.152E+04   0.449E+02 0.356E+02 0.152E+04   0.555E+00 0.107E+01 0.107E+01   0.498E-01 0.560E-01 0.119E+00
   0.161E+02 0.140E+03 0.310E+04   -.160E+02 -.141E+03 -.310E+04   -.971E-01 0.257E+00 -.348E+01   -.212E-01 0.618E-02 -.146E-01
   -.383E+02 -.590E+02 0.312E+04   0.373E+02 0.595E+02 -.312E+04   0.999E+00 -.472E+00 -.474E+01   -.535E-03 -.260E-01 -.574E-02
   0.123E+03 -.500E+02 0.242E+02   -.123E+03 0.493E+02 -.236E+02   -.626E-01 0.776E+00 -.611E+00   0.901E-02 0.921E-02 0.257E-01
   0.395E+02 0.114E+03 0.157E+04   -.392E+02 -.113E+03 -.157E+04   -.270E+00 -.700E+00 -.130E+01   -.366E-01 0.704E-02 -.177E-02
   -.131E+02 0.407E+02 -.196E+02   0.138E+02 -.409E+02 0.195E+02   -.603E+00 0.409E+00 0.237E-03   -.655E-01 -.447E-01 -.519E-01
   0.537E+02 0.713E+02 -.366E+02   -.531E+02 -.708E+02 0.366E+02   -.562E+00 -.599E+00 -.196E-01   -.650E-03 -.145E-01 0.195E-01
   -.149E+03 -.663E+01 0.134E+04   0.149E+03 0.653E+01 -.134E+04   0.767E+00 0.130E+00 -.918E+00   -.287E-01 0.209E-01 -.384E-01
   -.222E+02 -.117E+02 0.146E+04   0.226E+02 0.116E+02 -.146E+04   -.499E+00 0.264E+00 -.770E+00   0.921E-02 0.203E-01 -.611E-01
   -.204E+03 -.116E+03 0.285E+04   0.204E+03 0.114E+03 -.285E+04   0.537E+00 0.134E+01 -.256E+01   -.407E-01 0.255E-01 -.186E-01
   -.194E+02 -.126E+03 0.282E+04   0.174E+02 0.126E+03 -.282E+04   0.196E+01 0.240E+00 -.165E+01   0.483E-01 -.870E-02 -.213E-01
   0.631E+02 -.394E+02 0.140E+04   -.623E+02 0.392E+02 -.140E+04   -.852E+00 0.305E+00 -.585E+00   0.202E-01 0.250E-01 -.296E-01
   -.539E+02 0.160E+02 -.140E+04   0.536E+02 -.158E+02 0.140E+04   0.410E+00 -.346E+00 -.336E-01   0.680E-02 -.214E-01 0.350E-01
   -.596E+02 0.502E+02 0.281E+04   0.600E+02 -.496E+02 -.281E+04   -.293E+00 -.617E+00 -.126E+01   -.332E-01 0.201E-01 -.188E-01
   -.113E+02 0.608E+02 0.185E+02   0.118E+02 -.604E+02 -.183E+02   -.390E+00 -.426E+00 -.309E+00   -.709E-01 -.273E-01 0.317E-01
   0.402E+02 0.705E+01 0.771E+01   -.399E+02 -.678E+01 -.756E+01   -.349E+00 -.310E+00 -.294E+00   0.353E-02 -.290E-01 -.116E-01
   0.715E+00 -.206E+00 -.312E+03   -.775E+00 0.281E+00 0.313E+03   0.711E-01 -.383E-01 -.132E+01   0.124E-02 0.238E-02 0.715E-03
 -----------------------------------------------------------------------------------------------
   -.942E+00 0.877E+00 0.294E+01   -.777E-13 0.384E-12 -.284E-11   0.941E+00 -.829E+00 -.414E+01   -.304E-04 -.315E-01 0.123E+01
 
 
 POSITION                                       TOTAL-FORCE (eV/Angst)
 -----------------------------------------------------------------------------------
     13.58805      8.46073      6.92243         0.004575     -0.004807      0.007086
      5.27929      8.44522      6.93444         0.007526     -0.003113      0.007957
      3.86685      5.98294      6.89254         0.003422     -0.000657      0.002335
      2.39617      3.60518      7.01478        -0.004090      0.003104     -0.009650
      3.85049      1.03800      7.00619        -0.002644     -0.003861     -0.002494
      5.27967      3.58006      6.99983         0.004542     -0.002081     -0.016726
     13.51950      6.69208      2.75694        -0.022157     -0.022603      0.011272
     15.09399      9.25102      9.16590        -0.017680     -0.001079      0.001788
      3.79821      4.39799      9.26361         0.009457     -0.010264     -0.015492
      6.71704      9.21970      9.17456         0.008677      0.003331      0.005700
     12.26957      4.36195      9.26052         0.005072     -0.001297      0.002154
      9.47917      9.19884      9.20639         0.017158      0.002503      0.001445
     10.86625      1.98420      9.14198        -0.000120     -0.010625      0.001798
      2.46409      1.95203      9.24746         0.005208      0.005584     -0.002231
     12.26323      9.20735      9.19314        -0.006802     -0.007799      0.002131
     13.66190      6.85374      9.22437        -0.000169     -0.004573     -0.010200
      5.28428      1.87557      9.23571        -0.006840      0.004618     -0.011514
      8.16474      6.85351      9.18367         0.000550      0.000878      0.003098
      9.54470      4.42970      9.22813        -0.001579      0.008369     -0.008567
      5.25437      6.85416      9.23685        -0.007710      0.029055     -0.002048
      8.09873      1.97082      9.17826        -0.001998      0.016945     -0.008807
      8.18394      3.65490      6.98777         0.001908     -0.004945      0.000903
      6.64530      1.18677      6.96019         0.001872     -0.010321     -0.005178
      6.78185      1.16816      1.10976        -0.018186      0.004714      0.001164
      3.74327      4.26289      2.71491         0.014706      0.004283      0.006725
      1.08047      1.10854      6.94886         0.000055     -0.003183      0.007149
      1.01575      1.28649      0.81183         0.016312     -0.007748      0.008478
      6.67142      9.31568      2.85544        -0.000363      0.006396      0.003076
      6.72751      4.37310      9.25848        -0.038088     -0.002142      0.007094
      8.14285      5.24496      4.86976        -0.030925      0.019897      0.010077
     10.87076      6.81179      9.25295         0.002371     -0.005094      0.000296
     14.99686      7.68362      4.79411         0.016205     -0.022533      0.015158
     12.24746      6.05022      6.99722        -0.002428      0.002969     -0.005687
      6.72316      6.02937      7.00090         0.001240     -0.006842      0.000952
      8.20780      6.89173      2.69128        -0.017213     -0.010833     -0.018085
      3.77766      2.69345      4.90572         0.025970      0.047748      0.008248
     10.86552      5.33036      4.88657        -0.000693     -0.010817     -0.006859
      6.80891      7.69639      4.91949         0.001728     -0.029771      0.026136
      5.20720      0.16029      4.85410         0.011562     -0.009652      0.000009
      7.96508      0.45571      4.72390         0.004617      0.005896     -0.006053
      9.48166      1.17891      6.88775         0.001527     -0.010014      0.004749
     12.19222      2.77766      4.87496         0.011808      0.009440     -0.024238
     13.78001      8.57392      1.07376        -0.001266     -0.012246     -0.014854
      5.17612      8.26819      1.02395         0.019514      0.016179     -0.004951
      4.07688      6.12594      0.96722         0.014004      0.002583      0.012514
      8.23477      2.19285      2.91186        -0.003989      0.004676      0.007834
      9.46232      9.17873      2.88867         0.000543      0.003174     -0.011080
     13.23829      3.61532      0.98546         0.006511     -0.003949     -0.001032
     10.87798      2.06279      2.87872         0.001162     -0.021787      0.011825
     13.60649      5.17210      4.92826         0.020069      0.002718      0.011459
      9.49522      6.01499      7.10351         0.014229     -0.003521     -0.003080
      3.91652      1.06390      1.10530         0.012523     -0.003730      0.036576
      9.69052      5.79723      1.02825        -0.008067     -0.011464     -0.004716
      5.55996      3.72993      1.09992        -0.006099     -0.037527     -0.006544
     12.22782      8.97667      2.86865        -0.013890     -0.008064      0.010066
     12.22062      7.58099      4.89646        -0.013257      0.005395     -0.010951
      9.50033      4.35926      2.89266        -0.018602      0.005176      0.009933
      8.09965      8.43264      7.03043        -0.003040     -0.004749      0.011571
      8.20297      8.78072      0.90411         0.009145      0.016801      0.001702
     10.87946      6.90186      2.86164        -0.021796      0.004166     -0.002688
      2.55562      0.21789      4.96708        -0.012160      0.025264      0.003760
      8.12929      3.65853      0.88294        -0.000839      0.008278     -0.008500
      5.33633      2.04607      3.00455         0.017610     -0.009705     -0.007236
      5.35867      6.70303      3.02467         0.014457      0.006735     -0.004059
     10.82023      8.33954      7.01370         0.004084     -0.001996     -0.005052
      9.50522      1.22179      0.88788         0.006577      0.006839     -0.006158
     10.84088      8.41789      0.89812        -0.019105      0.014439     -0.009197
      5.29878      5.08233      4.87221        -0.001263     -0.007219      0.034438
     15.21969      9.46320      2.91158         0.016713     -0.000479      0.018876
      9.54798      2.83243      4.93973         0.021003     -0.009880     -0.043061
      6.74099      2.86414      4.91726        -0.012403      0.021959      0.028291
     12.12718      4.37157      2.88927         0.013191     -0.000138     -0.000689
      2.50652      1.86558      2.87455        -0.009757      0.018416      0.001435
     12.02738      5.81407      0.92547        -0.018680     -0.005192      0.006929
      6.52756      5.95530      1.01982        -0.008051     -0.039347     -0.001302
      6.84854      4.37406      2.90086        -0.027675     -0.013686     -0.005230
     10.85525      3.69438      7.03678         0.005589      0.000891     -0.010161
     10.75754      3.55271      0.95995        -0.000247      0.004984     -0.007976
     10.94499      0.41654      4.90182         0.003316      0.010017     -0.039833
      9.50574      7.61774      4.99769        -0.011206      0.008141      0.008435
      5.29478      5.17296     10.07987         0.012772      0.038769     -0.000446
 -----------------------------------------------------------------------------------
    total drift:                               -0.001259      0.016857      0.030835


--------------------------------------------------------------------------------------------------------



  FREE ENERGIE OF THE ION-ELECTRON SYSTEM (eV)
  ---------------------------------------------------
  free  energy   TOTEN  =      -507.97695754 eV

  energy  without entropy=     -507.97708136  energy(sigma->0) =     -507.97699881
 
 d Force = 0.1044765E-02[ 0.764E-03, 0.133E-02]  d Energy = 0.1072234E-02-0.275E-04
 d Force =-0.1337144E+02[-0.134E+02,-0.134E+02]  d Ewald  =-0.1337144E+02 0.144E-05


--------------------------------------------------------------------------------------------------------


    POTLOK:  cpu time    0.4380: real time    0.4464


--------------------------------------------------------------------------------------------------------


 Conjugate gradient step on ions:
 trial-energy change:   -0.001072  1 .order   -0.001045   -0.001326   -0.000764
  (g-gl).g = 0.429E-03      g.g   = 0.916E-03  gl.gl    = 0.217E-02
 g(Force)  = 0.916E-03   g(Stress)= 0.000E+00 ortho     =-0.517E-04
 gamma     =   0.19769
 trial     =   1.46361
 opt step  =   3.45184  (harmonic =   3.45184) maximal distance =0.01444091
 next E    =  -507.977449   (d E  =  -0.00156)


--------------------------------------------------------------------------------------------------------


  
 reached required accuracy - stopping structural energy minimisation
     LOOP+:  cpu time  547.2612: real time  549.9328
    4ORBIT:  cpu time    0.0000: real time    0.0000

 total amount of memory used by VASP MPI-rank0   252732. kBytes
=======================================================================

   base      :      30000. kBytes
   nonlr-proj:      36143. kBytes
   fftplans  :      18297. kBytes
   grid      :      55120. kBytes
   one-center:        653. kBytes
   wavefun   :     112519. kBytes
 
  
  
 General timing and accounting informations for this job:
 ========================================================
  
                  Total CPU time used (sec):    16150.301
                            User time (sec):    15717.686
                          System time (sec):      432.614
                         Elapsed time (sec):    16218.788
  
                   Maximum memory used (kb):      451208.
                   Average memory used (kb):           0.
  
                          Minor page faults:      4076345
                          Major page faults:          266
                 Voluntary context switches:        10368
