 vasp.5.4.4.18Apr17-6-g9f103f2a35 (build Nov 30 2020 22:55:02) complex          
  
 executed on             LinuxIFC date 2023.09.10  22:33:24
 running on   40 total cores
 distrk:  each k-point on   40 cores,    1 groups
 distr:  one band on NCORES_PER_BAND=   1 cores,   40 groups


--------------------------------------------------------------------------------------------------------


 INCAR:
 POTCAR:    PAW_PBE Ni 02Aug2007                  
 POTCAR:    PAW_PBE Pt 04Feb2005                  
 POTCAR:    PAW_PBE H 15Jun2001                   

 ----------------------------------------------------------------------------- 
|                                                                             |
|           W    W    AA    RRRRR   N    N  II  N    N   GGGG   !!!           |
|           W    W   A  A   R    R  NN   N  II  NN   N  G    G  !!!           |
|           W    W  A    A  R    R  N N  N  II  N N  N  G       !!!           |
|           W WW W  AAAAAA  RRRRR   N  N N  II  N  N N  G  GGG   !            |
|           WW  WW  A    A  R   R   N   NN  II  N   NN  G    G                |
|           W    W  A    A  R    R  N    N  II  N    N   GGGG   !!!           |
|                                                                             |
|      For optimal performance we recommend to set                            |
|        NCORE= 4 - approx SQRT( number of cores)                             |
|      NCORE specifies how many cores store one orbital (NPAR=cpu/NCORE).     |
|      This setting can  greatly improve the performance of VASP for DFT.     |
|      The default,   NCORE=1            might be grossly inefficient         |
|      on modern multi-core architectures or massively parallel machines.     |
|      Do your own testing !!!!                                               |
|      Unfortunately you need to use the default for GW and RPA calculations. |
|      (for HF NCORE is supported but not extensively tested yet)             |
|                                                                             |
 ----------------------------------------------------------------------------- 

 POTCAR:    PAW_PBE Ni 02Aug2007                  
   VRHFIN =Ni:                                                                  
   LEXCH  = PE                                                                  
   EATOM  =  1077.6739 eV,   79.2068 Ry                                         
                                                                                
   TITEL  = PAW_PBE Ni 02Aug2007                                                
   LULTRA =        F    use ultrasoft PP ?                                      
   IUNSCR =        1    unscreen: 0-lin 1-nonlin 2-no                           
   RPACOR =    2.000    partial core radius                                     
   POMASS =   58.690; ZVAL   =   10.000    mass and valenz                      
   RCORE  =    2.300    outmost cutoff radius                                   
   RWIGS  =    2.430; RWIGS  =    1.286    wigner-seitz radius (au A)           
   ENMAX  =  269.532; ENMIN  =  202.149 eV                                      
   RCLOC  =    1.201    cutoff for local pot                                    
   LCOR   =        T    correct aug charges                                     
   LPAW   =        T    paw PP                                                  
   EAUG   =  544.565                                                            
   DEXC   =    0.000                                                            
   RMAX   =    2.357    core radius for proj-oper                               
   RAUG   =    1.300    factor for augmentation sphere                          
   RDEP   =    2.390    radius for radial grids                                 
   RDEPT  =    1.838    core radius for aug-charge                              
                                                                                
   Atomic configuration                                                         
    9 entries                                                                   
     n  l   j            E        occ.                                          
     1  0  0.50     -8206.4253   2.0000                                         
     2  0  0.50      -976.1748   2.0000                                         
     2  1  1.50      -839.0571   6.0000                                         
     3  0  0.50      -105.9991   2.0000                                         
     3  1  1.50       -66.4603   6.0000                                         
     3  2  2.50        -4.6458   9.0000                                         
     4  0  0.50        -4.4926   1.0000                                         
     4  1  1.50        -4.0817   0.0000                                         
     4  3  2.50        -1.3606   0.0000                                         
   Description                                                                  
     l       E           TYP  RCUT    TYP  RCUT                                 
     2     -4.6457903     23  2.300                                             
     2     -6.0063729     23  2.300                                             
     0     -4.4925590     23  2.300                                             
     0      5.0102601     23  2.300                                             
     1     -2.7211652     23  2.300                                             
     1     16.5183231     23  2.300                                             
  local pseudopotential read in
  partial core-charges read in
  partial kinetic energy density read in
  atomic valenz-charges read in
  non local Contribution for L=           2  read in
    real space projection operators read in
  non local Contribution for L=           2  read in
    real space projection operators read in
  non local Contribution for L=           0  read in
    real space projection operators read in
  non local Contribution for L=           0  read in
    real space projection operators read in
  non local Contribution for L=           1  read in
    real space projection operators read in
  non local Contribution for L=           1  read in
    real space projection operators read in
    PAW grid and wavefunctions read in
 
   number of l-projection  operators is LMAX  =           6
   number of lm-projection operators is LMMAX =          18
 
 POTCAR:    PAW_PBE Pt 04Feb2005                  
   VRHFIN =Pt: s1d9                                                             
   LEXCH  = PE                                                                  
   EATOM  =   729.1176 eV,   53.5886 Ry                                         
                                                                                
   TITEL  = PAW_PBE Pt 04Feb2005                                                
   LULTRA =        F    use ultrasoft PP ?                                      
   IUNSCR =        1    unscreen: 0-lin 1-nonlin 2-no                           
   RPACOR =    2.330    partial core radius                                     
   POMASS =  195.080; ZVAL   =   10.000    mass and valenz                      
   RCORE  =    2.600    outmost cutoff radius                                   
   RWIGS  =    2.750; RWIGS  =    1.455    wigner-seitz radius (au A)           
   ENMAX  =  230.283; ENMIN  =  172.712 eV                                      
   ICORE  =        3    local potential                                         
   LCOR   =        T    correct aug charges                                     
   LPAW   =        T    paw PP                                                  
   EAUG   =  358.966                                                            
   DEXC   =    0.000                                                            
   RMAX   =    2.658    core radius for proj-oper                               
   RAUG   =    1.300    factor for augmentation sphere                          
   RDEP   =    2.761    radius for radial grids                                 
   RDEPT  =    2.203    core radius for aug-charge                              
                                                                                
   Atomic configuration                                                         
   16 entries                                                                   
     n  l   j            E        occ.                                          
     1  0  0.50    -78401.1885   2.0000                                         
     2  0  0.50    -13770.7750   2.0000                                         
     2  1  1.50    -11931.0468   6.0000                                         
     3  0  0.50     -3234.7234   2.0000                                         
     3  1  1.50     -2699.2216   6.0000                                         
     3  2  2.50     -2119.5714  10.0000                                         
     4  0  0.50      -695.1528   2.0000                                         
     4  1  1.50      -519.6034   6.0000                                         
     4  2  2.50      -306.6786  10.0000                                         
     4  3  3.50       -70.1041  14.0000                                         
     5  0  0.50      -101.7747   2.0000                                         
     5  1  1.50       -55.9873   6.0000                                         
     5  2  2.50        -6.1423   9.0000                                         
     6  0  0.50        -5.6573   1.0000                                         
     6  1  1.50        -6.8029   0.0000                                         
     5  3  2.50        -1.3606   0.0000                                         
   Description                                                                  
     l       E           TYP  RCUT    TYP  RCUT                                 
     2     -6.1423404     23  2.500                                             
     2     -7.5029230     23  2.500                                             
     0     -5.6573207     23  2.500                                             
     0      0.7416693     23  2.500                                             
     1     -2.7211652     23  2.600                                             
     1     20.4087390     23  2.600                                             
     3     -1.3605826     23  2.500                                             
  local pseudopotential read in
  partial core-charges read in
  partial kinetic energy density read in
  atomic valenz-charges read in
  non local Contribution for L=           2  read in
    real space projection operators read in
  non local Contribution for L=           2  read in
    real space projection operators read in
  non local Contribution for L=           0  read in
    real space projection operators read in
  non local Contribution for L=           0  read in
    real space projection operators read in
  non local Contribution for L=           1  read in
    real space projection operators read in
  non local Contribution for L=           1  read in
    real space projection operators read in
    PAW grid and wavefunctions read in
 
   number of l-projection  operators is LMAX  =           6
   number of lm-projection operators is LMMAX =          18
 
 POTCAR:    PAW_PBE H 15Jun2001                   
   VRHFIN =H: ultrasoft test                                                    
   LEXCH  = PE                                                                  
   EATOM  =    12.4884 eV,    0.9179 Ry                                         
                                                                                
   TITEL  = PAW_PBE H 15Jun2001                                                 
   LULTRA =        F    use ultrasoft PP ?                                      
   IUNSCR =        0    unscreen: 0-lin 1-nonlin 2-no                           
   RPACOR =    0.000    partial core radius                                     
   POMASS =    1.000; ZVAL   =    1.000    mass and valenz                      
   RCORE  =    1.100    outmost cutoff radius                                   
   RWIGS  =    0.700; RWIGS  =    0.370    wigner-seitz radius (au A)           
   ENMAX  =  250.000; ENMIN  =  200.000 eV                                      
   RCLOC  =    0.701    cutoff for local pot                                    
   LCOR   =        T    correct aug charges                                     
   LPAW   =        T    paw PP                                                  
   EAUG   =  400.000                                                            
   RMAX   =    1.123    core radius for proj-oper                               
   RAUG   =    1.200    factor for augmentation sphere                          
   RDEP   =    1.112    radius for radial grids                                 
   RDEPT  =    0.926    core radius for aug-charge                              
                                                                                
   Atomic configuration                                                         
    2 entries                                                                   
     n  l   j            E        occ.                                          
     1  0  0.50        -6.4927   1.0000                                         
     2  1  0.50        -3.4015   0.0000                                         
   Description                                                                  
     l       E           TYP  RCUT    TYP  RCUT                                 
     0     -6.4927494     23  1.100                                             
     0      6.8029130     23  1.100                                             
     1     -4.0817478     23  1.100                                             
  local pseudopotential read in
  atomic valenz-charges read in
  non local Contribution for L=           0  read in
    real space projection operators read in
  non local Contribution for L=           0  read in
    real space projection operators read in
  non local Contribution for L=           1  read in
    real space projection operators read in
    PAW grid and wavefunctions read in
 
   number of l-projection  operators is LMAX  =           3
   number of lm-projection operators is LMMAX =           5
 
 Optimization of the real space projectors (new method)

 maximal supplied QI-value         = 16.25
 optimisation between [QCUT,QGAM] = [ 11.86, 23.89] = [ 39.41,159.82] Ry 
 Optimized for a Real-space Cutoff    1.33 Angstroem

   l    n(q)    QCUT    max X(q) W(low)/X(q) W(high)/X(q)  e(spline) 
   2      9    11.864    60.317    0.21E-03    0.51E-03    0.25E-06
   2      9    11.864    55.921    0.21E-03    0.51E-03    0.26E-06
   0      9    11.864    51.690    0.22E-03    0.30E-04    0.17E-06
   0      9    11.864    30.015    0.20E-03    0.28E-04    0.15E-06
   1      9    11.864    18.849    0.76E-04    0.33E-03    0.17E-06
   1      9    11.864    14.624    0.60E-04    0.28E-03    0.15E-06
 Optimization of the real space projectors (new method)

 maximal supplied QI-value         = 14.36
 optimisation between [QCUT,QGAM] = [ 11.92, 23.98] = [ 39.79,161.09] Ry 
 Optimized for a Real-space Cutoff    1.49 Angstroem

   l    n(q)    QCUT    max X(q) W(low)/X(q) W(high)/X(q)  e(spline) 
   2     10    11.920    66.195    0.79E-04    0.18E-03    0.24E-06
   2     10    11.920    64.643    0.81E-04    0.19E-03    0.24E-06
   0     11    11.920    95.520    0.28E-04    0.54E-04    0.18E-06
   0     11    11.920    63.403    0.27E-04    0.52E-04    0.17E-06
   1     10    11.920    19.961    0.18E-04    0.11E-03    0.23E-06
   1     10    11.920    13.289    0.25E-04    0.87E-04    0.19E-06
 Optimization of the real space projectors (new method)

 maximal supplied QI-value         = 34.20
 optimisation between [QCUT,QGAM] = [ 11.97, 23.94] = [ 40.13,160.53] Ry 
 Optimized for a Real-space Cutoff    1.18 Angstroem

   l    n(q)    QCUT    max X(q) W(low)/X(q) W(high)/X(q)  e(spline) 
   0      8    11.971    19.460    0.15E-03    0.31E-03    0.25E-06
   0      8    11.971    12.209    0.13E-03    0.29E-03    0.25E-06
   1      8    11.971     4.655    0.22E-03    0.24E-03    0.21E-06
  PAW_PBE Ni 02Aug2007                  :
 energy of atom  1       EATOM=-1077.6739
 kinetic energy error for atom=    0.0027 (will be added to EATOM!!)
  PAW_PBE Pt 04Feb2005                  :
 energy of atom  2       EATOM= -729.1176
 kinetic energy error for atom=    0.0021 (will be added to EATOM!!)
  PAW_PBE H 15Jun2001                   :
 energy of atom  3       EATOM=  -12.4884
 kinetic energy error for atom=    0.0008 (will be added to EATOM!!)
 
 
 POSCAR: PtM\(2)                                 
  positions in cartesian coordinates
  No initial velocities read in
 exchange correlation table for  LEXCH =        8
   RHO(1)=    0.500       N(1)  =     2000
   RHO(2)=  100.500       N(2)  =     4000
 


--------------------------------------------------------------------------------------------------------


 ion  position               nearest neighbor table
   1  0.785  0.869  0.311-  55 2.43  20 2.43  39 2.43  73 2.62  72 2.62  65 2.63  40 2.64  57 2.64
                            29 2.64   3 2.64  56 2.65   2 2.65
   2  0.036  0.869  0.311-  49 2.42  52 2.42  39 2.43  77 2.61  67 2.63  65 2.63  23 2.64  33 2.64
                             3 2.64  56 2.64   1 2.65  41 2.65
   3  0.036  0.619  0.311-  60 2.42  39 2.42  12 2.42  77 2.61  66 2.62  73 2.62  15 2.64   9 2.64
                             2 2.64   1 2.64  40 2.64  41 2.65
   4  0.787  0.867  0.051-  21 2.44  62 2.44  19 2.45  42 2.64   5 2.64   6 2.64  59 2.64  58 2.65
                            30 2.66
   5  0.037  0.868  0.051-  54 2.44  35 2.44  62 2.45  24 2.64  43 2.64   4 2.64   6 2.64  58 2.65
                            34 2.65
   6  0.037  0.617  0.051-  32 2.44  54 2.44  21 2.45  18 2.63  43 2.63  10 2.63  42 2.64   4 2.64
                             5 2.64
   7  0.620  0.202  0.138-  28 2.44  30 2.44  58 2.45  55 2.45  64 2.46  63 2.46  19 2.64  62 2.64
                            37 2.64  45 2.64  22 2.64  11 2.64
   8  0.370  0.952  0.138-  16 2.44  24 2.44  59 2.45  53 2.45  26 2.45  50 2.47  38 2.64  37 2.64
                            35 2.64  25 2.64  19 2.64  44 2.64
   9  0.036  0.369  0.311-  61 2.42  12 2.42  46 2.43  68 2.61  66 2.62  71 2.63  15 2.63  13 2.64
                            33 2.64   3 2.64  40 2.64  47 2.66
  10  0.037  0.368  0.051-  38 2.44  32 2.44  31 2.45  18 2.63  16 2.63   6 2.63  34 2.63  42 2.64
                            48 2.64
  11  0.870  0.202  0.138-  48 2.44  58 2.44  34 2.45  49 2.45  61 2.45  63 2.46  35 2.64  31 2.64
                            22 2.64  38 2.64  62 2.64   7 2.64
  12  0.953  0.535  0.225-   9 2.42   3 2.42  40 2.43  32 2.44  21 2.45  31 2.45  46 2.64  39 2.64
                            61 2.64  20 2.64  60 2.65  51 2.66
  13  0.285  0.119  0.311-  46 2.42  26 2.42  53 2.43  69 2.61  74 2.62  71 2.63  15 2.63  29 2.64
                            57 2.64   9 2.64  33 2.64  23 2.66
  14  0.535  0.619  0.313-  36 2.45  50 2.45  51 2.46  41 2.62  23 2.62  27 2.62  47 2.62  57 2.64
                            40 2.64  80 2.67  76 2.71  75 2.71
  15  0.285  0.369  0.311-  60 2.42  64 2.43  46 2.43  74 2.62  66 2.63  13 2.63   9 2.63  29 2.64
                             3 2.64  79 2.65  27 2.65  41 2.65
  16  0.287  0.119  0.051-   8 2.44  37 2.44  38 2.45  30 2.63  10 2.63  34 2.63  18 2.64  59 2.64
                            24 2.64
  17  0.536  0.618  0.051-  22 2.44  25 2.44  44 2.45  28 2.64  43 2.64  24 2.64  48 2.64  59 2.65
                            42 2.65
  18  0.286  0.368  0.051-  37 2.44  45 2.44  32 2.45   6 2.63  43 2.63  10 2.63  16 2.64  30 2.64
                            28 2.64
  19  0.620  0.952  0.137-  59 2.44  30 2.44   4 2.45  20 2.45  53 2.45  55 2.45   7 2.64  62 2.64
                             8 2.64  21 2.64  25 2.64  37 2.64
  20  0.702  0.785  0.225-  40 2.43   1 2.43  57 2.43  19 2.45  25 2.45  21 2.45  53 2.64  50 2.64
                            51 2.64  55 2.64  12 2.64  39 2.64
  21  0.870  0.701  0.138-   4 2.44  42 2.44  12 2.45   6 2.45  39 2.45  20 2.45  31 2.64  32 2.64
                            54 2.64  25 2.64  19 2.64  62 2.64
  22  0.620  0.452  0.138-  17 2.44  28 2.44  48 2.45  63 2.45  51 2.46  36 2.47  25 2.64  11 2.64
                            31 2.64   7 2.64  45 2.64  44 2.64
  23  0.287  0.867  0.312-  52 2.43  50 2.43  26 2.45  69 2.61  41 2.62  14 2.62  67 2.62   2 2.64
                            57 2.64  13 2.66  33 2.66  75 2.68
  24  0.287  0.868  0.051-  44 2.44   8 2.44  35 2.45   5 2.64  34 2.64  17 2.64  59 2.64  16 2.64
                            43 2.65
  25  0.619  0.702  0.137-  59 2.44  17 2.44  42 2.45  20 2.45  51 2.46  50 2.46  22 2.64  31 2.64
                             8 2.64  44 2.64  21 2.64  19 2.64
  26  0.203  0.035  0.225-  13 2.42  33 2.43  23 2.45  35 2.45  38 2.45   8 2.45  46 2.63  52 2.64
                            49 2.64  53 2.64  50 2.64  61 2.65
  27  0.535  0.371  0.312-  36 2.43  63 2.45  64 2.45  78 2.61  41 2.62  47 2.62  14 2.62  56 2.65
                            15 2.65  29 2.65  79 2.67  76 2.70
  28  0.536  0.368  0.051-   7 2.44  22 2.44  45 2.45  43 2.64  30 2.64  17 2.64  18 2.64  58 2.64
                            48 2.65
  29  0.535  0.119  0.310-  64 2.42  53 2.43  55 2.43  78 2.62  72 2.62  74 2.63  15 2.64  13 2.64
                            56 2.64  57 2.64   1 2.64  27 2.65
  30  0.536  0.119  0.051-  19 2.44   7 2.44  37 2.44  16 2.63  18 2.64  28 2.64  59 2.64  58 2.65
                             4 2.66
  31  0.870  0.452  0.138-  42 2.44  48 2.44  10 2.45  61 2.45  12 2.45  51 2.47  21 2.64  32 2.64
                            11 2.64  38 2.64  25 2.64  22 2.64
  32  0.119  0.452  0.138-   6 2.44  10 2.44  46 2.44  12 2.44  18 2.45  60 2.46  21 2.64  38 2.64
                            31 2.64  37 2.64  54 2.64  45 2.64
  33  0.035  0.119  0.311-  49 2.42  61 2.42  26 2.43  71 2.62  67 2.62  70 2.63   2 2.64  56 2.64
                             9 2.64  13 2.64  23 2.66  47 2.66
  34  0.037  0.118  0.051-  35 2.44  38 2.44  11 2.45  16 2.63  10 2.63  24 2.64  48 2.64  58 2.64
                             5 2.65
  35  0.119  0.952  0.138-  34 2.44   5 2.44  24 2.45  26 2.45  49 2.45  52 2.46  11 2.64  44 2.64
                            38 2.64  62 2.64   8 2.64  54 2.64
  36  0.453  0.536  0.226-  27 2.43  41 2.43  14 2.45  44 2.46  22 2.47  45 2.47  51 2.62  50 2.62
                            52 2.63  63 2.63  60 2.64  64 2.64
  37  0.369  0.202  0.138-  53 2.44  18 2.44  16 2.44  30 2.44  46 2.45  64 2.46  45 2.64  38 2.64
                            32 2.64   7 2.64   8 2.64  19 2.64
  38  0.120  0.202  0.138-  46 2.43  10 2.44  34 2.44  16 2.45  26 2.45  61 2.46  32 2.64  37 2.64
                             8 2.64  11 2.64  31 2.64  35 2.64
  39  0.952  0.786  0.225-   3 2.42   2 2.43   1 2.43  62 2.45  54 2.45  21 2.45  55 2.64  12 2.64
                            49 2.64  20 2.64  60 2.64  52 2.64
  40  0.785  0.619  0.311-  51 2.42  20 2.43  12 2.43  68 2.62  73 2.63  47 2.64   1 2.64  57 2.64
                             9 2.64  14 2.64   3 2.64  80 2.65
  41  0.287  0.619  0.312-  36 2.43  52 2.44  60 2.45  27 2.62  23 2.62  77 2.62  14 2.62   2 2.65
                            15 2.65   3 2.65  79 2.66  75 2.70
  42  0.787  0.618  0.051-  31 2.44  21 2.44  25 2.45  48 2.63  10 2.64   4 2.64   6 2.64  59 2.65
                            17 2.65
  43  0.287  0.617  0.051-  45 2.44  44 2.44  54 2.45   6 2.63  18 2.63  28 2.64   5 2.64  17 2.64
                            24 2.65
  44  0.369  0.702  0.138-  24 2.44  43 2.44  17 2.45  52 2.45  50 2.46  36 2.46  54 2.64  35 2.64
                            45 2.64  25 2.64   8 2.64  22 2.64
  45  0.370  0.452  0.138-  43 2.44  18 2.44  64 2.45  28 2.45  60 2.45  36 2.47  37 2.64  44 2.64
                             7 2.64  32 2.64  54 2.64  22 2.64
  46  0.202  0.285  0.225-  13 2.42   9 2.43  15 2.43  38 2.43  32 2.44  37 2.45  26 2.63  61 2.63
                            53 2.64  12 2.64  64 2.66  60 2.66
  47  0.783  0.370  0.312-  51 2.43  63 2.43  61 2.45  68 2.61  27 2.62  70 2.62  14 2.62  56 2.64
                            40 2.64   9 2.66  33 2.66  76 2.69
  48  0.787  0.368  0.051-  11 2.44  31 2.44  22 2.45  42 2.63  10 2.64  34 2.64  58 2.64  17 2.64
                            28 2.65
  49  0.952  0.036  0.225-  33 2.42   2 2.42  56 2.43  11 2.45  35 2.45  62 2.45  61 2.64  26 2.64
                            39 2.64  55 2.64  63 2.65  52 2.65
  50  0.453  0.784  0.225-  57 2.42  23 2.43  14 2.45  44 2.46  25 2.46   8 2.47  36 2.62  51 2.62
                            52 2.63  20 2.64  26 2.64  53 2.65
  51  0.701  0.536  0.225-  40 2.42  47 2.43  22 2.46  14 2.46  25 2.46  31 2.47  36 2.62  50 2.62
                            63 2.63  20 2.64  61 2.64  12 2.66
  52  0.203  0.785  0.225-   2 2.42  23 2.43  41 2.44  44 2.45  54 2.46  35 2.46  50 2.63  60 2.63
                            36 2.63  26 2.64  39 2.64  49 2.65
  53  0.452  0.036  0.225-  29 2.43  13 2.43  57 2.43  37 2.44   8 2.45  19 2.45  46 2.64  55 2.64
                            20 2.64  26 2.64  64 2.65  50 2.65
  54  0.119  0.702  0.138-   5 2.44   6 2.44  43 2.45  60 2.45  39 2.45  52 2.46  44 2.64  21 2.64
                            32 2.64  62 2.64  45 2.64  35 2.64
  55  0.702  0.035  0.225-   1 2.43  56 2.43  29 2.43   7 2.45  62 2.45  19 2.45  53 2.64  39 2.64
                            49 2.64  20 2.64  64 2.64  63 2.64
  56  0.785  0.119  0.311-  63 2.42  49 2.43  55 2.43  78 2.62  65 2.63  70 2.63  47 2.64  33 2.64
                            29 2.64   2 2.64   1 2.65  27 2.65
  57  0.535  0.869  0.311-  50 2.42  20 2.43  53 2.43  69 2.62  72 2.63  23 2.64  13 2.64   1 2.64
                            40 2.64  14 2.64  29 2.64  80 2.65
  58  0.787  0.118  0.051-  62 2.44  11 2.44   7 2.45  48 2.64  28 2.64  34 2.64   5 2.65   4 2.65
                            30 2.65
  59  0.537  0.868  0.051-  25 2.44  19 2.44   8 2.45  24 2.64  30 2.64  16 2.64   4 2.64  17 2.65
                            42 2.65
  60  0.203  0.536  0.225-   3 2.42  15 2.42  41 2.45  54 2.45  45 2.45  32 2.46  52 2.63  64 2.63
                            36 2.64  39 2.64  12 2.65  46 2.66
  61  0.952  0.286  0.225-   9 2.42  33 2.42  31 2.45  11 2.45  47 2.45  38 2.46  46 2.63  63 2.64
                            49 2.64  12 2.64  51 2.64  26 2.65
  62  0.869  0.952  0.138-  58 2.44   4 2.44   5 2.45  39 2.45  49 2.45  55 2.45   7 2.64  19 2.64
                            35 2.64  54 2.64  11 2.64  21 2.64
  63  0.702  0.286  0.225-  56 2.42  47 2.43  27 2.45  22 2.45   7 2.46  11 2.46  64 2.63  51 2.63
                            36 2.63  61 2.64  55 2.64  49 2.65
  64  0.453  0.286  0.225-  29 2.42  15 2.43  45 2.45  27 2.45  37 2.46   7 2.46  63 2.63  60 2.63
                            36 2.64  55 2.64  53 2.65  46 2.66
  65  0.869  0.953  0.408-  78 2.62  77 2.62  56 2.63   2 2.63   1 2.63  70 2.63  67 2.63  73 2.64
                            72 2.64
  66  0.117  0.453  0.408-  79 2.60  68 2.61   9 2.62   3 2.62  15 2.63  73 2.63  71 2.64  77 2.65
                            74 2.65
  67  0.118  0.954  0.408-  75 2.61  23 2.62  33 2.62  70 2.63  71 2.63   2 2.63  65 2.63  69 2.64
                            77 2.64
  68  0.870  0.452  0.407-  47 2.61   9 2.61  66 2.61  40 2.62  71 2.62  76 2.64  70 2.64  73 2.65
                            80 2.66
  69  0.367  0.955  0.407-  13 2.61  23 2.61  74 2.61  57 2.62  71 2.62  75 2.64  67 2.64  72 2.65
                            80 2.66
  70  0.869  0.202  0.408-  76 2.61  47 2.62  67 2.63  71 2.63  33 2.63  56 2.63  65 2.63  68 2.64
                            78 2.64
  71  0.118  0.202  0.408-  33 2.62  69 2.62  68 2.62   9 2.63  67 2.63  70 2.63  13 2.63  74 2.64
                            66 2.64
  72  0.618  0.954  0.408-  80 2.60  78 2.61  29 2.62   1 2.62  74 2.63  57 2.63  65 2.64  69 2.65
                            73 2.66
  73  0.870  0.703  0.408-  80 2.60  77 2.61   1 2.62   3 2.62  66 2.63  40 2.63  65 2.64  68 2.65
                            72 2.66
  74  0.368  0.202  0.408-  79 2.60  69 2.61  13 2.62  15 2.62  29 2.63  72 2.63  71 2.64  78 2.65
                            66 2.65
  75  0.364  0.707  0.414-  81 1.94  82 1.96  67 2.61  69 2.64  77 2.64  23 2.68  41 2.70  79 2.71
                            14 2.71  80 2.72  76 2.72
  76  0.622  0.449  0.414-  82 1.96  81 1.97  70 2.61  68 2.64  78 2.64  47 2.69  27 2.70  14 2.71
                            79 2.71  80 2.72  75 2.72
  77  0.116  0.704  0.407-  73 2.61   2 2.61   3 2.61  41 2.62  65 2.62  75 2.64  67 2.64  66 2.65
                            79 2.66
  78  0.619  0.201  0.407-  72 2.61  27 2.61  29 2.62  56 2.62  65 2.62  76 2.64  70 2.64  74 2.65
                            79 2.66
  79  0.365  0.449  0.411-  81 1.71  74 2.60  66 2.60  15 2.65  78 2.66  77 2.66  41 2.66  27 2.67
                            76 2.71  75 2.71
  80  0.622  0.706  0.410-  82 1.70  72 2.60  73 2.60  57 2.65  40 2.65  69 2.66  68 2.66  14 2.67
                            76 2.72  75 2.72
  81  0.437  0.525  0.459-  79 1.71  75 1.94  76 1.97
  82  0.549  0.633  0.458-  80 1.70  76 1.96  75 1.96
 
  LATTYP: Found a hexagonal cell.
 ALAT       =    10.5600004196
 C/A-ratio  =     2.0833332505
  
  Lattice vectors:
  
 A1 = (   5.2800002098,  -9.1452286274,   0.0000000000)
 A2 = ( -10.5600004196,   0.0000000000,   0.0000000000)
 A3 = (   0.0000000000,   0.0000000000, -22.0000000000)


Analysis of symmetry for initial positions (statically):
=====================================================================
 Subroutine PRICEL returns:
 Original cell was already a primitive cell.
 

 Routine SETGRP: Setting up the symmetry group for a 
 hexagonal supercell.


 Subroutine GETGRP returns: Found  1 space group operations
 (whereof  1 operations were pure point group operations)
 out of a pool of 24 trial point group operations.


The static configuration has the point symmetry C_1 .


Analysis of symmetry for dynamics (positions and initial velocities):
=====================================================================
 Subroutine PRICEL returns:
 Original cell was already a primitive cell.
 

 Routine SETGRP: Setting up the symmetry group for a 
 hexagonal supercell.


 Subroutine GETGRP returns: Found  1 space group operations
 (whereof  1 operations were pure point group operations)
 out of a pool of 24 trial point group operations.


The dynamic configuration has the point symmetry C_1 .


Analysis of constrained symmetry for selective dynamics:
=====================================================================
 Subroutine PRICEL returns:
 Original cell was already a primitive cell.
 

 Routine SETGRP: Setting up the symmetry group for a 
 hexagonal supercell.


 Subroutine GETGRP returns: Found  1 space group operations
 (whereof  1 operations were pure point group operations)
 out of a pool of 24 trial point group operations.


The constrained configuration has the point symmetry C_1 .


Analysis of structural, dynamic, and magnetic symmetry:
=====================================================================
 Subroutine PRICEL returns:
 Original cell was already a primitive cell.
 

 Routine SETGRP: Setting up the symmetry group for a 
 hexagonal supercell.


 Subroutine GETGRP returns: Found  1 space group operations
 (whereof  1 operations were pure point group operations)
 out of a pool of 24 trial point group operations.


The magnetic configuration has the point symmetry C_1 .


 Subroutine INISYM returns: Found  1 space group operations
 (whereof  1 operations are pure point group operations),
 and found     1 'primitive' translations

 
 
 KPOINTS: mesh auto                               

Automatic generation of k-mesh.
Space group operators:
 irot       det(A)        alpha          n_x          n_y          n_z        tau_x        tau_y        tau_z
    1     1.000000     0.000001     1.000000     0.000000     0.000000     0.000000     0.000000     0.000000
 
 Subroutine IBZKPT returns following result:
 ===========================================
 
 Found      4 irreducible k-points:
 
 Following reciprocal coordinates:
            Coordinates               Weight
  0.000000  0.000000  0.000000      1.000000
  0.500000  0.000000  0.000000      1.000000
  0.000000  0.500000  0.000000      1.000000
  0.500000  0.500000  0.000000      1.000000
 
 Following cartesian coordinates:
            Coordinates               Weight
  0.000000  0.000000  0.000000      1.000000
  0.047348 -0.027337  0.000000      1.000000
  0.000000  0.054673  0.000000      1.000000
  0.047348  0.027337  0.000000      1.000000
 
 TETIRR: Found     12 inequivalent tetrahedra from       24
 
 Subroutine IBZKPT_HF returns following result:
 ==============================================
 
 Found      4 k-points in 1st BZ
 the following      4 k-points will be used (e.g. in the exchange kernel)
 Following reciprocal coordinates:   # in IRBZ
  0.000000  0.000000  0.000000    0.25000000   1 t-inv F
  0.500000  0.000000  0.000000    0.25000000   2 t-inv F
  0.000000  0.500000  0.000000    0.25000000   3 t-inv F
  0.500000  0.500000  0.000000    0.25000000   4 t-inv F


--------------------------------------------------------------------------------------------------------




 Dimension of arrays:
   k-points           NKPTS =      4   k-points in BZ     NKDIM =      4   number of bands    NBANDS=    560
   number of dos      NEDOS =    301   number of ions     NIONS =     82
   non local maximal  LDIM  =      6   non local SUM 2l+1 LMDIM =     18
   total plane-waves  NPLWV = ******
   max r-space proj   IRMAX =   7802   max aug-charges    IRDMAX=  33988
   dimension x,y,z NGX =    84 NGY =   84 NGZ =  168
   dimension x,y,z NGXF=   168 NGYF=  168 NGZF=  336
   support grid    NGXF=   168 NGYF=  168 NGZF=  336
   ions per type =              64  16   2
   NGX,Y,Z   is equivalent  to a cutoff of  13.22, 13.22, 12.70 a.u.
   NGXF,Y,Z  is equivalent  to a cutoff of  26.45, 26.45, 25.39 a.u.

 SYSTEM =  Pt111                                   
 POSCAR =  PtM\(2)                                 

 Startparameter for this run:
   NWRITE =      2    write-flag & timer
   PREC   = accura    normal or accurate (medium, high low for compatibility)
   ISTART =      0    job   : 0-new  1-cont  2-samecut
   ICHARG =      2    charge: 1-file 2-atom 10-const
   ISPIN  =      2    spin polarized calculation?
   LNONCOLLINEAR =      F non collinear calculations
   LSORBIT =      F    spin-orbit coupling
   INIWAV =      1    electr: 0-lowe 1-rand  2-diag
   LASPH  =      F    aspherical Exc in radial PAW
   METAGGA=      F    non-selfconsistent MetaGGA calc.

 Electronic Relaxation 1
   ENCUT  =  550.0 eV  40.42 Ry    6.36 a.u.  20.19 20.19 42.07*2*pi/ulx,y,z
   ENINI  =  550.0     initial cutoff
   ENAUG  =  544.6 eV  augmentation charge cutoff
   NELM   =    200;   NELMIN=  2; NELMDL= -5     # of ELM steps 
   EDIFF  = 0.1E-04   stopping-criterion for ELM
   LREAL  =      T    real-space projection
   NLSPLINE    = F    spline interpolate recip. space projectors
   LCOMPAT=      F    compatible to vasp.4.4
   GGA_COMPAT  = T    GGA compatible to vasp.4.4-vasp.4.6
   LMAXPAW     = -100 max onsite density
   LMAXMIX     =    2 max onsite mixed and CHGCAR
   VOSKOWN=      0    Vosko Wilk Nusair interpolation
   ROPT   =   -0.00025  -0.00025  -0.00025
 Ionic relaxation
   EDIFFG = -.5E-01   stopping-criterion for IOM
   NSW    =   1021    number of steps for IOM
   NBLOCK =      1;   KBLOCK =   1021    inner block; outer block 
   IBRION =      5    ionic relax: 0-MD 1-quasi-New 2-CG
   NFREE  =      2    steps in history (QN), initial steepest desc. (CG)
   ISIF   =      2    stress and relaxation
   IWAVPR =     11    prediction:  0-non 1-charg 2-wave 3-comb
   ISYM   =      2    0-nonsym 1-usesym 2-fastsym
   LCORR  =      T    Harris-Foulkes like correction to forces

   POTIM  = 0.0100    time-step for ionic-motion
   TEIN   =    0.0    initial temperature
   TEBEG  =    0.0;   TEEND  =   0.0 temperature during run
   SMASS  =  -3.00    Nose mass-parameter (am)
   estimated Nose-frequenzy (Omega)   =  0.10E-29 period in steps =****** mass=  -0.255E-26a.u.
   SCALEE = 1.0000    scale energy and forces
   NPACO  =    256;   APACO  = 16.0  distance and # of slots for P.C.
   PSTRESS=    0.0 pullay stress

  Mass of Ions in am
   POMASS =  58.69195.08  1.00
  Ionic Valenz
   ZVAL   =  10.00 10.00  1.00
  Atomic Wigner-Seitz radii
   RWIGS  =  -1.00 -1.00 -1.00
  virtual crystal weights 
   VCA    =   1.00  1.00  1.00
   NELECT =     802.0000    total number of electrons
   NUPDOWN=      -1.0000    fix difference up-down

 DOS related values:
   EMIN   =  10.00;   EMAX   =-10.00  energy-range for DOS
   EFERMI =   0.00
   ISMEAR =    -5;   SIGMA  =   0.10  broadening in eV -4-tet -1-fermi 0-gaus

 Electronic relaxation 2 (details)
   IALGO  =     68    algorithm
   LDIAG  =      T    sub-space diagonalisation (order eigenvalues)
   LSUBROT=      F    optimize rotation matrix (better conditioning)
   TURBO    =      0    0=normal 1=particle mesh
   IRESTART =      0    0=no restart 2=restart with 2 vectors
   NREBOOT  =      0    no. of reboots
   NMIN     =      0    reboot dimension
   EREF     =   0.00    reference energy to select bands
   IMIX   =      4    mixing-type and parameters
     AMIX     =   0.40;   BMIX     =  1.00
     AMIX_MAG =   1.60;   BMIX_MAG =  1.00
     AMIN     =   0.10
     WC   =   100.;   INIMIX=   1;  MIXPRE=   1;  MAXMIX= -45

 Intra band minimization:
   WEIMIN = 0.0010     energy-eigenvalue tresh-hold
   EBREAK =  0.45E-08  absolut break condition
   DEPER  =   0.30     relativ break condition  

   TIME   =   0.40     timestep for ELM

  volume/ion in A,a.u.               =      25.91       174.85
  Fermi-wavevector in a.u.,A,eV,Ry     =   1.183148  2.235826 19.045982  1.399840
  Thomas-Fermi vector in A             =   2.319389
 
 Write flags
   LWAVE        =      F    write WAVECAR
   LDOWNSAMPLE  =      F    k-point downsampling of WAVECAR
   LCHARG       =      F    write CHGCAR
   LVTOT        =      F    write LOCPOT, total local potential
   LVHAR        =      F    write LOCPOT, Hartree potential only
   LELF         =      F    write electronic localiz. function (ELF)
   LORBIT       =      0    0 simple, 1 ext, 2 COOP (PROOUT), +10 PAW based schemes


 Dipole corrections
   LMONO  =      F    monopole corrections only (constant potential shift)
   LDIPOL =      F    correct potential (dipole corrections)
   IDIPOL =      0    1-x, 2-y, 3-z, 4-all directions 
   EPSILON=  1.0000000 bulk dielectric constant

 Exchange correlation treatment:
   GGA     =    --    GGA type
   LEXCH   =     8    internal setting for exchange type
   VOSKOWN=      0    Vosko Wilk Nusair interpolation
   LHFCALC =     F    Hartree Fock is set to
   LHFONE  =     F    Hartree Fock one center treatment
   AEXX    =    0.0000 exact exchange contribution

 Linear response parameters
   LEPSILON=     F    determine dielectric tensor
   LRPA    =     F    only Hartree local field effects (RPA)
   LNABLA  =     F    use nabla operator in PAW spheres
   LVEL    =     F    velocity operator in full k-point grid
   LINTERFAST=   F  fast interpolation
   KINTER  =     0    interpolate to denser k-point grid
   CSHIFT  =0.1000    complex shift for real part using Kramers Kronig
   OMEGAMAX=  -1.0    maximum frequency
   DEG_THRESHOLD= 0.2000000E-02 threshold for treating states as degnerate
   RTIME   =   -0.100 relaxation time in fs
  (WPLASMAI=    0.000 imaginary part of plasma frequency in eV, 0.658/RTIME)
   DFIELD  = 0.0000000 0.0000000 0.0000000 field for delta impulse in time
 
 Orbital magnetization related:
   ORBITALMAG=     F  switch on orbital magnetization
   LCHIMAG   =     F  perturbation theory with respect to B field
   DQ        =  0.001000  dq finite difference perturbation B field
   LLRAUG    =     F  two centre corrections for induced B field



--------------------------------------------------------------------------------------------------------


 finite differences
   using selective dynamics as specified on POSCAR
   WARNING: If single coordinates had been selected the selection of coordinates
            is made according to the corresponding   d i r e c t   coordinates!
            Don't support selection of single cartesian coordinates -- sorry ...
  !
 charge density and potential will be updated during run
 spin polarized calculation
 RMM-DIIS sequential band-by-band and
  variant of blocked Davidson during initial phase
 perform sub-space diagonalisation
    before iterative eigenvector-optimisation
 modified Broyden-mixing scheme, WC =      100.0
 initial mixing is a Kerker type mixing with AMIX =  0.4000 and BMIX =      1.0000
 Hartree-type preconditioning will be used
 using additional bands          159
 real space projection scheme for non local part
 use partial core corrections
 calculate Harris-corrections to forces 
   (improved forces if not selfconsistent)
 use gradient corrections 
 use of overlap-Matrix (Vanderbilt PP)
 Fermi weights with tetrahedron method with Bloechl corrections


--------------------------------------------------------------------------------------------------------


  energy-cutoff  :      550.00
  volume of cell :     2124.62
      direct lattice vectors                 reciprocal lattice vectors
    10.560000420  0.000000000  0.000000000     0.094696966 -0.054673319  0.000000000
     5.280000210  9.145228627  0.000000000     0.000000000  0.109346638  0.000000000
     0.000000000  0.000000000 22.000000000     0.000000000  0.000000000  0.045454545

  length of vectors
    10.560000420 10.560000420 22.000000000     0.109346638  0.109346638  0.045454545


 
 k-points in units of 2pi/SCALE and weight: mesh auto                               
   0.00000000  0.00000000  0.00000000       0.250
   0.04734848 -0.02733666  0.00000000       0.250
   0.00000000  0.05467332  0.00000000       0.250
   0.04734848  0.02733666  0.00000000       0.250
 
 k-points in reciprocal lattice and weights: mesh auto                               
   0.00000000  0.00000000  0.00000000       0.250
   0.50000000  0.00000000  0.00000000       0.250
   0.00000000  0.50000000  0.00000000       0.250
   0.50000000  0.50000000  0.00000000       0.250
 
 position of ions in fractional coordinates (direct lattice) 
   0.78537722  0.86901957  0.31065990
   0.03587368  0.86910186  0.31062570
   0.03592850  0.61882204  0.31053013
   0.78741642  0.86719742  0.05079528
   0.03718121  0.86761865  0.05089071
   0.03746848  0.61719563  0.05096254
   0.61955406  0.20159273  0.13754729
   0.36950752  0.95182425  0.13751778
   0.03553371  0.36898056  0.31052959
   0.03704415  0.36790874  0.05101225
   0.86968327  0.20177888  0.13759574
   0.95278071  0.53545374  0.22476808
   0.28549687  0.11904043  0.31050684
   0.53518230  0.61895785  0.31307225
   0.28505114  0.36850365  0.31066649
   0.28654380  0.11855176  0.05090361
   0.53631410  0.61782829  0.05077704
   0.28617043  0.36837481  0.05100020
   0.61962349  0.95173358  0.13735891
   0.70220149  0.78542578  0.22483330
   0.86964043  0.70147724  0.13761457
   0.61962996  0.45161655  0.13752038
   0.28669740  0.86667699  0.31168602
   0.28659379  0.86807346  0.05083465
   0.61943357  0.70165557  0.13733944
   0.20285102  0.03476701  0.22496933
   0.53499121  0.37082634  0.31202184
   0.53636708  0.36809334  0.05087323
   0.53515470  0.11948448  0.31046159
   0.53577406  0.11869988  0.05080760
   0.86958892  0.45176640  0.13773701
   0.11946257  0.45169681  0.13792997
   0.03548528  0.11902927  0.31061645
   0.03722948  0.11830690  0.05090843
   0.11942365  0.95191852  0.13762189
   0.45283511  0.53588436  0.22558940
   0.36939774  0.20190437  0.13777412
   0.11962251  0.20181419  0.13782209
   0.95244279  0.78561112  0.22491829
   0.78539819  0.61904416  0.31072833
   0.28733495  0.61862397  0.31208530
   0.78732655  0.61751434  0.05082635
   0.28659969  0.61749987  0.05092547
   0.36925454  0.70178896  0.13754760
   0.36954841  0.45163383  0.13774745
   0.20174330  0.28472585  0.22463178
   0.78305311  0.37029219  0.31163918
   0.78719406  0.36815325  0.05087725
   0.95245989  0.03560094  0.22491545
   0.45264235  0.78428234  0.22529795
   0.70111709  0.53582174  0.22531861
   0.20327973  0.78484277  0.22520142
   0.45241911  0.03578437  0.22462863
   0.11946978  0.70168866  0.13771962
   0.70247091  0.03547939  0.22484920
   0.78542822  0.11949954  0.31057074
   0.53532725  0.86911095  0.31070188
   0.78683365  0.11830804  0.05083868
   0.53651553  0.86825611  0.05071684
   0.20330461  0.53561734  0.22516584
   0.95175210  0.28581454  0.22498330
   0.86948068  0.95178013  0.13750341
   0.70179940  0.28628326  0.22511607
   0.45261284  0.28626541  0.22509823
   0.86872160  0.95315164  0.40786043
   0.11747585  0.45268769  0.40767538
   0.11769694  0.95352103  0.40808412
   0.87039819  0.45174806  0.40730069
   0.36741074  0.95468474  0.40732086
   0.86908499  0.20212181  0.40808479
   0.11797130  0.20227821  0.40775731
   0.61829187  0.95406213  0.40765859
   0.86980604  0.70264941  0.40768923
   0.36836188  0.20178068  0.40765475
   0.36449134  0.70672323  0.41401318
   0.62236377  0.44884971  0.41384533
   0.11627674  0.70391803  0.40744866
   0.61949227  0.20065758  0.40738872
   0.36524915  0.44949182  0.41050412
   0.62180952  0.70617198  0.41031159
   0.43748109  0.52452654  0.45868014
   0.54908852  0.63285954  0.45835714
 
 position of ions in cartesian coordinates  (Angst):
  12.88200733  7.94738269  6.83451785
   4.96768410  7.94813521  6.83376544
   3.64678546  5.65926901  6.83166283
  12.89392030  7.93071864  1.11749627
   4.97366020  7.93457089  1.11959566
   3.65446024  5.64439510  1.12117595
   7.60690073  1.84361156  3.02604042
   8.92763184  8.70465037  3.02539115
   2.32345346  3.37441159  6.83165088
   2.33374452  3.36460958  1.12226958
  10.24924827  1.84531402  3.02710637
  12.88856062  4.89684690  4.94489766
   3.64338051  1.08865193  6.83115049
   8.91962292  5.66051105  6.88758949
   4.95583944  3.37005008  6.83466275
   3.65185596  1.08418299  1.11987945
   8.92561060  5.65018094  1.11709482
   4.96697898  3.36887187  1.12200441
  11.56837780  8.70382115  3.02189609
  11.56229631  7.18289833  4.94633271
  12.88720326  6.41516977  3.02752049
   8.92782818  4.13013662  3.02544834
   7.60357938  7.92595921  6.85709238
   7.60985855  7.93873022  1.11836232
  10.24596031  6.41680062  3.02146762
   2.32567673  0.31795228  4.94932527
   7.60747055  3.39129165  6.86448054
   7.60756953  3.36629775  1.11921113
   6.28211193  1.09271291  6.83015504
   6.28450963  1.08553751  1.11776729
  11.56818608  4.13150705  3.03021432
   3.64648406  4.13087058  3.03445934
   1.00319914  1.08854991  6.83356188
   1.01780373  1.08194362  1.11998552
   6.28724379  8.70551252  3.02768158
   7.61140845  4.90078500  4.96296677
   4.96689545  1.84646162  3.03103057
   2.32879270  1.84563689  3.03208601
  14.20582316  7.18459333  4.94820237
  11.56235846  5.66130035  6.83602335
   6.30059185  5.65745763  6.86587661
  11.57464457  5.64730984  1.11817973
   6.28689233  5.64717752  1.12036035
   7.60477390  6.41802047  3.02604717
   6.28705813  4.13029466  3.03044397
   3.63376187  2.60388301  4.94189926
  10.22418394  3.38640670  6.85606207
  10.25661881  3.36684564  1.11929947
  10.24594984  0.32557877  4.94813986
   8.92091438  7.17244134  4.95655480
  10.23293568  4.90021231  4.95700935
   6.29060406  7.17756655  4.95443127
   4.96648751  0.32725627  4.94182976
   4.96651723  6.41710321  3.02983166
   7.60542427  0.32446710  4.94668247
   8.92507993  1.09285063  6.83255632
  10.24196201  7.94821834  6.83544140
   8.93363021  1.08195409  1.11845107
  10.24999669  7.94040067  1.11577051
   4.97495642  4.89834306  4.95364846
  11.55960345  2.61383930  4.94963251
  14.20711566  8.70424687  3.02507502
   8.92257756  2.61812582  4.95255350
   6.29107327  2.61796266  4.95216114
  14.20634132  8.71678962  8.97292950
   3.63073607  4.13993240  8.96885825
   6.27747097  8.72016785  8.97785064
  11.57663513  4.13133926  8.96061509
   8.92059317  8.73081017  8.96105883
  10.24474111  1.84845021  8.97786541
   2.31380601  1.84988049  8.97066080
  11.56661071  8.72511632  8.96848895
  12.89514113  6.42588948  8.96916312
   4.95530362  1.84533042  8.96840455
   7.58052748  6.46314553  9.10828998
   8.94208819  4.10483320  9.10459731
   4.94456973  6.43749134  8.96387054
   7.60131072  1.83505943  8.96255176
   6.23034808  4.11070545  9.03109073
  10.29489701  6.45810422  9.02685491
   7.38930074  4.79691517 10.09096318
   9.13987352  5.78764515 10.08385708
 


--------------------------------------------------------------------------------------------------------


 k-point  1 :   0.0000 0.0000 0.0000  plane waves:   62167
 k-point  2 :   0.5000 0.0000 0.0000  plane waves:   62242
 k-point  3 :   0.0000 0.5000 0.0000  plane waves:   62242
 k-point  4 :   0.5000 0.5000 0.0000  plane waves:   62242

 maximum and minimum number of plane-waves per node :     62242    62167

 maximum number of plane-waves:     62242
 maximum index in each direction: 
   IXMAX=   20   IYMAX=   20   IZMAX=   42
   IXMIN=  -20   IYMIN=  -20   IZMIN=  -42


 serial   3D FFT for wavefunctions
 parallel 3D FFT for charge:
    minimum data exchange during FFTs selected (reduces bandwidth)


 total amount of memory used by VASP MPI-rank0   364367. kBytes
=======================================================================

   base      :      30000. kBytes
   nonlr-proj:      83549. kBytes
   fftplans  :      13995. kBytes
   grid      :     120016. kBytes
   one-center:       2550. kBytes
   wavefun   :     114257. kBytes
 
     INWAV:  cpu time    0.0001: real time    0.0001
 Broyden mixing: mesh for mixing (old mesh)
   NGX = 41   NGY = 41   NGZ = 85
  (NGX  =168   NGY  =168   NGZ  =336)
  gives a total of 142885 points

 initial charge density was supplied:
 charge density of overlapping atoms calculated
 number of electron     802.0000000 magnetization      82.0000000
 keeping initial charge density in first step


--------------------------------------------------------------------------------------------------------


 Maximum index for non-local projection operator         7539
 Maximum index for augmentation-charges         1315 (set IRDMAX)


--------------------------------------------------------------------------------------------------------


 First call to EWALD:  gamma=   0.138
 Maximum number of real-space cells 4x 4x 2
 Maximum number of reciprocal cells 2x 2x 4

    FEWALD:  cpu time    0.0039: real time    0.0039


--------------------------------------- Iteration      1(   1)  ---------------------------------------


    POTLOK:  cpu time    0.4642: real time    0.4837
    SETDIJ:  cpu time    0.0310: real time    0.0314
     EDDAV:  cpu time   47.4819: real time   47.6023
 BZINTS: Fermi energy: 15.991162;802.000000 electrons
         Band energy:7132.229861;  BLOECHL correction: -0.004740
       DOS:  cpu time    0.0172: real time    0.0174
    --------------------------------------------
      LOOP:  cpu time   47.9943: real time   48.1349

 eigenvalue-minimisations  :  8960
 total energy-change (2. order) : 0.6817314E+04  (-0.3597106E+05)
 number of electron     802.0000000 magnetization      82.0000000
 augmentation part      802.0000000 magnetization      82.0000000

 Free energy of the ion-electron system (eV)
  ---------------------------------------------------
  alpha Z        PSCENC =      1808.03780164
  Ewald energy   TEWEN  =    277290.58138792
  -Hartree energ DENC   =   -358327.07378869
  -exchange      EXHF   =         0.00000000
  -V(xc)+E(xc)   XCENC  =      2076.91520080
  PAW double counting   =     72761.65218721   -76586.80637160
  entropy T*S    EENTRO =         0.00000000
  eigenvalues    EBANDS =      7132.22986077
  atomic energy  EATOM  =     80661.77793577
  Solvation  Ediel_sol  =         0.00000000
  ---------------------------------------------------
  free energy    TOTEN  =      6817.31421382 eV

  energy without entropy =     6817.31421382  energy(sigma->0) =     6817.31421382


--------------------------------------------------------------------------------------------------------




--------------------------------------- Iteration      1(   2)  ---------------------------------------


     EDDAV:  cpu time   47.2891: real time   47.4112
 BZINTS: Fermi energy:  4.616667;802.000000 electrons
         Band energy: 712.178349;  BLOECHL correction: -0.009993
       DOS:  cpu time    0.0176: real time    0.0176
    --------------------------------------------
      LOOP:  cpu time   47.3066: real time   47.4288

 eigenvalue-minimisations  :  8960
 total energy-change (2. order) :-0.6420052E+04  (-0.5910783E+04)
 number of electron     802.0000000 magnetization      82.0000000
 augmentation part      802.0000000 magnetization      82.0000000

 Free energy of the ion-electron system (eV)
  ---------------------------------------------------
  alpha Z        PSCENC =      1808.03780164
  Ewald energy   TEWEN  =    277290.58138792
  -Hartree energ DENC   =   -358327.07378869
  -exchange      EXHF   =         0.00000000
  -V(xc)+E(xc)   XCENC  =      2076.91520080
  PAW double counting   =     72761.65218721   -76586.80637160
  entropy T*S    EENTRO =         0.00000000
  eigenvalues    EBANDS =       712.17834921
  atomic energy  EATOM  =     80661.77793577
  Solvation  Ediel_sol  =         0.00000000
  ---------------------------------------------------
  free energy    TOTEN  =       397.26270226 eV

  energy without entropy =      397.26270226  energy(sigma->0) =      397.26270226


--------------------------------------------------------------------------------------------------------




--------------------------------------- Iteration      1(   3)  ---------------------------------------


     EDDAV:  cpu time   49.9449: real time   50.0837
 BZINTS: Fermi energy:  2.667240;802.000000 electrons
         Band energy:-130.557688;  BLOECHL correction: -0.068850
       DOS:  cpu time    0.0185: real time    0.0185
    --------------------------------------------
      LOOP:  cpu time   49.9634: real time   50.1023

 eigenvalue-minimisations  :  9600
 total energy-change (2. order) :-0.8427360E+03  (-0.7293134E+03)
 number of electron     802.0000000 magnetization      82.0000000
 augmentation part      802.0000000 magnetization      82.0000000

 Free energy of the ion-electron system (eV)
  ---------------------------------------------------
  alpha Z        PSCENC =      1808.03780164
  Ewald energy   TEWEN  =    277290.58138792
  -Hartree energ DENC   =   -358327.07378869
  -exchange      EXHF   =         0.00000000
  -V(xc)+E(xc)   XCENC  =      2076.91520080
  PAW double counting   =     72761.65218721   -76586.80637160
  entropy T*S    EENTRO =         0.00000000
  eigenvalues    EBANDS =      -130.55768770
  atomic energy  EATOM  =     80661.77793577
  Solvation  Ediel_sol  =         0.00000000
  ---------------------------------------------------
  free energy    TOTEN  =      -445.47333466 eV

  energy without entropy =     -445.47333466  energy(sigma->0) =     -445.47333466


--------------------------------------------------------------------------------------------------------




--------------------------------------- Iteration      1(   4)  ---------------------------------------


     EDDAV:  cpu time   51.4934: real time   51.6282
 BZINTS: Fermi energy:  2.594753;802.000000 electrons
         Band energy:-179.002851;  BLOECHL correction: -0.170834
       DOS:  cpu time    0.0190: real time    0.0191
    --------------------------------------------
      LOOP:  cpu time   51.5125: real time   51.6473

 eigenvalue-minimisations  :  9960
 total energy-change (2. order) :-0.4844516E+02  (-0.4685253E+02)
 number of electron     802.0000000 magnetization      82.0000000
 augmentation part      802.0000000 magnetization      82.0000000

 Free energy of the ion-electron system (eV)
  ---------------------------------------------------
  alpha Z        PSCENC =      1808.03780164
  Ewald energy   TEWEN  =    277290.58138792
  -Hartree energ DENC   =   -358327.07378869
  -exchange      EXHF   =         0.00000000
  -V(xc)+E(xc)   XCENC  =      2076.91520080
  PAW double counting   =     72761.65218721   -76586.80637160
  entropy T*S    EENTRO =         0.00000000
  eigenvalues    EBANDS =      -179.00285127
  atomic energy  EATOM  =     80661.77793577
  Solvation  Ediel_sol  =         0.00000000
  ---------------------------------------------------
  free energy    TOTEN  =      -493.91849822 eV

  energy without entropy =     -493.91849822  energy(sigma->0) =     -493.91849822


--------------------------------------------------------------------------------------------------------




--------------------------------------- Iteration      1(   5)  ---------------------------------------


     EDDAV:  cpu time   55.1916: real time   55.3218
 BZINTS: Fermi energy:  2.593511;802.000000 electrons
         Band energy:-179.719656;  BLOECHL correction: -0.170895
       DOS:  cpu time    0.0187: real time    0.0188
    CHARGE:  cpu time    2.7506: real time    2.7575
    MIXING:  cpu time    0.0093: real time    0.0100
    --------------------------------------------
      LOOP:  cpu time   57.9703: real time   58.1081

 eigenvalue-minimisations  : 10880
 total energy-change (2. order) :-0.7168047E+00  (-0.7182060E+00)
 number of electron     802.0000001 magnetization      79.1514536
 augmentation part      407.2452248 magnetization      67.1818236

 Broyden mixing:
  rms(total) = 0.89198E+01    rms(broyden)= 0.89198E+01
  rms(prec ) = 0.92638E+01
  weight for this iteration     100.00

 Free energy of the ion-electron system (eV)
  ---------------------------------------------------
  alpha Z        PSCENC =      1808.03780164
  Ewald energy   TEWEN  =    277290.58138792
  -Hartree energ DENC   =   -358327.07378869
  -exchange      EXHF   =         0.00000000
  -V(xc)+E(xc)   XCENC  =      2076.91520080
  PAW double counting   =     72761.65218721   -76586.80637160
  entropy T*S    EENTRO =         0.00000000
  eigenvalues    EBANDS =      -179.71965602
  atomic energy  EATOM  =     80661.77793577
  Solvation  Ediel_sol  =         0.00000000
  ---------------------------------------------------
  free energy    TOTEN  =      -494.63530297 eV

  energy without entropy =     -494.63530297  energy(sigma->0) =     -494.63530297


--------------------------------------------------------------------------------------------------------




--------------------------------------- Iteration      1(   6)  ---------------------------------------


    POTLOK:  cpu time    0.4159: real time    0.4169
    SETDIJ:  cpu time    0.0311: real time    0.0312
    EDDIAG:  cpu time    8.1757: real time    8.1955
  RMM-DIIS:  cpu time   32.0878: real time   32.1635
    ORTHCH:  cpu time    1.2104: real time    1.2133
 BZINTS: Fermi energy:  0.670155;802.000000 electrons
         Band energy:***********;  BLOECHL correction: -0.018942
       DOS:  cpu time    0.0193: real time    0.0194
    CHARGE:  cpu time    2.7289: real time    2.7353
    MIXING:  cpu time    0.0098: real time    0.0101
    --------------------------------------------
      LOOP:  cpu time   44.6790: real time   44.7851

 eigenvalue-minimisations  :  9003
 total energy-change (2. order) :-0.4495406E+02  (-0.7010000E+02)
 number of electron     801.9999999 magnetization      77.1317381
 augmentation part      475.6938891 magnetization      68.1173583

 Broyden mixing:
  rms(total) = 0.11646E+02    rms(broyden)= 0.11646E+02
  rms(prec ) = 0.14481E+02
  weight for this iteration     100.00

 eigenvalues of (default mixing * dielectric matrix)
  average eigenvalue GAMMA=   0.3591
  0.3591

 Free energy of the ion-electron system (eV)
  ---------------------------------------------------
  alpha Z        PSCENC =      1808.03780164
  Ewald energy   TEWEN  =    277290.58138792
  -Hartree energ DENC   =   -356945.46442190
  -exchange      EXHF   =         0.00000000
  -V(xc)+E(xc)   XCENC  =      2002.13914055
  PAW double counting   =     77260.46765882   -80823.84006185
  entropy T*S    EENTRO =         0.00000000
  eigenvalues    EBANDS =     -1793.28880010
  atomic energy  EATOM  =     80661.77793577
  Solvation  Ediel_sol  =         0.00000000
  ---------------------------------------------------
  free energy    TOTEN  =      -539.58935915 eV

  energy without entropy =     -539.58935915  energy(sigma->0) =     -539.58935915


--------------------------------------------------------------------------------------------------------




--------------------------------------- Iteration      1(   7)  ---------------------------------------


    POTLOK:  cpu time    0.4147: real time    0.4157
    SETDIJ:  cpu time    0.0320: real time    0.0321
    EDDIAG:  cpu time    8.1356: real time    8.1548
  RMM-DIIS:  cpu time   31.8685: real time   31.9436
    ORTHCH:  cpu time    1.2112: real time    1.2140
 BZINTS: Fermi energy:  3.041393;802.000000 electrons
         Band energy:-806.563344;  BLOECHL correction: -0.046404
       DOS:  cpu time    0.0190: real time    0.0190
    CHARGE:  cpu time    2.7485: real time    2.7549
    MIXING:  cpu time    0.0088: real time    0.0088
    --------------------------------------------
      LOOP:  cpu time   44.4381: real time   44.5429

 eigenvalue-minimisations  :  8965
 total energy-change (2. order) :-0.7208754E+02  (-0.1926439E+02)
 number of electron     802.0000006 magnetization      75.9371102
 augmentation part      427.8386046 magnetization      64.3285437

 Broyden mixing:
  rms(total) = 0.14955E+02    rms(broyden)= 0.14955E+02
  rms(prec ) = 0.20413E+02
  weight for this iteration     100.00

 eigenvalues of (default mixing * dielectric matrix)
  average eigenvalue GAMMA=   0.2327
  0.3987  0.0667

 Free energy of the ion-electron system (eV)
  ---------------------------------------------------
  alpha Z        PSCENC =      1808.03780164
  Ewald energy   TEWEN  =    277290.58138792
  -Hartree energ DENC   =   -357807.00352219
  -exchange      EXHF   =         0.00000000
  -V(xc)+E(xc)   XCENC  =      2019.41860342
  PAW double counting   =     78998.41249988   -82776.33826517
  entropy T*S    EENTRO =         0.00000000
  eigenvalues    EBANDS =      -806.56334391
  atomic energy  EATOM  =     80661.77793577
  Solvation  Ediel_sol  =         0.00000000
  ---------------------------------------------------
  free energy    TOTEN  =      -611.67690264 eV

  energy without entropy =     -611.67690264  energy(sigma->0) =     -611.67690264


--------------------------------------------------------------------------------------------------------




--------------------------------------- Iteration      1(   8)  ---------------------------------------


    POTLOK:  cpu time    0.4128: real time    0.4138
    SETDIJ:  cpu time    0.0308: real time    0.0309
    EDDIAG:  cpu time    8.3812: real time    8.4010
  RMM-DIIS:  cpu time   31.7789: real time   31.8540
    ORTHCH:  cpu time    1.2133: real time    1.2161
 BZINTS: Fermi energy:  2.465569;802.000000 electrons
         Band energy:-593.212645;  BLOECHL correction: -0.046094
       DOS:  cpu time    0.0183: real time    0.0184
    CHARGE:  cpu time    2.7490: real time    2.7554
    MIXING:  cpu time    0.0100: real time    0.0101
    --------------------------------------------
      LOOP:  cpu time   44.5944: real time   44.6998

 eigenvalue-minimisations  :  8963
 total energy-change (2. order) : 0.1014660E+03  (-0.4566113E+01)
 number of electron     802.0000005 magnetization      74.7924176
 augmentation part      434.0949551 magnetization      62.1942434

 Broyden mixing:
  rms(total) = 0.12703E+02    rms(broyden)= 0.12703E+02
  rms(prec ) = 0.14645E+02
  weight for this iteration     100.00

 eigenvalues of (default mixing * dielectric matrix)
  average eigenvalue GAMMA=   0.2205
  0.4363  0.1125  0.1125

 Free energy of the ion-electron system (eV)
  ---------------------------------------------------
  alpha Z        PSCENC =      1808.03780164
  Ewald energy   TEWEN  =    277290.58138792
  -Hartree energ DENC   =   -357880.02307906
  -exchange      EXHF   =         0.00000000
  -V(xc)+E(xc)   XCENC  =      2021.40902603
  PAW double counting   =     79881.14768408   -83699.92896514
  entropy T*S    EENTRO =         0.00000000
  eigenvalues    EBANDS =      -593.21264474
  atomic energy  EATOM  =     80661.77793577
  Solvation  Ediel_sol  =         0.00000000
  ---------------------------------------------------
  free energy    TOTEN  =      -510.21085349 eV

  energy without entropy =     -510.21085349  energy(sigma->0) =     -510.21085349


--------------------------------------------------------------------------------------------------------




--------------------------------------- Iteration      1(   9)  ---------------------------------------


    POTLOK:  cpu time    0.4150: real time    0.4160
    SETDIJ:  cpu time    0.0307: real time    0.0308
    EDDIAG:  cpu time    8.1377: real time    8.1571
  RMM-DIIS:  cpu time   31.8613: real time   31.9417
    ORTHCH:  cpu time    1.2107: real time    1.2135
 BZINTS: Fermi energy:  1.717126;802.000000 electrons
         Band energy:-886.930084;  BLOECHL correction: -0.033665
       DOS:  cpu time    0.0167: real time    0.0167
    CHARGE:  cpu time    2.7464: real time    2.7528
    MIXING:  cpu time    0.0104: real time    0.0105
    --------------------------------------------
      LOOP:  cpu time   44.4288: real time   44.5391

 eigenvalue-minimisations  :  8967
 total energy-change (2. order) : 0.4789852E+02  (-0.3301959E+01)
 number of electron     802.0000005 magnetization      73.1810762
 augmentation part      442.1090564 magnetization      58.9100864

 Broyden mixing:
  rms(total) = 0.10244E+02    rms(broyden)= 0.10244E+02
  rms(prec ) = 0.13238E+02
  weight for this iteration     100.00

 eigenvalues of (default mixing * dielectric matrix)
  average eigenvalue GAMMA=   0.2887
  0.5686  0.2608  0.2608  0.0645

 Free energy of the ion-electron system (eV)
  ---------------------------------------------------
  alpha Z        PSCENC =      1808.03780164
  Ewald energy   TEWEN  =    277290.58138792
  -Hartree energ DENC   =   -357529.45656765
  -exchange      EXHF   =         0.00000000
  -V(xc)+E(xc)   XCENC  =      2020.59401520
  PAW double counting   =     80607.02507702   -84433.94190142
  entropy T*S    EENTRO =         0.00000000
  eigenvalues    EBANDS =      -886.93008373
  atomic energy  EATOM  =     80661.77793577
  Solvation  Ediel_sol  =         0.00000000
  ---------------------------------------------------
  free energy    TOTEN  =      -462.31233525 eV

  energy without entropy =     -462.31233525  energy(sigma->0) =     -462.31233525


--------------------------------------------------------------------------------------------------------




--------------------------------------- Iteration      1(  10)  ---------------------------------------


    POTLOK:  cpu time    0.4136: real time    0.4146
    SETDIJ:  cpu time    0.0309: real time    0.0310
    EDDIAG:  cpu time    8.2013: real time    8.2215
  RMM-DIIS:  cpu time   31.8253: real time   31.9004
    ORTHCH:  cpu time    1.2097: real time    1.2125
 BZINTS: Fermi energy:  2.815324;802.000000 electrons
         Band energy:-550.986463;  BLOECHL correction: -0.020651
       DOS:  cpu time    0.0173: real time    0.0174
    CHARGE:  cpu time    2.7184: real time    2.7248
    MIXING:  cpu time    0.0103: real time    0.0104
    --------------------------------------------
      LOOP:  cpu time   44.4269: real time   44.5325

 eigenvalue-minimisations  :  8972
 total energy-change (2. order) :-0.9409836E+02  (-0.7792463E+01)
 number of electron     802.0000000 magnetization      69.6912869
 augmentation part      431.9196242 magnetization      58.7988011

 Broyden mixing:
  rms(total) = 0.16448E+02    rms(broyden)= 0.16448E+02
  rms(prec ) = 0.19482E+02
  weight for this iteration     100.00

 eigenvalues of (default mixing * dielectric matrix)
  average eigenvalue GAMMA=   0.4031
  0.8205  0.8205  0.2024  0.1014  0.0708

 Free energy of the ion-electron system (eV)
  ---------------------------------------------------
  alpha Z        PSCENC =      1808.03780164
  Ewald energy   TEWEN  =    277290.58138792
  -Hartree energ DENC   =   -357908.31845325
  -exchange      EXHF   =         0.00000000
  -V(xc)+E(xc)   XCENC  =      2025.40571819
  PAW double counting   =     81736.57153429   -85619.48016049
  entropy T*S    EENTRO =         0.00000000
  eigenvalues    EBANDS =      -550.98646278
  atomic energy  EATOM  =     80661.77793577
  Solvation  Ediel_sol  =         0.00000000
  ---------------------------------------------------
  free energy    TOTEN  =      -556.41069871 eV

  energy without entropy =     -556.41069871  energy(sigma->0) =     -556.41069871


--------------------------------------------------------------------------------------------------------




--------------------------------------- Iteration      1(  11)  ---------------------------------------


    POTLOK:  cpu time    0.4126: real time    0.4136
    SETDIJ:  cpu time    0.0311: real time    0.0312
    EDDIAG:  cpu time    8.1459: real time    8.1652
  RMM-DIIS:  cpu time   31.9480: real time   32.0236
    ORTHCH:  cpu time    1.2119: real time    1.2148
 BZINTS: Fermi energy:  1.890480;802.000000 electrons
         Band energy:-838.630933;  BLOECHL correction: -0.016783
       DOS:  cpu time    0.0183: real time    0.0184
    CHARGE:  cpu time    2.7074: real time    2.7138
    MIXING:  cpu time    0.0113: real time    0.0113
    --------------------------------------------
      LOOP:  cpu time   44.4866: real time   44.5918

 eigenvalue-minimisations  :  8994
 total energy-change (2. order) : 0.3144879E+02  (-0.1065299E+02)
 number of electron     801.9999999 magnetization      67.9769397
 augmentation part      443.9031520 magnetization      58.3073697

 Broyden mixing:
  rms(total) = 0.13899E+02    rms(broyden)= 0.13899E+02
  rms(prec ) = 0.15683E+02
  weight for this iteration     100.00

 eigenvalues of (default mixing * dielectric matrix)
  average eigenvalue GAMMA=   0.3906
  0.9266  0.9266  0.1656  0.1656  0.0709  0.0884

 Free energy of the ion-electron system (eV)
  ---------------------------------------------------
  alpha Z        PSCENC =      1808.03780164
  Ewald energy   TEWEN  =    277290.58138792
  -Hartree energ DENC   =   -357564.45015648
  -exchange      EXHF   =         0.00000000
  -V(xc)+E(xc)   XCENC  =      2027.26159217
  PAW double counting   =     83045.57835883   -86955.11789020
  entropy T*S    EENTRO =         0.00000000
  eigenvalues    EBANDS =      -838.63093342
  atomic energy  EATOM  =     80661.77793577
  Solvation  Ediel_sol  =         0.00000000
  ---------------------------------------------------
  free energy    TOTEN  =      -524.96190377 eV

  energy without entropy =     -524.96190377  energy(sigma->0) =     -524.96190377


--------------------------------------------------------------------------------------------------------




--------------------------------------- Iteration      1(  12)  ---------------------------------------


    POTLOK:  cpu time    0.4146: real time    0.4156
    SETDIJ:  cpu time    0.0310: real time    0.0311
    EDDIAG:  cpu time    8.3865: real time    8.4064
  RMM-DIIS:  cpu time   32.0576: real time   32.1333
    ORTHCH:  cpu time    1.2805: real time    1.2836
 BZINTS: Fermi energy:  1.566681;802.000000 electrons
         Band energy:-840.096800;  BLOECHL correction: -0.038102
       DOS:  cpu time    0.0169: real time    0.0170
    CHARGE:  cpu time    2.7529: real time    2.7595
    MIXING:  cpu time    0.0100: real time    0.0100
    --------------------------------------------
      LOOP:  cpu time   44.9501: real time   45.0564

 eigenvalue-minimisations  :  9019
 total energy-change (2. order) : 0.7615267E+02  (-0.8428962E+01)
 number of electron     802.0000001 magnetization      66.5789904
 augmentation part      446.7563817 magnetization      53.7797544

 Broyden mixing:
  rms(total) = 0.73552E+01    rms(broyden)= 0.73551E+01
  rms(prec ) = 0.94362E+01
  weight for this iteration     100.00

 eigenvalues of (default mixing * dielectric matrix)
  average eigenvalue GAMMA=   0.3791
  1.2286  0.7179  0.2221  0.2221  0.0698  0.0966  0.0966

 Free energy of the ion-electron system (eV)
  ---------------------------------------------------
  alpha Z        PSCENC =      1808.03780164
  Ewald energy   TEWEN  =    277290.58138792
  -Hartree energ DENC   =   -357472.36194074
  -exchange      EXHF   =         0.00000000
  -V(xc)+E(xc)   XCENC  =      2027.41703611
  PAW double counting   =     83538.59135965   -87462.75601059
  entropy T*S    EENTRO =         0.00000000
  eigenvalues    EBANDS =      -840.09679958
  atomic energy  EATOM  =     80661.77793577
  Solvation  Ediel_sol  =         0.00000000
  ---------------------------------------------------
  free energy    TOTEN  =      -448.80922982 eV

  energy without entropy =     -448.80922982  energy(sigma->0) =     -448.80922982


--------------------------------------------------------------------------------------------------------




--------------------------------------- Iteration      1(  13)  ---------------------------------------


    POTLOK:  cpu time    0.4184: real time    0.4194
    SETDIJ:  cpu time    0.0313: real time    0.0313
    EDDIAG:  cpu time    8.2578: real time    8.2829
  RMM-DIIS:  cpu time   31.9784: real time   32.0540
    ORTHCH:  cpu time    1.2136: real time    1.2164
 BZINTS: Fermi energy:  1.544928;802.000000 electrons
         Band energy:-764.600674;  BLOECHL correction: -0.013627
       DOS:  cpu time    0.0187: real time    0.0187
    CHARGE:  cpu time    2.7331: real time    2.7396
    MIXING:  cpu time    0.0105: real time    0.0105
    --------------------------------------------
      LOOP:  cpu time   44.6616: real time   44.7728

 eigenvalue-minimisations  :  9010
 total energy-change (2. order) : 0.1394187E+02  (-0.2179823E+01)
 number of electron     802.0000000 magnetization      65.0908447
 augmentation part      446.2313341 magnetization      52.5973702

 Broyden mixing:
  rms(total) = 0.75425E+01    rms(broyden)= 0.75425E+01
  rms(prec ) = 0.93826E+01
  weight for this iteration     100.00

 eigenvalues of (default mixing * dielectric matrix)
  average eigenvalue GAMMA=   0.3667
  1.3955  0.6183  0.2699  0.2699  0.1115  0.1115  0.0710  0.0862

 Free energy of the ion-electron system (eV)
  ---------------------------------------------------
  alpha Z        PSCENC =      1808.03780164
  Ewald energy   TEWEN  =    277290.58138792
  -Hartree energ DENC   =   -357514.12878680
  -exchange      EXHF   =         0.00000000
  -V(xc)+E(xc)   XCENC  =      2025.40644291
  PAW double counting   =     83989.66810743   -87931.60957151
  entropy T*S    EENTRO =         0.00000000
  eigenvalues    EBANDS =      -764.60067396
  atomic energy  EATOM  =     80661.77793577
  Solvation  Ediel_sol  =         0.00000000
  ---------------------------------------------------
  free energy    TOTEN  =      -434.86735660 eV

  energy without entropy =     -434.86735660  energy(sigma->0) =     -434.86735660


--------------------------------------------------------------------------------------------------------




--------------------------------------- Iteration      1(  14)  ---------------------------------------


    POTLOK:  cpu time    0.4128: real time    0.4138
    SETDIJ:  cpu time    0.0311: real time    0.0312
    EDDIAG:  cpu time    8.1749: real time    8.1943
  RMM-DIIS:  cpu time   31.9863: real time   32.0618
    ORTHCH:  cpu time    1.2117: real time    1.2168
 BZINTS: Fermi energy:  1.518201;802.000000 electrons
         Band energy:-704.490738;  BLOECHL correction: -0.035263
       DOS:  cpu time    0.0185: real time    0.0185
    CHARGE:  cpu time    2.7510: real time    2.7574
    MIXING:  cpu time    0.0123: real time    0.0124
    --------------------------------------------
      LOOP:  cpu time   44.5987: real time   44.7061

 eigenvalue-minimisations  :  8990
 total energy-change (2. order) : 0.1197004E+02  (-0.1643673E+01)
 number of electron     802.0000001 magnetization      64.0411833
 augmentation part      446.3965015 magnetization      51.1256064

 Broyden mixing:
  rms(total) = 0.66765E+01    rms(broyden)= 0.66764E+01
  rms(prec ) = 0.82253E+01
  weight for this iteration     100.00

 eigenvalues of (default mixing * dielectric matrix)
  average eigenvalue GAMMA=   0.3474
  1.4605  0.5458  0.2968  0.2968  0.1720  0.1093  0.0948  0.0690  0.0812

 Free energy of the ion-electron system (eV)
  ---------------------------------------------------
  alpha Z        PSCENC =      1808.03780164
  Ewald energy   TEWEN  =    277290.58138792
  -Hartree energ DENC   =   -357546.68649694
  -exchange      EXHF   =         0.00000000
  -V(xc)+E(xc)   XCENC  =      2024.38825809
  PAW double counting   =     84395.05513129   -88351.56059510
  entropy T*S    EENTRO =         0.00000000
  eigenvalues    EBANDS =      -704.49073824
  atomic energy  EATOM  =     80661.77793577
  Solvation  Ediel_sol  =         0.00000000
  ---------------------------------------------------
  free energy    TOTEN  =      -422.89731558 eV

  energy without entropy =     -422.89731558  energy(sigma->0) =     -422.89731558


--------------------------------------------------------------------------------------------------------




--------------------------------------- Iteration      1(  15)  ---------------------------------------


    POTLOK:  cpu time    0.4134: real time    0.4155
    SETDIJ:  cpu time    0.0312: real time    0.0313
    EDDIAG:  cpu time    8.1388: real time    8.1581
  RMM-DIIS:  cpu time   32.0034: real time   32.0789
    ORTHCH:  cpu time    1.2123: real time    1.2151
 BZINTS: Fermi energy:  1.498656;802.000000 electrons
         Band energy:-665.042960;  BLOECHL correction: -0.024896
       DOS:  cpu time    0.0189: real time    0.0190
    CHARGE:  cpu time    2.7488: real time    2.7553
    MIXING:  cpu time    0.0109: real time    0.0110
    --------------------------------------------
      LOOP:  cpu time   44.5777: real time   44.6841

 eigenvalue-minimisations  :  8989
 total energy-change (2. order) : 0.5782236E+01  (-0.8469584E+00)
 number of electron     802.0000001 magnetization      63.5389735
 augmentation part      446.2599889 magnetization      50.7118805

 Broyden mixing:
  rms(total) = 0.61887E+01    rms(broyden)= 0.61886E+01
  rms(prec ) = 0.74280E+01
  weight for this iteration     100.00

 eigenvalues of (default mixing * dielectric matrix)
  average eigenvalue GAMMA=   0.3308
  1.4593  0.5445  0.3273  0.3273  0.2084  0.0715  0.1020  0.0940  0.0869  0.0869

 Free energy of the ion-electron system (eV)
  ---------------------------------------------------
  alpha Z        PSCENC =      1808.03780164
  Ewald energy   TEWEN  =    277290.58138792
  -Hartree energ DENC   =   -357572.13274719
  -exchange      EXHF   =         0.00000000
  -V(xc)+E(xc)   XCENC  =      2023.57690466
  PAW double counting   =     84632.45756257   -88596.37096558
[...]
   -.240E+01 -.209E+01 0.167E+04   0.241E+01 0.217E+01 -.167E+04   0.159E-01 -.542E-01 -.162E+00   0.347E-02 0.116E-02 -.179E-02
   0.152E+00 -.453E-01 -.170E+04   -.201E+00 0.119E-01 0.170E+04   0.426E-01 0.311E-01 0.142E+01   0.182E-02 -.201E-02 -.118E-01
   0.353E+01 0.199E+01 0.334E+04   -.350E+01 -.196E+01 -.334E+04   -.296E-01 -.174E-01 -.237E+01   -.490E-03 -.193E-02 0.372E-02
   0.682E+00 0.218E+01 0.167E+04   -.703E+00 -.221E+01 -.167E+04   0.997E-02 -.113E-01 -.166E+00   -.102E-02 -.364E-02 -.161E-03
   -.119E+01 -.303E+00 -.271E+02   0.117E+01 0.285E+00 0.274E+02   0.266E-01 0.149E-01 -.366E+00   -.160E-02 -.710E-03 -.151E-01
   -.388E+01 0.647E+00 0.167E+04   0.395E+01 -.672E+00 -.167E+04   -.387E-01 0.306E-01 -.160E+00   0.298E-02 -.308E-03 -.398E-02
   0.335E+01 0.289E+01 0.167E+04   -.340E+01 -.292E+01 -.167E+04   0.206E-01 0.113E-01 -.155E+00   0.209E-02 -.139E-02 -.966E-03
   -.705E+00 -.731E+00 -.126E+02   0.709E+00 0.716E+00 0.128E+02   -.121E-01 0.229E-01 -.300E+00   -.767E-03 0.349E-02 -.133E-01
   0.586E+01 -.746E+00 -.170E+04   -.595E+01 0.810E+00 0.170E+04   0.792E-01 -.518E-01 0.141E+01   0.135E-02 0.104E-02 -.115E-01
   -.318E+01 0.225E+01 -.173E+04   0.330E+01 -.226E+01 0.173E+04   -.121E+00 0.141E-01 0.147E+01   -.824E-04 -.278E-03 -.990E-02
   0.306E+01 -.266E+01 0.334E+04   -.305E+01 0.267E+01 -.334E+04   -.169E-01 0.162E-01 -.243E+01   -.198E-02 -.351E-03 0.223E-02
   -.238E+01 -.229E+01 0.334E+04   0.236E+01 0.231E+01 -.334E+04   0.236E-01 -.387E-02 -.247E+01   0.232E-02 -.755E-03 0.695E-02
   -.197E+01 0.703E+00 0.167E+04   0.196E+01 -.695E+00 -.167E+04   0.222E-01 -.203E-01 -.151E+00   -.133E-02 -.945E-03 -.480E-02
   -.415E+01 -.133E+01 0.167E+04   0.418E+01 0.134E+01 -.167E+04   0.164E-01 0.122E-01 -.121E+00   0.130E-03 0.115E-02 -.307E-02
   -.482E+01 -.210E+01 -.107E+02   0.479E+01 0.207E+01 0.109E+02   0.178E-01 0.142E-01 -.318E+00   0.253E-02 0.628E-03 -.931E-02
   0.113E+01 -.226E+01 -.172E+04   -.126E+01 0.235E+01 0.172E+04   0.113E+00 -.904E-01 0.143E+01   -.158E-02 -.227E-02 -.109E-01
   0.335E+01 0.329E-01 0.334E+04   -.334E+01 -.359E-01 -.334E+04   -.370E-01 0.142E-02 -.244E+01   -.198E-02 0.448E-02 0.488E-02
   0.419E+00 0.331E+00 -.116E+02   -.411E+00 -.332E+00 0.118E+02   -.195E-01 -.518E-02 -.310E+00   -.152E-02 -.137E-02 -.133E-01
   -.183E+01 0.614E+00 -.218E+02   0.180E+01 -.617E+00 0.220E+02   0.333E-01 0.158E-01 -.300E+00   -.260E-02 0.156E-02 -.137E-01
   0.239E+00 -.189E+01 -.231E+02   -.254E+00 0.186E+01 0.233E+02   0.286E-01 0.228E-01 -.302E+00   -.216E-02 -.751E-03 -.152E-01
   -.367E+00 0.549E+00 -.194E+02   0.440E+00 -.548E+00 0.196E+02   -.621E-01 0.907E-02 -.300E+00   -.749E-05 0.148E-02 -.143E-01
   -.284E+00 0.522E+01 -.832E+01   0.267E+00 -.520E+01 0.852E+01   0.244E-01 -.154E-01 -.285E+00   0.251E-02 0.123E-02 -.135E-01
   -.160E+01 -.213E+01 0.167E+04   0.159E+01 0.213E+01 -.167E+04   0.149E-01 0.245E-02 -.185E+00   0.238E-02 -.137E-03 -.170E-02
   -.459E+00 -.647E+00 -.107E+02   0.452E+00 0.650E+00 0.109E+02   0.132E-01 -.113E-01 -.301E+00   -.191E-03 -.132E-02 -.130E-01
   0.258E-01 -.861E+00 -.170E+04   -.301E-01 0.875E+00 0.170E+04   0.150E-02 -.149E-01 0.143E+01   -.226E-02 -.207E-02 -.143E-01
   0.211E+01 0.556E+01 -.170E+04   -.210E+01 -.568E+01 0.170E+04   -.934E-02 0.930E-01 0.142E+01   -.173E-03 0.273E-02 -.116E-01
   0.124E+01 0.137E+01 0.334E+04   -.125E+01 -.137E+01 -.334E+04   -.290E-02 -.119E-01 -.245E+01   -.264E-02 -.478E-03 0.532E-02
   -.817E+00 0.180E+01 0.335E+04   0.816E+00 -.180E+01 -.334E+04   0.489E-02 -.122E-01 -.246E+01   0.190E-03 0.980E-03 0.407E-02
   -.367E+01 -.136E+01 -.211E+02   0.370E+01 0.132E+01 0.214E+02   -.352E-01 0.346E-01 -.307E+00   0.479E-03 -.142E-02 -.140E-01
   0.627E+01 -.192E+01 -.185E+02   -.630E+01 0.195E+01 0.188E+02   0.290E-01 -.265E-01 -.308E+00   -.139E-03 -.209E-02 -.105E-01
   0.454E-01 -.760E+00 0.167E+04   -.261E-01 0.773E+00 -.167E+04   -.566E-02 -.962E-02 -.152E+00   -.104E-02 0.814E-03 0.820E-03
   0.948E+00 -.602E+00 -.176E+02   -.906E+00 0.664E+00 0.178E+02   -.279E-01 -.531E-01 -.299E+00   -.232E-02 -.253E-02 -.140E-01
   -.325E+01 -.176E+01 -.190E+02   0.323E+01 0.180E+01 0.192E+02   0.934E-02 -.417E-01 -.302E+00   -.100E-03 -.105E-02 -.121E-01
   0.250E+01 0.123E+01 -.325E+04   -.249E+01 -.122E+01 0.325E+04   -.699E-02 -.880E-02 0.183E+01   -.512E-03 -.271E-03 -.313E-02
   0.471E+01 0.220E+01 -.325E+04   -.469E+01 -.223E+01 0.324E+04   -.901E-02 0.113E-01 0.181E+01   0.150E-02 -.145E-02 -.259E-02
   0.436E+01 -.697E+01 -.324E+04   -.434E+01 0.699E+01 0.324E+04   -.327E-01 -.250E-01 0.179E+01   0.150E-02 -.381E-03 -.333E-02
   -.563E+01 0.426E+00 -.323E+04   0.582E+01 -.621E+00 0.323E+04   -.205E+00 0.186E+00 0.197E+01   0.134E-02 -.123E-02 -.328E-03
   -.267E+01 -.524E+01 -.323E+04   0.259E+01 0.550E+01 0.323E+04   0.685E-01 -.272E+00 0.197E+01   -.101E-02 0.115E-02 -.204E-02
   -.378E+01 0.719E+01 -.324E+04   0.381E+01 -.718E+01 0.324E+04   -.272E-01 -.251E-01 0.179E+01   0.548E-03 -.784E-03 -.223E-02
   -.268E+01 -.162E+01 -.325E+04   0.265E+01 0.160E+01 0.325E+04   0.707E-01 0.403E-01 0.177E+01   0.181E-02 -.521E-03 -.337E-02
   -.431E+01 -.149E+01 -.325E+04   0.430E+01 0.155E+01 0.324E+04   0.784E-02 -.633E-01 0.183E+01   0.289E-04 0.179E-02 -.206E-02
   -.303E+01 -.279E+01 -.325E+04   0.308E+01 0.275E+01 0.324E+04   -.560E-01 0.285E-01 0.183E+01   0.150E-02 0.612E-03 -.106E-02
   0.409E+01 0.318E+01 -.325E+04   -.411E+01 -.314E+01 0.324E+04   0.504E-02 -.307E-01 0.182E+01   -.373E-03 0.566E-03 -.328E-02
   0.100E+02 -.180E+02 -.325E+04   -.110E+02 0.196E+02 0.325E+04   0.958E+00 -.165E+01 0.178E+01   -.269E-03 -.870E-04 -.229E-02
   -.100E+02 0.179E+02 -.325E+04   0.110E+02 -.195E+02 0.325E+04   -.992E+00 0.166E+01 0.183E+01   -.209E-02 0.891E-03 -.133E-02
   0.538E+01 -.934E+00 -.323E+04   -.560E+01 0.113E+01 0.323E+04   0.253E+00 -.194E+00 0.190E+01   0.938E-03 -.963E-03 -.254E-02
   0.159E+01 0.536E+01 -.323E+04   -.153E+01 -.563E+01 0.323E+04   -.317E-01 0.292E+00 0.190E+01   -.197E-02 0.338E-03 -.320E-02
   0.173E+02 0.104E+02 -.323E+04   -.176E+02 -.106E+02 0.323E+04   0.316E+00 0.182E+00 0.484E+00   -.546E-03 -.336E-03 -.273E-02
   -.184E+02 -.103E+02 -.322E+04   0.187E+02 0.105E+02 0.322E+04   -.268E+00 -.162E+00 0.396E+00   -.196E-02 0.607E-03 0.513E-03
   -.105E+01 -.348E+00 -.379E+03   0.155E+01 0.618E+00 0.381E+03   -.504E+00 -.267E+00 -.175E+01   -.409E-04 0.555E-04 0.129E-03
   0.106E+01 0.702E+00 -.379E+03   -.160E+01 -.102E+01 0.381E+03   0.550E+00 0.318E+00 -.176E+01   -.136E-03 0.475E-04 0.182E-03
 -----------------------------------------------------------------------------------------------
   0.105E-02 -.902E-01 0.450E+00   -.660E-12 -.361E-12 0.210E-11   0.135E-01 0.128E+00 0.440E-01   0.145E-03 -.512E-04 -.392E+00
 
 
 POSITION                                       TOTAL-FORCE (eV/Angst)
 -----------------------------------------------------------------------------------
     12.88201      7.94738      6.83452         0.000517     -0.000502     -0.042143
      4.96768      7.94814      6.83377        -0.005027     -0.001171     -0.030374
      3.64679      5.65927      6.83166         0.001897      0.000387     -0.039083
     12.89392      7.93072      1.11750        -0.008741      0.022529     -0.005260
      4.97366      7.93457      1.11960        -0.020272      0.016542     -0.010952
      3.65446      5.64440      1.12118        -0.016278      0.029396     -0.026975
      7.60690      1.84361      3.02604         0.009016      0.007814      0.035256
      8.92763      8.70465      3.02539         0.000632     -0.052262      0.057131
      2.32345      3.37441      6.83165        -0.008456      0.002401     -0.013130
      2.33374      3.36461      1.12227        -0.002773     -0.002819     -0.020812
     10.24925      1.84531      3.02711        -0.042868      0.007716      0.047735
     12.88856      4.89685      4.94490         0.003727      0.004785     -0.020964
      3.64338      1.08865      6.83115        -0.000078     -0.010184     -0.012954
      8.91962      5.66051      6.88759         0.003612     -0.001556      0.035407
      4.95584      3.37005      6.83466         0.016812      0.009698     -0.008604
      3.65186      1.08418      1.11988        -0.013024      0.007222     -0.021040
      8.92561      5.65018      1.11709        -0.001435      0.008468     -0.022921
      4.96698      3.36887      1.12200        -0.006686     -0.012454     -0.015291
     11.56838      8.70382      3.02190         0.007454     -0.012800      0.018293
     11.56230      7.18290      4.94633         0.002477      0.001872      0.003620
     12.88720      6.41517      3.02752        -0.006158      0.016836      0.008372
      8.92783      4.13014      3.02545        -0.008468      0.012485      0.037533
      7.60358      7.92596      6.85709        -0.007663     -0.022082     -0.002744
      7.60986      7.93873      1.11836        -0.006478     -0.004707     -0.017034
     10.24596      6.41680      3.02147         0.004405      0.004395      0.045449
      2.32568      0.31795      4.94933        -0.000564     -0.002944     -0.026345
      7.60747      3.39129      6.86448         0.009078      0.002684      0.007786
      7.60757      3.36630      1.11921         0.007114      0.008971     -0.017392
      6.28211      1.09271      6.83016         0.001988     -0.001491     -0.035768
      6.28451      1.08554      1.11777         0.016697     -0.017882     -0.016351
     11.56819      4.13151      3.03021        -0.042784      0.024694      0.045268
      3.64648      4.13087      3.03446         0.027478      0.021289      0.028300
      1.00320      1.08855      6.83356        -0.004657     -0.004787     -0.013307
      1.01780      1.08194      1.11999        -0.004982      0.003752     -0.009810
      6.28724      8.70551      3.02768        -0.011510     -0.041642      0.043833
      7.61141      4.90078      4.96297        -0.005017     -0.005914     -0.028600
      4.96690      1.84646      3.03103         0.032405      0.005024      0.033452
      2.32879      1.84564      3.03209        -0.023885     -0.020405      0.019033
     14.20582      7.18459      4.94820        -0.008733      0.011065     -0.019204
     11.56236      5.66130      6.83602        -0.011238      0.009276     -0.021120
      6.30059      5.65746      6.86588         0.005311      0.000428      0.011738
     11.57464      5.64731      1.11818        -0.013887      0.024596     -0.010276
      6.28689      5.64718      1.12036         0.013056      0.017693     -0.021528
      7.60477      6.41802      3.02605         0.013628     -0.013399      0.038203
      6.28706      4.13029      3.03044         0.047210      0.025853      0.050702
      3.63376      2.60388      4.94190        -0.010766     -0.009063     -0.002624
     10.22418      3.38641      6.85606        -0.019416      0.001944     -0.001802
     10.25662      3.36685      1.11930        -0.028278      0.002052     -0.020838
     10.24595      0.32558      4.94814        -0.011665     -0.007340     -0.025859
      8.92091      7.17244      4.95655        -0.000031      0.018160     -0.000105
     10.23294      4.90021      4.95701         0.015065     -0.011351      0.000482
      6.29060      7.17757      4.95443         0.009448      0.012940     -0.006263
      4.96649      0.32726      4.94183         0.008972      0.005779     -0.019366
      4.96652      6.41710      3.02983         0.012120      0.006783      0.025389
      7.60542      0.32447      4.94668         0.006087     -0.009338     -0.022786
      8.92508      1.09285      6.83256        -0.004640     -0.003226     -0.029286
     10.24196      7.94822      6.83544         0.004829     -0.022953     -0.021315
      8.93363      1.08195      1.11845        -0.012873     -0.013399     -0.009950
     10.25000      7.94040      1.11577         0.004170     -0.008012     -0.007949
      4.97496      4.89834      4.95365        -0.004123     -0.009714     -0.024500
     11.55960      2.61384      4.94963         0.002548     -0.000786     -0.020289
     14.20712      8.70425      3.02508         0.012420      0.003483      0.015624
      8.92258      2.61813      4.95255         0.013200      0.003176     -0.002054
      6.29107      2.61796      4.95216        -0.009165      0.001251     -0.021617
     14.20634      8.71679      8.97293         0.000253     -0.003335      0.016300
      3.63074      4.13993      8.96886         0.005327     -0.014851     -0.005047
      6.27747      8.72017      8.97785        -0.007358     -0.005667      0.005534
     11.57664      4.13134      8.96062        -0.001058     -0.016134     -0.001769
      8.92059      8.73081      8.96106        -0.010068     -0.001884     -0.001897
     10.24474      1.84845      8.97787        -0.000594     -0.012296      0.004674
      2.31381      1.84988      8.97066         0.037051      0.019350      0.000528
     11.56661      8.72512      8.96849        -0.004965     -0.006884      0.009257
     12.89514      6.42589      8.96916        -0.007725     -0.011894      0.009751
      4.95530      1.84533      8.96840        -0.008238      0.004796     -0.002519
      7.58053      6.46315      9.10829        -0.010045     -0.019348      0.026876
      8.94209      4.10483      9.10460        -0.019642     -0.004050      0.016468
      4.94457      6.43749      8.96387         0.026641      0.002880      0.000501
      7.60131      1.83506      8.96255         0.025515      0.013795      0.002589
      6.23035      4.11071      9.03109         0.020759      0.008706      0.011548
     10.29490      6.45810      9.02685         0.022593      0.002588      0.013795
      7.38930      4.79692     10.09096        -0.005698      0.002105      0.011790
      9.13987      5.78765     10.08386         0.006496      0.002869      0.039599
 -----------------------------------------------------------------------------------
    total drift:                                0.014658      0.037865      0.102104


--------------------------------------------------------------------------------------------------------



  FREE ENERGIE OF THE ION-ELECTRON SYSTEM (eV)
  ---------------------------------------------------
  free  energy   TOTEN  =      -461.12384471 eV

  energy  without entropy=     -461.12384471  energy(sigma->0) =     -461.12384471
 


--------------------------------------------------------------------------------------------------------


    POTLOK:  cpu time    0.4426: real time    0.4437


--------------------------------------------------------------------------------------------------------


 Finite differences:
   Step               POTIM =   1.000000000000000E-002
   Degrees of freedom DOF   =            0
 
 SECOND DERIVATIVES (NOT SYMMETRIZED)
 ------------------------------------
      
 
 Error while diagonalisation DSYEV INFO=          -5
 Some of (or all) eigenvectors and eigenvalues are not correct !
 
 Eigenvectors and eigenvalues of the dynamical matrix
 ----------------------------------------------------
 
 
 Finite differences POTIM=  1.000000000000000E-002
  LATTYP: Found a hexagonal cell.
 ALAT       =    10.5600004196
 C/A-ratio  =     2.0833332505
  
  Lattice vectors:
  
 A1 = (   5.2800002098,  -9.1452286274,   0.0000000000)
 A2 = ( -10.5600004196,   0.0000000000,   0.0000000000)
 A3 = (   0.0000000000,   0.0000000000, -22.0000000000)


Analysis of symmetry for initial positions (statically):
=====================================================================
 Subroutine PRICEL returns:
 Original cell was already a primitive cell.
 

 Routine SETGRP: Setting up the symmetry group for a 
 hexagonal supercell.


 Subroutine GETGRP returns: Found  1 space group operations
 (whereof  1 operations were pure point group operations)
 out of a pool of 24 trial point group operations.


The static configuration has the point symmetry C_1 .


Analysis of symmetry for dynamics (positions and initial velocities):
=====================================================================
 Subroutine PRICEL returns:
 Original cell was already a primitive cell.
 

 Routine SETGRP: Setting up the symmetry group for a 
 hexagonal supercell.


 Subroutine GETGRP returns: Found  1 space group operations
 (whereof  1 operations were pure point group operations)
 out of a pool of 24 trial point group operations.


The dynamic configuration has the point symmetry C_1 .


Analysis of constrained symmetry for selective dynamics:
=====================================================================
 Subroutine PRICEL returns:
 Original cell was already a primitive cell.
 

 Routine SETGRP: Setting up the symmetry group for a 
 hexagonal supercell.


 Subroutine GETGRP returns: Found  1 space group operations
 (whereof  1 operations were pure point group operations)
 out of a pool of 24 trial point group operations.


The constrained configuration has the point symmetry C_1 .


Analysis of structural, dynamic, and magnetic symmetry:
=====================================================================
 Subroutine PRICEL returns:
 Original cell was already a primitive cell.
 

 Routine SETGRP: Setting up the symmetry group for a 
 hexagonal supercell.


 Subroutine GETGRP returns: Found  1 space group operations
 (whereof  1 operations were pure point group operations)
 out of a pool of 24 trial point group operations.


The magnetic configuration has the point symmetry C_1 .


 Subroutine INISYM returns: Found  1 space group operations
 (whereof  1 operations are pure point group operations),
 and found     1 'primitive' translations

 
 KPOINTS: mesh auto                               

Automatic generation of k-mesh.
Space group operators:
 irot       det(A)        alpha          n_x          n_y          n_z        tau_x        tau_y        tau_z
    1     1.000000     0.000001     1.000000     0.000000     0.000000     0.000000     0.000000     0.000000
 
 Subroutine IBZKPT returns following result:
 ===========================================
 
 Found      4 irreducible k-points:
 
 Following reciprocal coordinates:
            Coordinates               Weight
  0.000000  0.000000  0.000000      1.000000
  0.500000  0.000000  0.000000      1.000000
  0.000000  0.500000  0.000000      1.000000
  0.500000  0.500000  0.000000      1.000000
 
 Following cartesian coordinates:
            Coordinates               Weight
  0.000000  0.000000  0.000000      1.000000
  0.047348 -0.027337  0.000000      1.000000
  0.000000  0.054673  0.000000      1.000000
  0.047348  0.027337  0.000000      1.000000
 
 TETIRR: Found     12 inequivalent tetrahedra from       24
     LOOP+:  cpu time 4751.2729: real time 4763.6315
    4ORBIT:  cpu time    0.0000: real time    0.0000
 BZINTS: Fermi energy:  1.571439;802.000000 electrons
         Band energy:-630.983465;  BLOECHL correction: -0.270351

 total amount of memory used by VASP MPI-rank0   364367. kBytes
=======================================================================

   base      :      30000. kBytes
   nonlr-proj:      83549. kBytes
   fftplans  :      13995. kBytes
   grid      :     120016. kBytes
   one-center:       2550. kBytes
   wavefun   :     114257. kBytes
 
  
  
 General timing and accounting informations for this job:
 ========================================================
  
                  Total CPU time used (sec):     4771.607
                            User time (sec):     4761.033
                          System time (sec):       10.574
                         Elapsed time (sec):     4785.127
  
                   Maximum memory used (kb):     1032452.
                   Average memory used (kb):           0.
  
                          Minor page faults:      1822148
                          Major page faults:            0
                 Voluntary context switches:         6307
