 vasp.5.4.4.18Apr17-6-g9f103f2a35 (build Oct 25 2019 11:13:22) complex          
  
 executed on             LinuxIFC date 2022.02.03  10:29:12
 running on   48 total cores
 distrk:  each k-point on   48 cores,    1 groups
 distr:  one band on NCORES_PER_BAND=   1 cores,   48 groups


--------------------------------------------------------------------------------------------------------


 INCAR:
 POTCAR:    PAW_PBE Pt 04Feb2005                  
 POTCAR:    PAW_PBE Fe 06Sep2000                  
 POTCAR:    PAW_PBE Co 02Aug2007                  
 POTCAR:    PAW_PBE Cu 22Jun2005                  
 POTCAR:    PAW_PBE Ni 02Aug2007                  
 POTCAR:    PAW_PBE H 15Jun2001                   

 ----------------------------------------------------------------------------- 
|                                                                             |
|           W    W    AA    RRRRR   N    N  II  N    N   GGGG   !!!           |
|           W    W   A  A   R    R  NN   N  II  NN   N  G    G  !!!           |
|           W    W  A    A  R    R  N N  N  II  N N  N  G       !!!           |
|           W WW W  AAAAAA  RRRRR   N  N N  II  N  N N  G  GGG   !            |
|           WW  WW  A    A  R   R   N   NN  II  N   NN  G    G                |
|           W    W  A    A  R    R  N    N  II  N    N   GGGG   !!!           |
|                                                                             |
|      For optimal performance we recommend to set                            |
|        NCORE= 4 - approx SQRT( number of cores)                             |
|      NCORE specifies how many cores store one orbital (NPAR=cpu/NCORE).     |
|      This setting can  greatly improve the performance of VASP for DFT.     |
|      The default,   NCORE=1            might be grossly inefficient         |
|      on modern multi-core architectures or massively parallel machines.     |
|      Do your own testing !!!!                                               |
|      Unfortunately you need to use the default for GW and RPA calculations. |
|      (for HF NCORE is supported but not extensively tested yet)             |
|                                                                             |
 ----------------------------------------------------------------------------- 

 POTCAR:    PAW_PBE Pt 04Feb2005                  
   VRHFIN =Pt: s1d9                                                             
   LEXCH  = PE                                                                  
   EATOM  =   729.1176 eV,   53.5886 Ry                                         
                                                                                
   TITEL  = PAW_PBE Pt 04Feb2005                                                
   LULTRA =        F    use ultrasoft PP ?                                      
   IUNSCR =        1    unscreen: 0-lin 1-nonlin 2-no                           
   RPACOR =    2.330    partial core radius                                     
   POMASS =  195.080; ZVAL   =   10.000    mass and valenz                      
   RCORE  =    2.600    outmost cutoff radius                                   
   RWIGS  =    2.750; RWIGS  =    1.455    wigner-seitz radius (au A)           
   ENMAX  =  230.283; ENMIN  =  172.712 eV                                      
   ICORE  =        3    local potential                                         
   LCOR   =        T    correct aug charges                                     
   LPAW   =        T    paw PP                                                  
   EAUG   =  358.966                                                            
   DEXC   =    0.000                                                            
   RMAX   =    2.658    core radius for proj-oper                               
   RAUG   =    1.300    factor for augmentation sphere                          
   RDEP   =    2.761    radius for radial grids                                 
   RDEPT  =    2.203    core radius for aug-charge                              
                                                                                
   Atomic configuration                                                         
   16 entries                                                                   
     n  l   j            E        occ.                                          
     1  0  0.50    -78401.1885   2.0000                                         
     2  0  0.50    -13770.7750   2.0000                                         
     2  1  1.50    -11931.0468   6.0000                                         
     3  0  0.50     -3234.7234   2.0000                                         
     3  1  1.50     -2699.2216   6.0000                                         
     3  2  2.50     -2119.5714  10.0000                                         
     4  0  0.50      -695.1528   2.0000                                         
     4  1  1.50      -519.6034   6.0000                                         
     4  2  2.50      -306.6786  10.0000                                         
     4  3  3.50       -70.1041  14.0000                                         
     5  0  0.50      -101.7747   2.0000                                         
     5  1  1.50       -55.9873   6.0000                                         
     5  2  2.50        -6.1423   9.0000                                         
     6  0  0.50        -5.6573   1.0000                                         
     6  1  1.50        -6.8029   0.0000                                         
     5  3  2.50        -1.3606   0.0000                                         
   Description                                                                  
     l       E           TYP  RCUT    TYP  RCUT                                 
     2     -6.1423404     23  2.500                                             
     2     -7.5029230     23  2.500                                             
     0     -5.6573207     23  2.500                                             
     0      0.7416693     23  2.500                                             
     1     -2.7211652     23  2.600                                             
     1     20.4087390     23  2.600                                             
     3     -1.3605826     23  2.500                                             
  local pseudopotential read in
  partial core-charges read in
  partial kinetic energy density read in
  atomic valenz-charges read in
  non local Contribution for L=           2  read in
    real space projection operators read in
  non local Contribution for L=           2  read in
    real space projection operators read in
  non local Contribution for L=           0  read in
    real space projection operators read in
  non local Contribution for L=           0  read in
    real space projection operators read in
  non local Contribution for L=           1  read in
    real space projection operators read in
  non local Contribution for L=           1  read in
    real space projection operators read in
    PAW grid and wavefunctions read in
 
   number of l-projection  operators is LMAX  =           6
   number of lm-projection operators is LMMAX =          18
 
 POTCAR:    PAW_PBE Fe 06Sep2000                  
   VRHFIN =Fe:  d7 s1                                                           
   LEXCH  = PE                                                                  
   EATOM  =   594.3153 eV,   43.6809 Ry                                         
                                                                                
   TITEL  = PAW_PBE Fe 06Sep2000                                                
   LULTRA =        F    use ultrasoft PP ?                                      
   IUNSCR =        1    unscreen: 0-lin 1-nonlin 2-no                           
   RPACOR =    2.000    partial core radius                                     
   POMASS =   55.847; ZVAL   =    8.000    mass and valenz                      
   RCORE  =    2.300    outmost cutoff radius                                   
   RWIGS  =    2.460; RWIGS  =    1.302    wigner-seitz radius (au A)           
   ENMAX  =  267.882; ENMIN  =  200.911 eV                                      
   RCLOC  =    1.701    cutoff for local pot                                    
   LCOR   =        T    correct aug charges                                     
   LPAW   =        T    paw PP                                                  
   EAUG   =  511.368                                                            
   DEXC   =    0.000                                                            
   RMAX   =    2.356    core radius for proj-oper                               
   RAUG   =    1.300    factor for augmentation sphere                          
   RDEP   =    2.442    radius for radial grids                                 
   RDEPT  =    1.890    core radius for aug-charge                              
                                                                                
   Atomic configuration                                                         
    9 entries                                                                   
     n  l   j            E        occ.                                          
     1  0  0.50     -6993.8440   2.0000                                         
     2  0  0.50      -814.6047   2.0000                                         
     2  1  1.50      -693.3689   6.0000                                         
     3  0  0.50       -89.4732   2.0000                                         
     3  1  1.50       -55.6373   6.0000                                         
     3  2  2.50        -3.8151   7.0000                                         
     4  0  0.50        -4.2551   1.0000                                         
     4  1  1.50        -3.4015   0.0000                                         
     4  3  2.50        -1.3606   0.0000                                         
   Description                                                                  
     l       E           TYP  RCUT    TYP  RCUT                                 
     2     -3.8151135     23  2.300                                             
     2     -5.1756961     23  2.300                                             
     0     -4.2550963     23  2.300                                             
     0      7.2035603     23  2.300                                             
     1     -2.7211652     23  2.300                                             
     1     18.4316424     23  2.300                                             
  local pseudopotential read in
  partial core-charges read in
  partial kinetic energy density read in
  atomic valenz-charges read in
  non local Contribution for L=           2  read in
    real space projection operators read in
  non local Contribution for L=           2  read in
    real space projection operators read in
  non local Contribution for L=           0  read in
    real space projection operators read in
  non local Contribution for L=           0  read in
    real space projection operators read in
  non local Contribution for L=           1  read in
    real space projection operators read in
  non local Contribution for L=           1  read in
    real space projection operators read in
    PAW grid and wavefunctions read in
 
   number of l-projection  operators is LMAX  =           6
   number of lm-projection operators is LMMAX =          18
 
 POTCAR:    PAW_PBE Co 02Aug2007                  
   VRHFIN =Co: d8 s1                                                            
   LEXCH  = PE                                                                  
   EATOM  =   813.3670 eV,   59.7808 Ry                                         
                                                                                
   TITEL  = PAW_PBE Co 02Aug2007                                                
   LULTRA =        F    use ultrasoft PP ?                                      
   IUNSCR =        1    unscreen: 0-lin 1-nonlin 2-no                           
   RPACOR =    2.000    partial core radius                                     
   POMASS =   58.933; ZVAL   =    9.000    mass and valenz                      
   RCORE  =    2.300    outmost cutoff radius                                   
   RWIGS  =    2.460; RWIGS  =    1.302    wigner-seitz radius (au A)           
   ENMAX  =  267.968; ENMIN  =  200.976 eV                                      
   RCLOC  =    1.203    cutoff for local pot                                    
   LCOR   =        T    correct aug charges                                     
   LPAW   =        T    paw PP                                                  
   EAUG   =  477.818                                                            
   DEXC   =    0.000                                                            
   RMAX   =    2.360    core radius for proj-oper                               
   RAUG   =    1.300    factor for augmentation sphere                          
   RDEP   =    2.393    radius for radial grids                                 
   RDEPT  =    1.864    core radius for aug-charge                              
                                                                                
   Atomic configuration                                                         
    9 entries                                                                   
     n  l   j            E        occ.                                          
     1  0  0.50     -7587.6674   2.0000                                         
     2  0  0.50      -893.6084   2.0000                                         
     2  1  1.50      -764.5805   6.0000                                         
     3  0  0.50       -97.5973   2.0000                                         
     3  1  1.50       -60.9648   6.0000                                         
     3  2  2.50        -4.2382   8.0000                                         
     4  0  0.50        -4.3746   1.0000                                         
     4  1  1.50        -4.0817   0.0000                                         
     4  3  2.50        -1.3606   0.0000                                         
   Description                                                                  
     l       E           TYP  RCUT    TYP  RCUT                                 
     2     -4.2382362     23  2.300                                             
     2     -5.5988188     23  2.300                                             
     0     -4.3745797     23  2.300                                             
     0      5.7660125     23  2.300                                             
     1     -2.7211652     23  2.300                                             
     1     16.9860234     23  2.300                                             
  local pseudopotential read in
  partial core-charges read in
  partial kinetic energy density read in
  atomic valenz-charges read in
  non local Contribution for L=           2  read in
    real space projection operators read in
  non local Contribution for L=           2  read in
    real space projection operators read in
  non local Contribution for L=           0  read in
    real space projection operators read in
  non local Contribution for L=           0  read in
    real space projection operators read in
  non local Contribution for L=           1  read in
    real space projection operators read in
  non local Contribution for L=           1  read in
    real space projection operators read in
    PAW grid and wavefunctions read in
 
   number of l-projection  operators is LMAX  =           6
   number of lm-projection operators is LMMAX =          18
 
 POTCAR:    PAW_PBE Cu 22Jun2005                  
   VRHFIN =Cu: d10 p1                                                           
   LEXCH  = PE                                                                  
   EATOM  =  1390.9808 eV,  102.2342 Ry                                         
                                                                                
   TITEL  = PAW_PBE Cu 22Jun2005                                                
   LULTRA =        F    use ultrasoft PP ?                                      
   IUNSCR =        1    unscreen: 0-lin 1-nonlin 2-no                           
   RPACOR =    2.000    partial core radius                                     
   POMASS =   63.546; ZVAL   =   11.000    mass and valenz                      
   RCORE  =    2.300    outmost cutoff radius                                   
   RWIGS  =    2.200; RWIGS  =    1.164    wigner-seitz radius (au A)           
   ENMAX  =  295.446; ENMIN  =  221.585 eV                                      
   ICORE  =        3    local potential                                         
   LCOR   =        T    correct aug charges                                     
   LPAW   =        T    paw PP                                                  
   EAUG   =  586.980                                                            
   DEXC   =    0.000                                                            
   RMAX   =    2.344    core radius for proj-oper                               
   RAUG   =    1.300    factor for augmentation sphere                          
   RDEP   =    2.302    radius for radial grids                                 
   RDEPT  =    1.771    core radius for aug-charge                              
                                                                                
   Atomic configuration                                                         
    9 entries                                                                   
     n  l   j            E        occ.                                          
     1  0  0.50     -8850.2468   2.0000                                         
     2  0  0.50     -1062.3498   2.0000                                         
     2  1  1.50      -916.8226   6.0000                                         
     3  0  0.50      -114.6929   2.0000                                         
     3  1  1.50       -72.1325   6.0000                                         
     3  2  2.50        -5.0394  10.0000                                         
     4  0  0.50        -4.6097   1.0000                                         
     4  1  0.50        -4.0817   0.0000                                         
     4  3  2.50        -1.3606   0.0000                                         
   Description                                                                  
     l       E           TYP  RCUT    TYP  RCUT                                 
     2     -5.0393973     23  2.200                                             
     2     10.8846608     23  2.200                                             
     0     -4.6097109     23  2.200                                             
     0      8.2520465     23  2.200                                             
     1     -2.7211652     23  2.200                                             
     1     21.7055443     23  2.200                                             
     3      2.7211652     23  2.300                                             
  local pseudopotential read in
  partial core-charges read in
  partial kinetic energy density read in
  atomic valenz-charges read in
  non local Contribution for L=           2  read in
    real space projection operators read in
  non local Contribution for L=           2  read in
    real space projection operators read in
  non local Contribution for L=           0  read in
    real space projection operators read in
  non local Contribution for L=           0  read in
    real space projection operators read in
  non local Contribution for L=           1  read in
    real space projection operators read in
  non local Contribution for L=           1  read in
    real space projection operators read in
    PAW grid and wavefunctions read in
 
   number of l-projection  operators is LMAX  =           6
   number of lm-projection operators is LMMAX =          18
 
 POTCAR:    PAW_PBE Ni 02Aug2007                  
   VRHFIN =Ni:                                                                  
   LEXCH  = PE                                                                  
   EATOM  =  1077.6739 eV,   79.2068 Ry                                         
                                                                                
   TITEL  = PAW_PBE Ni 02Aug2007                                                
   LULTRA =        F    use ultrasoft PP ?                                      
   IUNSCR =        1    unscreen: 0-lin 1-nonlin 2-no                           
   RPACOR =    2.000    partial core radius                                     
   POMASS =   58.690; ZVAL   =   10.000    mass and valenz                      
   RCORE  =    2.300    outmost cutoff radius                                   
   RWIGS  =    2.430; RWIGS  =    1.286    wigner-seitz radius (au A)           
   ENMAX  =  269.532; ENMIN  =  202.149 eV                                      
   RCLOC  =    1.201    cutoff for local pot                                    
   LCOR   =        T    correct aug charges                                     
   LPAW   =        T    paw PP                                                  
   EAUG   =  544.565                                                            
   DEXC   =    0.000                                                            
   RMAX   =    2.357    core radius for proj-oper                               
   RAUG   =    1.300    factor for augmentation sphere                          
   RDEP   =    2.390    radius for radial grids                                 
   RDEPT  =    1.838    core radius for aug-charge                              
                                                                                
   Atomic configuration                                                         
    9 entries                                                                   
     n  l   j            E        occ.                                          
     1  0  0.50     -8206.4253   2.0000                                         
     2  0  0.50      -976.1748   2.0000                                         
     2  1  1.50      -839.0571   6.0000                                         
     3  0  0.50      -105.9991   2.0000                                         
     3  1  1.50       -66.4603   6.0000                                         
     3  2  2.50        -4.6458   9.0000                                         
     4  0  0.50        -4.4926   1.0000                                         
     4  1  1.50        -4.0817   0.0000                                         
     4  3  2.50        -1.3606   0.0000                                         
   Description                                                                  
     l       E           TYP  RCUT    TYP  RCUT                                 
     2     -4.6457903     23  2.300                                             
     2     -6.0063729     23  2.300                                             
     0     -4.4925590     23  2.300                                             
     0      5.0102601     23  2.300                                             
     1     -2.7211652     23  2.300                                             
     1     16.5183231     23  2.300                                             
  local pseudopotential read in
  partial core-charges read in
  partial kinetic energy density read in
  atomic valenz-charges read in
  non local Contribution for L=           2  read in
    real space projection operators read in
  non local Contribution for L=           2  read in
    real space projection operators read in
  non local Contribution for L=           0  read in
    real space projection operators read in
  non local Contribution for L=           0  read in
    real space projection operators read in
  non local Contribution for L=           1  read in
    real space projection operators read in
  non local Contribution for L=           1  read in
    real space projection operators read in
    PAW grid and wavefunctions read in
 
   number of l-projection  operators is LMAX  =           6
   number of lm-projection operators is LMMAX =          18
 
 POTCAR:    PAW_PBE H 15Jun2001                   
   VRHFIN =H: ultrasoft test                                                    
   LEXCH  = PE                                                                  
   EATOM  =    12.4884 eV,    0.9179 Ry                                         
                                                                                
   TITEL  = PAW_PBE H 15Jun2001                                                 
   LULTRA =        F    use ultrasoft PP ?                                      
   IUNSCR =        0    unscreen: 0-lin 1-nonlin 2-no                           
   RPACOR =    0.000    partial core radius                                     
   POMASS =    1.000; ZVAL   =    1.000    mass and valenz                      
   RCORE  =    1.100    outmost cutoff radius                                   
   RWIGS  =    0.700; RWIGS  =    0.370    wigner-seitz radius (au A)           
   ENMAX  =  250.000; ENMIN  =  200.000 eV                                      
   RCLOC  =    0.701    cutoff for local pot                                    
   LCOR   =        T    correct aug charges                                     
   LPAW   =        T    paw PP                                                  
   EAUG   =  400.000                                                            
   RMAX   =    1.123    core radius for proj-oper                               
   RAUG   =    1.200    factor for augmentation sphere                          
   RDEP   =    1.112    radius for radial grids                                 
   RDEPT  =    0.926    core radius for aug-charge                              
                                                                                
   Atomic configuration                                                         
    2 entries                                                                   
     n  l   j            E        occ.                                          
     1  0  0.50        -6.4927   1.0000                                         
     2  1  0.50        -3.4015   0.0000                                         
   Description                                                                  
     l       E           TYP  RCUT    TYP  RCUT                                 
     0     -6.4927494     23  1.100                                             
     0      6.8029130     23  1.100                                             
     1     -4.0817478     23  1.100                                             
  local pseudopotential read in
  atomic valenz-charges read in
  non local Contribution for L=           0  read in
    real space projection operators read in
  non local Contribution for L=           0  read in
    real space projection operators read in
  non local Contribution for L=           1  read in
    real space projection operators read in
    PAW grid and wavefunctions read in
 
   number of l-projection  operators is LMAX  =           3
   number of lm-projection operators is LMMAX =           5
 
 Optimization of the real space projectors (new method)

 maximal supplied QI-value         = 14.36
 optimisation between [QCUT,QGAM] = [ 11.92, 23.98] = [ 39.79,161.09] Ry 
 Optimized for a Real-space Cutoff    1.49 Angstroem

   l    n(q)    QCUT    max X(q) W(low)/X(q) W(high)/X(q)  e(spline) 
   2     10    11.920    66.195    0.79E-04    0.18E-03    0.24E-06
   2     10    11.920    64.643    0.81E-04    0.19E-03    0.24E-06
   0     11    11.920    95.520    0.28E-04    0.54E-04    0.18E-06
   0     11    11.920    63.403    0.27E-04    0.52E-04    0.17E-06
   1     10    11.920    19.961    0.18E-04    0.11E-03    0.23E-06
   1     10    11.920    13.289    0.25E-04    0.87E-04    0.19E-06
 Optimization of the real space projectors (new method)

 maximal supplied QI-value         = 16.25
 optimisation between [QCUT,QGAM] = [ 11.86, 23.89] = [ 39.41,159.82] Ry 
 Optimized for a Real-space Cutoff    1.49 Angstroem

   l    n(q)    QCUT    max X(q) W(low)/X(q) W(high)/X(q)  e(spline) 
   2     10    11.864    80.901    0.13E-03    0.23E-03    0.37E-06
   2     10    11.864    75.754    0.13E-03    0.23E-03    0.38E-06
   0     11    11.864    58.752    0.44E-04    0.11E-04    0.20E-06
   0     11    11.864    30.679    0.36E-04    0.10E-04    0.18E-06
   1     10    11.864    17.977    0.31E-04    0.45E-04    0.10E-06
   1     10    11.864    13.559    0.25E-04    0.37E-04    0.89E-07
 Optimization of the real space projectors (new method)

 maximal supplied QI-value         = 16.25
 optimisation between [QCUT,QGAM] = [ 11.86, 23.89] = [ 39.41,159.82] Ry 
 Optimized for a Real-space Cutoff    1.33 Angstroem

   l    n(q)    QCUT    max X(q) W(low)/X(q) W(high)/X(q)  e(spline) 
   2      9    11.864    65.824    0.22E-03    0.53E-03    0.26E-06
   2      9    11.864    61.429    0.22E-03    0.53E-03    0.26E-06
   0      9    11.864    56.174    0.21E-03    0.32E-04    0.15E-06
   0      9    11.864    31.263    0.19E-03    0.30E-04    0.14E-06
   1      9    11.864    19.828    0.63E-04    0.30E-03    0.16E-06
   1      9    11.864    15.139    0.49E-04    0.25E-03    0.13E-06
 Optimization of the real space projectors (new method)

 maximal supplied QI-value         = 16.25
 optimisation between [QCUT,QGAM] = [ 11.86, 23.89] = [ 39.41,159.82] Ry 
 Optimized for a Real-space Cutoff    1.49 Angstroem

   l    n(q)    QCUT    max X(q) W(low)/X(q) W(high)/X(q)  e(spline) 
   2     10    11.864     4.610    0.10E-03    0.20E-03    0.29E-06
   2     10    11.864     8.522    0.17E-03    0.33E-03    0.50E-06
   0     11    11.864    51.609    0.52E-04    0.55E-04    0.33E-06
   0     11    11.864    27.747    0.46E-04    0.52E-04    0.31E-06
   1     10    11.864    20.408    0.54E-04    0.25E-04    0.21E-06
   1     10    11.864    13.425    0.48E-04    0.22E-04    0.18E-06
 Optimization of the real space projectors (new method)

 maximal supplied QI-value         = 16.25
 optimisation between [QCUT,QGAM] = [ 11.86, 23.89] = [ 39.41,159.82] Ry 
 Optimized for a Real-space Cutoff    1.33 Angstroem

   l    n(q)    QCUT    max X(q) W(low)/X(q) W(high)/X(q)  e(spline) 
   2      9    11.864    60.317    0.21E-03    0.51E-03    0.25E-06
   2      9    11.864    55.921    0.21E-03    0.51E-03    0.26E-06
   0      9    11.864    51.690    0.22E-03    0.30E-04    0.17E-06
   0      9    11.864    30.015    0.20E-03    0.28E-04    0.15E-06
   1      9    11.864    18.849    0.76E-04    0.33E-03    0.17E-06
   1      9    11.864    14.624    0.60E-04    0.28E-03    0.15E-06
 Optimization of the real space projectors (new method)

 maximal supplied QI-value         = 34.20
 optimisation between [QCUT,QGAM] = [ 11.97, 23.94] = [ 40.13,160.53] Ry 
 Optimized for a Real-space Cutoff    1.18 Angstroem

   l    n(q)    QCUT    max X(q) W(low)/X(q) W(high)/X(q)  e(spline) 
   0      8    11.971    19.460    0.15E-03    0.31E-03    0.25E-06
   0      8    11.971    12.209    0.13E-03    0.29E-03    0.25E-06
   1      8    11.971     4.655    0.22E-03    0.24E-03    0.21E-06
  PAW_PBE Pt 04Feb2005                  :
 energy of atom  1       EATOM= -729.1176
 kinetic energy error for atom=    0.0021 (will be added to EATOM!!)
  PAW_PBE Fe 06Sep2000                  :
 energy of atom  2       EATOM= -594.3153
 kinetic energy error for atom=    0.0024 (will be added to EATOM!!)
  PAW_PBE Co 02Aug2007                  :
 energy of atom  3       EATOM= -813.3670
 kinetic energy error for atom=    0.0026 (will be added to EATOM!!)
  PAW_PBE Cu 22Jun2005                  :
 energy of atom  4       EATOM=-1390.9808
 kinetic energy error for atom=    0.0036 (will be added to EATOM!!)
  PAW_PBE Ni 02Aug2007                  :
 energy of atom  5       EATOM=-1077.6739
 kinetic energy error for atom=    0.0027 (will be added to EATOM!!)
  PAW_PBE H 15Jun2001                   :
 energy of atom  6       EATOM=  -12.4884
 kinetic energy error for atom=    0.0008 (will be added to EATOM!!)
 
 
 POSCAR: 11.26                                   
  positions in cartesian coordinates
  No initial velocities read in
 exchange correlation table for  LEXCH =        8
   RHO(1)=    0.500       N(1)  =     2000
   RHO(2)=  100.500       N(2)  =     4000
 


--------------------------------------------------------------------------------------------------------


 ion  position               nearest neighbor table
   1  0.782  0.871  0.305-  49 2.52  59 2.61  28 2.68  61 2.75  33 2.79  19 2.79   4 2.79   2 2.81
                            11 2.81  29 2.84  12 2.84  60 2.87
   2  0.032  0.871  0.300-  79 2.51  77 2.55  28 2.77  33 2.77  30 2.78   1 2.81   4 2.81  60 2.83
                             6 2.84  16 2.92  22 2.98  52 3.10
   3  0.278  0.363  0.314-  64 2.54  68 2.66  31 2.66  39 2.71   5 2.72  43 2.75  13 2.75  25 2.78
                            19 2.80  30 2.82  33 2.86  18 2.97
   4  0.870  0.958  0.406-  60 2.65   9 2.75  17 2.77   6 2.77  12 2.79  11 2.79   1 2.79   2 2.81
                            16 2.81
   5  0.110  0.463  0.413-  39 2.63  33 2.69   7 2.72   3 2.72  12 2.73  16 2.74  10 2.80  25 2.83
                            13 2.99
   6  0.121  0.949  0.406-  52 2.62  22 2.72  14 2.73  16 2.77   4 2.77   9 2.82   8 2.83   2 2.84
                            10 2.93
   7  0.877  0.446  0.418-  81 1.97  39 2.62  75 2.66   5 2.72  10 2.73  29 2.77   9 2.78  15 2.87
                            12 2.92  27 2.96
   8  0.370  0.954  0.415-  52 2.54  43 2.57  61 2.73  27 2.74  13 2.75  10 2.79  14 2.80   6 2.83
                            11 2.84
   9  0.872  0.201  0.407-  75 2.62  60 2.65  22 2.75   4 2.75   7 2.78  17 2.78   6 2.82  15 2.83
                            10 2.88
  10  0.125  0.207  0.413-  39 2.65  43 2.66  22 2.72   7 2.73  13 2.75   8 2.79   5 2.80   9 2.88
                             6 2.93
  11  0.625  0.951  0.412-  61 2.66  12 2.73  19 2.74  27 2.76  13 2.78   4 2.79   1 2.81  17 2.82
                             8 2.84
  12  0.870  0.709  0.412-  33 2.67  29 2.70   5 2.73  11 2.73  16 2.74   4 2.79   1 2.84  27 2.87
                             7 2.92
  13  0.376  0.196  0.415-  43 2.64  19 2.74  10 2.75   3 2.75   8 2.75  11 2.78  17 2.82  25 2.84
                             5 2.99
  14  0.366  0.707  0.407-  44 2.56  52 2.61   6 2.73   8 2.80  27 2.81  16 2.81  30 2.82  25 2.84
                            15 2.85
  15  0.619  0.451  0.413-  81 1.79  44 2.62  75 2.63  18 2.75  17 2.76  25 2.82   9 2.83  14 2.85
                             7 2.87  27 2.88
  16  0.117  0.704  0.410-  33 2.65  30 2.69   5 2.74  12 2.74   6 2.77  25 2.81  14 2.81   4 2.81
                             2 2.92
  17  0.623  0.204  0.410-  60 2.69  18 2.74  15 2.76   4 2.77  19 2.77   9 2.78  13 2.82  11 2.82
                            25 2.84
  18  0.536  0.373  0.310-  67 2.53  68 2.64  26 2.68  17 2.74  15 2.75  44 2.76  60 2.78  25 2.78
                            75 2.83  30 2.87  19 2.90   3 2.97
  19  0.532  0.117  0.311-  80 2.52  68 2.53  59 2.57  43 2.67  11 2.74  13 2.74  61 2.75  17 2.77
                             1 2.79   3 2.80  60 2.88  18 2.90
  20  0.557  0.109  0.059-  37 2.52  48 2.53  57 2.55  62 2.63  34 2.71  63 2.75  56 2.89  45 3.25

  21  0.093  0.426  0.123-  47 2.48  40 2.50  36 2.53  70 2.60  42 2.61  69 2.66  31 2.74  57 2.74
                            64 2.76  50 2.79
  22  0.051  0.126  0.310-  77 2.51  65 2.53  55 2.56  43 2.69  39 2.72   6 2.72  10 2.72   9 2.75
                            52 2.78  75 2.95   2 2.98  60 2.99  31 3.30
  23  0.024  0.112  0.042-  40 2.53  41 2.56  70 2.59  62 2.65  24 2.72  45 2.74  35 2.80  76 2.81
                            53 2.86
  24  0.129  0.948  0.141-  79 2.49  35 2.53  77 2.57  55 2.58  70 2.60  53 2.61  58 2.68  73 2.68
                            23 2.72  66 2.78  38 2.80  41 2.95
  25  0.367  0.453  0.412-   3 2.78  18 2.78  30 2.79  16 2.81  15 2.82   5 2.83  13 2.84  17 2.84
                            14 2.84
  26  0.446  0.559  0.220-  73 2.48  74 2.49  51 2.53  79 2.55  30 2.61  44 2.65  18 2.68  32 2.72
                            78 2.74  67 2.97  58 3.06  68 3.13  64 3.14
  27  0.615  0.710  0.415-  81 1.84  44 2.66  61 2.67   8 2.74  11 2.76  29 2.78  14 2.81  12 2.87
                            15 2.88   7 2.96
  28  0.950  0.757  0.209-  58 2.57  50 2.57  66 2.61  42 2.62  33 2.64   1 2.68  49 2.69   2 2.77
                            64 2.78
  29  0.793  0.614  0.316-  42 2.56  49 2.63  32 2.64  39 2.65  75 2.65  12 2.70  33 2.75   7 2.77
                            27 2.78  44 2.82   1 2.84  61 2.85
  30  0.271  0.617  0.308-  79 2.52  26 2.61  33 2.64  64 2.68  16 2.69   2 2.78  25 2.79   3 2.82
                            14 2.82  18 2.87  44 3.04  52 3.16
  31  0.189  0.266  0.225-  70 2.50  55 2.57  57 2.59  43 2.61  39 2.62  65 2.65   3 2.66  21 2.74
                            64 2.76  42 2.84  80 2.85  68 3.01  22 3.30
  32  0.693  0.549  0.221-  69 2.52  54 2.57  49 2.58  51 2.59  44 2.63  29 2.64  78 2.67  75 2.69
                            42 2.71  26 2.72  67 2.75  65 2.79  50 3.30
  33  0.032  0.626  0.314-  30 2.64  28 2.64  16 2.65  64 2.67  12 2.67   5 2.69  42 2.72  29 2.75
                             2 2.77   1 2.79  39 2.81   3 2.86
  34  0.791  0.861  0.064-  48 2.37  50 2.40  66 2.51  36 2.70  20 2.71  62 2.82  63 2.83  35 2.86

  35  0.050  0.852  0.056-  36 2.39  24 2.53  66 2.57  58 2.66  72 2.69  23 2.80  34 2.86  53 2.90
                            62 2.93
  36  0.048  0.640  0.066-  35 2.39  47 2.52  21 2.53  58 2.57  50 2.59  34 2.70  72 2.75
  37  0.628  0.231  0.134-  67 2.48  51 2.49  74 2.50  56 2.50  20 2.52  41 2.53  59 2.53  62 2.56
                            68 2.61  66 2.82
  38  0.378  0.948  0.136-  45 2.38  80 2.45  55 2.46  53 2.47  73 2.51  63 2.51  78 2.52  54 2.58
                            48 2.62  57 2.79  24 2.80  70 2.85
  39  0.029  0.377  0.319-  42 2.61  31 2.62   7 2.62   5 2.63  65 2.64  10 2.65  29 2.65   3 2.71
                            22 2.72  75 2.73  33 2.81  43 3.02
  40  0.980  0.356  0.044-  69 2.33  76 2.41  21 2.50  23 2.53  71 2.54  70 2.64  45 3.11
  41  0.864  0.208  0.134-  77 2.39  76 2.41  69 2.49  67 2.50  37 2.53  23 2.56  65 2.57  62 2.59
                            66 2.61  70 2.67  51 2.84  24 2.95
  42  0.945  0.527  0.221-  50 2.47  29 2.56  39 2.61  65 2.61  21 2.61  28 2.62  69 2.65  32 2.71
                            64 2.71  33 2.72  49 2.75  31 2.84
  43  0.298  0.109  0.320-  55 2.51  52 2.53   8 2.57  31 2.61  80 2.61  13 2.64  10 2.66  19 2.67
                            22 2.69  61 2.71   3 2.75  39 3.02
  44  0.540  0.617  0.320-  14 2.56  15 2.62  32 2.63  26 2.65  27 2.66  78 2.66  75 2.68  18 2.76
                            61 2.82  29 2.82  52 2.84  30 3.04
  45  0.273  0.099  0.052-  38 2.38  53 2.39  70 2.41  57 2.59  63 2.73  23 2.74  40 3.11  20 3.25

  46  0.533  0.620  0.050-  51 2.36  73 2.40  54 2.41  71 2.45  72 2.60  56 2.76  53 2.78  76 2.82
                            63 2.89
  47  0.277  0.422  0.059-  74 2.25  72 2.41  21 2.48  36 2.52  56 2.59  57 2.67
  48  0.621  0.927  0.141-  49 2.29  34 2.37  80 2.44  54 2.48  63 2.51  20 2.53  38 2.62  59 2.63
                            50 2.71
  49  0.703  0.775  0.220-  48 2.29  50 2.43  54 2.51   1 2.52  32 2.58  78 2.59  29 2.63  61 2.63
                            28 2.69  42 2.75  80 2.80
  50  0.841  0.670  0.130-  71 2.37  34 2.40  49 2.43  54 2.44  42 2.47  28 2.57  69 2.58  36 2.59
                            48 2.71  21 2.79  32 3.30
  51  0.611  0.461  0.131-  46 2.36  76 2.42  37 2.49  26 2.53  56 2.54  74 2.57  69 2.58  32 2.59
                            67 2.64  73 2.79  54 2.82  41 2.84
  52  0.301  0.882  0.318-  55 2.38  79 2.38  78 2.53  43 2.53   8 2.54  14 2.61  61 2.61   6 2.62
                            22 2.78  44 2.84   2 3.10  30 3.16
  53  0.294  0.876  0.048-  45 2.39  73 2.42  38 2.47  24 2.61  63 2.70  46 2.78  72 2.80  23 2.86
                            35 2.90
  54  0.604  0.716  0.131-  46 2.41  50 2.44  71 2.46  63 2.47  73 2.47  48 2.48  49 2.51  78 2.54
                            32 2.57  38 2.58  51 2.82  69 2.98
  55  0.236  0.017  0.228-  52 2.38  38 2.46  79 2.46  80 2.51  43 2.51  78 2.53  22 2.56  31 2.57
                            24 2.58  70 2.67  77 3.03
  56  0.524  0.379  0.043-  74 2.46  37 2.50  51 2.54  76 2.59  47 2.59  72 2.66  46 2.76  20 2.89

  57  0.355  0.208  0.134-  68 2.51  20 2.55  31 2.59  45 2.59  80 2.65  47 2.67  21 2.74  38 2.79
                            74 2.84  70 2.86
  58  0.173  0.691  0.152-  79 2.43  72 2.43  64 2.43  73 2.56  36 2.57  28 2.57  35 2.66  24 2.68
                            74 2.68  26 3.06
  59  0.692  0.057  0.219-  66 2.44  37 2.53  60 2.55  19 2.57  68 2.60   1 2.61  48 2.63  80 2.85
                            77 2.89
  60  0.784  0.126  0.311-  77 2.48  67 2.49  59 2.55   9 2.65   4 2.65  17 2.69  18 2.78   2 2.83
                             1 2.87  75 2.88  19 2.88  22 2.99
  61  0.540  0.868  0.316-  78 2.43  80 2.55  52 2.61  49 2.63  11 2.66  27 2.67  43 2.71   8 2.73
                             1 2.75  19 2.75  44 2.82  29 2.85
  62  0.788  0.110  0.045-  66 2.50  37 2.56  41 2.59  76 2.62  20 2.63  23 2.65  34 2.82  35 2.93

  63  0.533  0.878  0.044-  54 2.47  48 2.51  38 2.51  53 2.70  45 2.73  20 2.75  34 2.83  46 2.89

  64  0.196  0.508  0.218-  58 2.43   3 2.54  74 2.63  33 2.67  30 2.68  42 2.71  68 2.73  31 2.76
                            21 2.76  28 2.78  26 3.14
  65  0.939  0.298  0.225-  69 2.45  22 2.53  77 2.55  75 2.55  67 2.56  41 2.57  42 2.61  70 2.62
                            39 2.64  31 2.65  32 2.79
  66  0.870  0.973  0.141-  59 2.44  77 2.46  62 2.50  34 2.51  35 2.57  41 2.61  28 2.61  24 2.78
                            37 2.82
  67  0.712  0.295  0.226-  37 2.48  60 2.49  41 2.50  18 2.53  65 2.56  75 2.56  77 2.58  51 2.64
                            32 2.75  26 2.97
  68  0.451  0.278  0.221-  74 2.41  57 2.51  19 2.53  59 2.60  37 2.61  18 2.64   3 2.66  64 2.73
                            80 2.80  31 3.01  26 3.13
  69  0.852  0.435  0.132-  40 2.33  71 2.42  65 2.45  76 2.49  41 2.49  32 2.52  51 2.58  50 2.58
                            42 2.65  21 2.66  70 2.85  54 2.98
  70  0.111  0.187  0.135-  45 2.41  31 2.50  23 2.59  24 2.60  21 2.60  65 2.62  40 2.64  41 2.67
                            55 2.67  38 2.85  69 2.85  57 2.86
  71  0.764  0.591  0.047-  50 2.37  69 2.42  46 2.45  54 2.46  40 2.54  76 2.65
  72  0.300  0.624  0.056-  47 2.41  58 2.43  73 2.46  74 2.54  46 2.60  56 2.66  35 2.69  36 2.75
                            53 2.80
  73  0.380  0.724  0.134-  46 2.40  53 2.42  72 2.46  54 2.47  26 2.48  38 2.51  78 2.53  79 2.56
                            58 2.56  24 2.68  51 2.79
  74  0.394  0.439  0.138-  47 2.25  68 2.41  56 2.46  26 2.49  37 2.50  72 2.54  51 2.57  64 2.63
                            58 2.68  57 2.84
  75  0.783  0.383  0.319-  65 2.55  67 2.56   9 2.62  15 2.63  29 2.65   7 2.66  44 2.68  32 2.69
                            39 2.73  18 2.83  60 2.88  22 2.95
  76  0.767  0.354  0.047-  41 2.41  40 2.41  51 2.42  69 2.49  56 2.59  62 2.62  71 2.65  23 2.81
                            46 2.82
  77  0.944  0.068  0.223-  41 2.39  66 2.46  60 2.48  22 2.51   2 2.55  65 2.55  24 2.57  67 2.58
                            59 2.89  55 3.03
  78  0.463  0.794  0.228-  61 2.43  38 2.52  79 2.52  55 2.53  52 2.53  73 2.53  54 2.54  80 2.57
                            49 2.59  44 2.66  32 2.67  26 2.74
  79  0.236  0.798  0.232-  52 2.38  58 2.43  55 2.46  24 2.49   2 2.51  30 2.52  78 2.52  26 2.55
                            73 2.56
  80  0.455  0.026  0.224-  48 2.44  38 2.45  55 2.51  19 2.52  61 2.55  78 2.57  43 2.61  57 2.65
                            49 2.80  68 2.80  31 2.85  59 2.85
  81  0.690  0.541  0.452-  15 1.79  27 1.84   7 1.97
 
  LATTYP: Found a hexagonal cell.
 ALAT       =    11.2227001190
 C/A-ratio  =     1.9603125600
  
  Lattice vectors:
  
 A1 = (   5.6113500595,  -9.7191434021,   0.0000000000)
 A2 = ( -11.2227001190,   0.0000000000,   0.0000000000)
 A3 = (   0.0000000000,   0.0000000000, -22.0000000000)


Analysis of symmetry for initial positions (statically):
=====================================================================
 Subroutine PRICEL returns:
 Original cell was already a primitive cell.
 

 Routine SETGRP: Setting up the symmetry group for a 
 hexagonal supercell.


 Subroutine GETGRP returns: Found  1 space group operations
 (whereof  1 operations were pure point group operations)
 out of a pool of 24 trial point group operations.


The static configuration has the point symmetry C_1 .


Analysis of symmetry for dynamics (positions and initial velocities):
=====================================================================
 Subroutine PRICEL returns:
 Original cell was already a primitive cell.
 

 Routine SETGRP: Setting up the symmetry group for a 
 hexagonal supercell.


 Subroutine GETGRP returns: Found  1 space group operations
 (whereof  1 operations were pure point group operations)
 out of a pool of 24 trial point group operations.


The dynamic configuration has the point symmetry C_1 .


Analysis of constrained symmetry for selective dynamics:
=====================================================================
 Subroutine PRICEL returns:
 Original cell was already a primitive cell.
 

 Routine SETGRP: Setting up the symmetry group for a 
 hexagonal supercell.


 Subroutine GETGRP returns: Found  1 space group operations
 (whereof  1 operations were pure point group operations)
 out of a pool of 24 trial point group operations.


The constrained configuration has the point symmetry C_1 .


Analysis of structural, dynamic, and magnetic symmetry:
=====================================================================
 Subroutine PRICEL returns:
 Original cell was already a primitive cell.
 

 Routine SETGRP: Setting up the symmetry group for a 
 hexagonal supercell.


 Subroutine GETGRP returns: Found  1 space group operations
 (whereof  1 operations were pure point group operations)
 out of a pool of 24 trial point group operations.


The magnetic configuration has the point symmetry C_1 .


 Subroutine INISYM returns: Found  1 space group operations
 (whereof  1 operations are pure point group operations),
 and found     1 'primitive' translations

 
 
 KPOINTS: mesh auto                               

Automatic generation of k-mesh.
Space group operators:
 irot       det(A)        alpha          n_x          n_y          n_z        tau_x        tau_y        tau_z
    1     1.000000     0.000000     1.000000     0.000000     0.000000     0.000000     0.000000     0.000000
 
 Subroutine IBZKPT returns following result:
 ===========================================
 
 Found      4 irreducible k-points:
 
 Following reciprocal coordinates:
            Coordinates               Weight
  0.000000  0.000000  0.000000      1.000000
  0.500000  0.000000  0.000000      1.000000
  0.000000  0.500000  0.000000      1.000000
  0.500000  0.500000  0.000000      1.000000
 
 Following cartesian coordinates:
            Coordinates               Weight
  0.000000  0.000000  0.000000      1.000000
  0.044553 -0.025722  0.000000      1.000000
  0.000000  0.051445  0.000000      1.000000
  0.044553  0.025722  0.000000      1.000000
 
 TETIRR: Found     12 inequivalent tetrahedra from       24
 
 Subroutine IBZKPT_HF returns following result:
 ==============================================
 
 Found      4 k-points in 1st BZ
 the following      4 k-points will be used (e.g. in the exchange kernel)
 Following reciprocal coordinates:   # in IRBZ
  0.000000  0.000000  0.000000    0.25000000   1 t-inv F
  0.500000  0.000000  0.000000    0.25000000   2 t-inv F
  0.000000  0.500000  0.000000    0.25000000   3 t-inv F
  0.500000  0.500000  0.000000    0.25000000   4 t-inv F


--------------------------------------------------------------------------------------------------------




 Dimension of arrays:
   k-points           NKPTS =      4   k-points in BZ     NKDIM =      4   number of bands    NBANDS=    624
   number of dos      NEDOS =    301   number of ions     NIONS =     81
   non local maximal  LDIM  =      6   non local SUM 2l+1 LMDIM =     18
   total plane-waves  NPLWV = ******
   max r-space proj   IRMAX =   7929   max aug-charges    IRDMAX=  34542
   dimension x,y,z NGX =    90 NGY =   90 NGZ =  168
   dimension x,y,z NGXF=   180 NGYF=  180 NGZF=  336
   support grid    NGXF=   180 NGYF=  180 NGZF=  336
   ions per type =              32  13  10  13  12   1
   NGX,Y,Z   is equivalent  to a cutoff of  13.33, 13.33, 12.70 a.u.
   NGXF,Y,Z  is equivalent  to a cutoff of  26.66, 26.66, 25.39 a.u.

 SYSTEM =  Pt111                                   
 POSCAR =  11.26                                   

 Startparameter for this run:
   NWRITE =      2    write-flag & timer
   PREC   = accura    normal or accurate (medium, high low for compatibility)
   ISTART =      0    job   : 0-new  1-cont  2-samecut
   ICHARG =      2    charge: 1-file 2-atom 10-const
   ISPIN  =      2    spin polarized calculation?
   LNONCOLLINEAR =      F non collinear calculations
   LSORBIT =      F    spin-orbit coupling
   INIWAV =      1    electr: 0-lowe 1-rand  2-diag
   LASPH  =      F    aspherical Exc in radial PAW
   METAGGA=      F    non-selfconsistent MetaGGA calc.

 Electronic Relaxation 1
   ENCUT  =  550.0 eV  40.42 Ry    6.36 a.u.  21.46 21.46 42.07*2*pi/ulx,y,z
   ENINI  =  550.0     initial cutoff
   ENAUG  =  587.0 eV  augmentation charge cutoff
   NELM   =    200;   NELMIN=  2; NELMDL= -5     # of ELM steps 
   EDIFF  = 0.1E-04   stopping-criterion for ELM
   LREAL  =      T    real-space projection
   NLSPLINE    = F    spline interpolate recip. space projectors
   LCOMPAT=      F    compatible to vasp.4.4
   GGA_COMPAT  = T    GGA compatible to vasp.4.4-vasp.4.6
   LMAXPAW     = -100 max onsite density
   LMAXMIX     =    2 max onsite mixed and CHGCAR
   VOSKOWN=      0    Vosko Wilk Nusair interpolation
   ROPT   =   -0.00025  -0.00025  -0.00025  -0.00025
   ROPT   =   -0.00025  -0.00025
 Ionic relaxation
   EDIFFG = -.5E-01   stopping-criterion for IOM
   NSW    =   1009    number of steps for IOM
   NBLOCK =      1;   KBLOCK =   1009    inner block; outer block 
   IBRION =      5    ionic relax: 0-MD 1-quasi-New 2-CG
   NFREE  =      2    steps in history (QN), initial steepest desc. (CG)
   ISIF   =      2    stress and relaxation
   IWAVPR =     11    prediction:  0-non 1-charg 2-wave 3-comb
   ISYM   =      2    0-nonsym 1-usesym 2-fastsym
   LCORR  =      T    Harris-Foulkes like correction to forces

   POTIM  = 0.5000    time-step for ionic-motion
   TEIN   =    0.0    initial temperature
   TEBEG  =    0.0;   TEEND  =   0.0 temperature during run
   SMASS  =  -3.00    Nose mass-parameter (am)
   estimated Nose-frequenzy (Omega)   =  0.10E-29 period in steps =****** mass=  -0.288E-26a.u.
   SCALEE = 1.0000    scale energy and forces
   NPACO  =    256;   APACO  = 16.0  distance and # of slots for P.C.
   PSTRESS=    0.0 pullay stress

  Mass of Ions in am
   POMASS = 195.08 55.85 58.93 63.55 58.69  1.00
  Ionic Valenz
   ZVAL   =  10.00  8.00  9.00 11.00 10.00  1.00
  Atomic Wigner-Seitz radii
   RWIGS  =  -1.00 -1.00 -1.00 -1.00 -1.00 -1.00
  virtual crystal weights 
   VCA    =   1.00  1.00  1.00  1.00  1.00  1.00
   NELECT =     778.0000    total number of electrons
   NUPDOWN=      -1.0000    fix difference up-down

 DOS related values:
   EMIN   =  10.00;   EMAX   =-10.00  energy-range for DOS
   EFERMI =   0.00
   ISMEAR =    -5;   SIGMA  =   0.10  broadening in eV -4-tet -1-fermi 0-gaus

 Electronic relaxation 2 (details)
   IALGO  =     68    algorithm
   LDIAG  =      T    sub-space diagonalisation (order eigenvalues)
   LSUBROT=      F    optimize rotation matrix (better conditioning)
   TURBO    =      0    0=normal 1=particle mesh
   IRESTART =      0    0=no restart 2=restart with 2 vectors
   NREBOOT  =      0    no. of reboots
   NMIN     =      0    reboot dimension
   EREF     =   0.00    reference energy to select bands
   IMIX   =      4    mixing-type and parameters
     AMIX     =   0.40;   BMIX     =  1.00
     AMIX_MAG =   1.60;   BMIX_MAG =  1.00
     AMIN     =   0.10
     WC   =   100.;   INIMIX=   1;  MIXPRE=   1;  MAXMIX= -45

 Intra band minimization:
   WEIMIN = 0.0010     energy-eigenvalue tresh-hold
   EBREAK =  0.40E-08  absolut break condition
   DEPER  =   0.30     relativ break condition  

   TIME   =   0.40     timestep for ELM

  volume/ion in A,a.u.               =      29.63       199.92
  Fermi-wavevector in a.u.,A,eV,Ry     =   1.124653  2.125287 17.209264  1.264845
  Thomas-Fermi vector in A             =   2.261326
 
 Write flags
   LWAVE        =      F    write WAVECAR
   LDOWNSAMPLE  =      F    k-point downsampling of WAVECAR
   LCHARG       =      F    write CHGCAR
   LVTOT        =      F    write LOCPOT, total local potential
   LVHAR        =      F    write LOCPOT, Hartree potential only
   LELF         =      F    write electronic localiz. function (ELF)
   LORBIT       =      0    0 simple, 1 ext, 2 COOP (PROOUT), +10 PAW based schemes


 Dipole corrections
   LMONO  =      F    monopole corrections only (constant potential shift)
   LDIPOL =      F    correct potential (dipole corrections)
   IDIPOL =      0    1-x, 2-y, 3-z, 4-all directions 
   EPSILON=  1.0000000 bulk dielectric constant

 Exchange correlation treatment:
   GGA     =    --    GGA type
   LEXCH   =     8    internal setting for exchange type
   VOSKOWN=      0    Vosko Wilk Nusair interpolation
   LHFCALC =     F    Hartree Fock is set to
   LHFONE  =     F    Hartree Fock one center treatment
   AEXX    =    0.0000 exact exchange contribution

 Linear response parameters
   LEPSILON=     F    determine dielectric tensor
   LRPA    =     F    only Hartree local field effects (RPA)
   LNABLA  =     F    use nabla operator in PAW spheres
   LVEL    =     F    velocity operator in full k-point grid
   LINTERFAST=   F  fast interpolation
   KINTER  =     0    interpolate to denser k-point grid
   CSHIFT  =0.1000    complex shift for real part using Kramers Kronig
   OMEGAMAX=  -1.0    maximum frequency
   DEG_THRESHOLD= 0.2000000E-02 threshold for treating states as degnerate
   RTIME   =   -0.100 relaxation time in fs
  (WPLASMAI=    0.000 imaginary part of plasma frequency in eV, 0.658/RTIME)
   DFIELD  = 0.0000000 0.0000000 0.0000000 field for delta impulse in time
 
 Orbital magnetization related:
   ORBITALMAG=     F  switch on orbital magnetization
   LCHIMAG   =     F  perturbation theory with respect to B field
   DQ        =  0.001000  dq finite difference perturbation B field
   LLRAUG    =     F  two centre corrections for induced B field



--------------------------------------------------------------------------------------------------------


 finite differences
   using selective dynamics as specified on POSCAR
   WARNING: If single coordinates had been selected the selection of coordinates
            is made according to the corresponding   d i r e c t   coordinates!
            Don't support selection of single cartesian coordinates -- sorry ...
  !
 charge density and potential will be updated during run
 spin polarized calculation
 RMM-DIIS sequential band-by-band and
  variant of blocked Davidson during initial phase
 perform sub-space diagonalisation
    before iterative eigenvector-optimisation
 modified Broyden-mixing scheme, WC =      100.0
 initial mixing is a Kerker type mixing with AMIX =  0.4000 and BMIX =      1.0000
 Hartree-type preconditioning will be used
 using additional bands          235
 real space projection scheme for non local part
 use partial core corrections
 calculate Harris-corrections to forces 
   (improved forces if not selfconsistent)
 use gradient corrections 
 use of overlap-Matrix (Vanderbilt PP)
 Fermi weights with tetrahedron method with Bloechl corrections


--------------------------------------------------------------------------------------------------------


  energy-cutoff  :      550.00
  volume of cell :     2399.65
      direct lattice vectors                 reciprocal lattice vectors
    11.222700119  0.000000000  0.000000000     0.089105116 -0.051444863  0.000000000
     5.611350060  9.719143402  0.000000000     0.000000000  0.102889726  0.000000000
     0.000000000  0.000000000 22.000000000     0.000000000  0.000000000  0.045454545

  length of vectors
    11.222700119 11.222700119 22.000000000     0.102889726  0.102889726  0.045454545


 
 k-points in units of 2pi/SCALE and weight: mesh auto                               
   0.00000000  0.00000000  0.00000000       0.250
   0.04455256 -0.02572243  0.00000000       0.250
   0.00000000  0.05144486  0.00000000       0.250
   0.04455256  0.02572243  0.00000000       0.250
 
 k-points in reciprocal lattice and weights: mesh auto                               
   0.00000000  0.00000000  0.00000000       0.250
   0.50000000  0.00000000  0.00000000       0.250
   0.00000000  0.50000000  0.00000000       0.250
   0.50000000  0.50000000  0.00000000       0.250
 
 position of ions in fractional coordinates (direct lattice) 
   0.78205669  0.87118339  0.30457092
   0.03184957  0.87114027  0.29967905
   0.27758237  0.36268087  0.31415675
   0.86998295  0.95756749  0.40552858
   0.11011172  0.46332355  0.41309995
   0.12120742  0.94874149  0.40559683
   0.87742690  0.44557867  0.41754795
   0.37008734  0.95386930  0.41461860
   0.87210994  0.20138734  0.40698467
   0.12549436  0.20688873  0.41312847
   0.62484327  0.95103984  0.41154547
   0.87032616  0.70918787  0.41205887
   0.37566201  0.19638853  0.41509087
   0.36644273  0.70679460  0.40717580
   0.61890800  0.45145030  0.41337849
   0.11741532  0.70398900  0.41002718
   0.62312078  0.20352011  0.40979409
   0.53641410  0.37332735  0.31022738
   0.53151530  0.11731261  0.31131959
   0.55692262  0.10867087  0.05929620
   0.09307450  0.42598565  0.12293655
   0.05087137  0.12562138  0.31044711
   0.02354762  0.11168372  0.04155547
   0.12934290  0.94753793  0.14102189
   0.36702447  0.45320896  0.41213639
   0.44637331  0.55905996  0.22016864
   0.61457894  0.71006426  0.41494022
   0.94964130  0.75661422  0.20918095
   0.79333918  0.61385917  0.31617963
   0.27066115  0.61705711  0.30837228
   0.18916729  0.26577042  0.22500552
   0.69331571  0.54941703  0.22131212
   0.03190263  0.62552569  0.31378135
   0.79089767  0.86073985  0.06435510
   0.04977444  0.85151792  0.05631440
   0.04826920  0.64045736  0.06647525
   0.62777074  0.23120905  0.13428462
   0.37821722  0.94839968  0.13570486
   0.02918389  0.37711195  0.31929968
   0.98045914  0.35575072  0.04365247
   0.86400499  0.20769280  0.13403509
   0.94513991  0.52665350  0.22111509
   0.29822560  0.10860042  0.31973205
   0.54038062  0.61687523  0.31956508
   0.27311239  0.09854881  0.05169877
   0.53344737  0.62035913  0.04989301
   0.27709958  0.42151638  0.05873407
   0.62105549  0.92704305  0.14079463
   0.70256414  0.77474047  0.22043961
   0.84112258  0.67046951  0.13000222
   0.61054862  0.46109348  0.13099914
   0.30063400  0.88157078  0.31776297
   0.29403624  0.87607977  0.04755154
   0.60419350  0.71580297  0.13078218
   0.23607313  0.01744661  0.22801544
   0.52427450  0.37929122  0.04256148
   0.35517448  0.20764286  0.13362546
   0.17310396  0.69108932  0.15152403
   0.69239094  0.05686880  0.21913015
   0.78396001  0.12596528  0.31054170
   0.53983426  0.86815501  0.31588383
   0.78831858  0.11030536  0.04466843
   0.53349640  0.87793834  0.04447670
   0.19566736  0.50762622  0.21805632
   0.93892711  0.29758564  0.22543502
   0.86994429  0.97289395  0.14053585
   0.71226583  0.29537725  0.22570431
   0.45081333  0.27787635  0.22064287
   0.85205380  0.43519614  0.13248332
   0.11139628  0.18699688  0.13457379
   0.76443045  0.59137860  0.04711528
   0.29982353  0.62410945  0.05627082
   0.38008827  0.72390987  0.13437281
   0.39368214  0.43926066  0.13808739
   0.78315743  0.38266422  0.31879271
   0.76664133  0.35423705  0.04671393
   0.94422288  0.06776962  0.22339891
   0.46282378  0.79411299  0.22762031
   0.23638717  0.79795330  0.23161990
   0.45533617  0.02622849  0.22369377
   0.69042001  0.54071615  0.45245638
 
 position of ions in cartesian coordinates  (Angst):
  13.66530273  8.46715630  6.70056017
   5.24571122  8.46673719  6.59293905
   5.15035297  3.52494737  6.91144848
  15.13680416  9.30673579  8.92162887
   3.83562147  4.50310807  9.08819880
   6.68399522  9.22095464  8.92313031
  12.34739685  4.33064300  9.18605498
   9.50587385  9.27079255  9.12160913
  10.91748323  1.95731243  8.95366284
   2.56931064  2.01078122  9.08882645
  12.34904611  9.24329258  9.05400024
  13.74691085  6.89269859  9.06529519
   5.31794689  1.90872826  9.13199925
   8.07854880  6.86943811  8.95786761
   9.47906456  4.38771020  9.09432682
   5.26804563  6.84217007  9.02059793
   8.13512020  1.97804112  9.01547000
   8.11488496  3.62842201  6.82500242
   6.62331893  1.14017805  6.84903094
   6.85996581  1.05618773  1.30451636
   3.43490181  4.14021561  2.70460400
   1.27581967  1.22093221  6.82983645
   0.89096431  1.08547011  0.91422026
   6.76854352  9.20925697  3.10248152
   6.66211967  4.40480286  9.06700061
   8.14659498  5.43358394  4.84371012
  10.88165428  6.90121639  9.12868479
  14.90316679  7.35364214  4.60198092
  12.34798644  5.96618530  6.95595195
   6.50007233  5.99726649  6.78419016
   3.61429860  2.58306084  4.95012137
  10.86384554  5.33986286  4.86886670
   3.86807731  6.07957389  6.90318975
  13.70591998  8.36565399  1.41581219
   5.33676874  8.27602479  1.23891672
   4.13554117  6.22469690  1.46245553
   8.34267765  2.24715390  2.95426165
   9.56642101  9.21763246  2.98550702
   2.44362922  3.66520516  7.02459285
  12.99964072  3.45759222  0.96035424
  10.86190596  2.01859611  2.94877201
  13.56225892  5.11862090  4.86453198
   3.95629141  1.05550302  7.03410514
   9.52603251  5.99549883  7.03043166
   3.61805025  0.95780999  1.13737292
   9.46777205  6.02935935  1.09764617
   5.47508143  4.09677819  1.29214950
  12.17188259  9.01006439  3.09748181
  12.23200665  7.52981374  4.84967140
  13.20190561  6.51638927  2.86004892
   9.43936095  4.48143362  2.88198110
   8.32072752  8.56811283  6.99078545
   8.21587077  8.51474490  1.04613384
  10.79730350  6.95699172  2.87720796
   2.74727701  0.16956608  5.01633965
   8.01211124  3.68638574  0.93635256
   5.15117345  2.01811075  2.93976007
   5.82063796  6.71679623  3.33352866
   8.08960660  0.55271604  4.82086337
   9.50498333  1.22427462  6.83191747
  10.92991969  8.43772299  6.94944435
   9.46602504  1.07207359  0.98270539
  10.91368944  8.53280861  0.97848749
   5.04438452  4.93369204  4.79723900
  12.20715453  2.89227750  4.95957041
  15.22237238  9.45569577  3.09178877
   9.65101098  2.87081385  4.96549483
   6.61860428  2.70072011  4.85414311
  12.00438214  4.22973372  2.91463294
   2.29947203  1.81744949  2.96062332
  11.89740601  5.74769339  1.03653615
   6.86692611  6.06580922  1.23795794
   8.32772832  7.03578381  2.95620177
   6.88302189  4.26923733  3.03792250
  10.93640388  3.71916845  7.01343968
  10.59153387  3.44288072  1.02770640
  10.97700931  0.65866264  4.91477592
   9.65017844  7.71809802  5.00764693
   7.13049760  7.75542255  5.09563785
   5.25727851  0.25491847  4.92126292
  10.78252431  5.25529780  9.95404032
 


--------------------------------------------------------------------------------------------------------


 k-point  1 :   0.0000 0.0000 0.0000  plane waves:   70321
 k-point  2 :   0.5000 0.0000 0.0000  plane waves:   70264
 k-point  3 :   0.0000 0.5000 0.0000  plane waves:   70264
 k-point  4 :   0.5000 0.5000 0.0000  plane waves:   70264

 maximum and minimum number of plane-waves per node :     70321    70264

 maximum number of plane-waves:     70321
 maximum index in each direction: 
   IXMAX=   21   IYMAX=   21   IZMAX=   42
   IXMIN=  -21   IYMIN=  -21   IZMIN=  -42


 serial   3D FFT for wavefunctions
 parallel 3D FFT for charge:
    minimum data exchange during FFTs selected (reduces bandwidth)


 total amount of memory used by VASP MPI-rank0   401993. kBytes
=======================================================================

   base      :      30000. kBytes
   nonlr-proj:     100015. kBytes
   fftplans  :      13535. kBytes
   grid      :     136356. kBytes
   one-center:       2519. kBytes
   wavefun   :     119568. kBytes
 
     INWAV:  cpu time    0.0001: real time    0.0006
 Broyden mixing: mesh for mixing (old mesh)
   NGX = 43   NGY = 43   NGZ = 85
  (NGX  =180   NGY  =180   NGZ  =336)
  gives a total of 157165 points

 initial charge density was supplied:
 charge density of overlapping atoms calculated
 number of electron     778.0000000 magnetization     231.0000000
 keeping initial charge density in first step


--------------------------------------------------------------------------------------------------------


 Maximum index for non-local projection operator         7667
 Maximum index for augmentation-charges         1122 (set IRDMAX)


--------------------------------------------------------------------------------------------------------


 First call to EWALD:  gamma=   0.132
 Maximum number of real-space cells 4x 4x 2
 Maximum number of reciprocal cells 2x 2x 4

    FEWALD:  cpu time    0.0041: real time    0.0042


--------------------------------------- Iteration      1(   1)  ---------------------------------------


    POTLOK:  cpu time    0.5032: real time    0.5059
    SETDIJ:  cpu time    0.0327: real time    0.0328
     EDDAV:  cpu time   62.8261: real time   63.0775
 BZINTS: Fermi energy: 16.081711;778.000000 electrons
         Band energy:7112.443439;  BLOECHL correction: -0.010922
       DOS:  cpu time    0.0239: real time    0.0250
    --------------------------------------------
      LOOP:  cpu time   63.3859: real time   63.6412

 eigenvalue-minimisations  :  9984
 total energy-change (2. order) : 0.7324498E+04  (-0.3316254E+05)
 number of electron     778.0000000 magnetization     231.0000000
 augmentation part      778.0000000 magnetization     231.0000000

 Free energy of the ion-electron system (eV)
  ---------------------------------------------------
  alpha Z        PSCENC =      1982.35054298
  Ewald energy   TEWEN  =    223072.00278008
  -Hartree energ DENC   =   -294531.85866746
  -exchange      EXHF   =         0.00000000
  -V(xc)+E(xc)   XCENC  =      1372.81362927
  PAW double counting   =     64136.80006862   -66038.70876209
  entropy T*S    EENTRO =         0.00000000
  eigenvalues    EBANDS =      7112.44343913
  atomic energy  EATOM  =     70218.65458108
  Solvation  Ediel_sol  =         0.00000000
  ---------------------------------------------------
  free energy    TOTEN  =      7324.49761162 eV

  energy without entropy =     7324.49761162  energy(sigma->0) =     7324.49761162


--------------------------------------------------------------------------------------------------------




--------------------------------------- Iteration      1(   2)  ---------------------------------------


     EDDAV:  cpu time   64.0436: real time   64.2774
 BZINTS: Fermi energy:  4.823103;778.000000 electrons
         Band energy: 358.063840;  BLOECHL correction: -0.083202
       DOS:  cpu time    0.0198: real time    0.0389
    --------------------------------------------
      LOOP:  cpu time   64.0633: real time   64.3163

 eigenvalue-minimisations  : 10224
 total energy-change (2. order) :-0.6754380E+04  (-0.6007137E+04)
 number of electron     778.0000000 magnetization     231.0000000
 augmentation part      778.0000000 magnetization     231.0000000

 Free energy of the ion-electron system (eV)
  ---------------------------------------------------
  alpha Z        PSCENC =      1982.35054298
  Ewald energy   TEWEN  =    223072.00278008
  -Hartree energ DENC   =   -294531.85866746
  -exchange      EXHF   =         0.00000000
  -V(xc)+E(xc)   XCENC  =      1372.81362927
  PAW double counting   =     64136.80006862   -66038.70876209
  entropy T*S    EENTRO =         0.00000000
  eigenvalues    EBANDS =       358.06383958
  atomic energy  EATOM  =     70218.65458108
  Solvation  Ediel_sol  =         0.00000000
  ---------------------------------------------------
  free energy    TOTEN  =       570.11801206 eV

  energy without entropy =      570.11801206  energy(sigma->0) =      570.11801206


--------------------------------------------------------------------------------------------------------




--------------------------------------- Iteration      1(   3)  ---------------------------------------


     EDDAV:  cpu time   63.8002: real time   63.9824
 BZINTS: Fermi energy:  2.675592;778.000000 electrons
         Band energy:-640.034031;  BLOECHL correction: -0.067610
       DOS:  cpu time    0.0275: real time    0.1078
    --------------------------------------------
      LOOP:  cpu time   63.8277: real time   64.0902

 eigenvalue-minimisations  : 10176
 total energy-change (2. order) :-0.9980979E+03  (-0.8327390E+03)
 number of electron     778.0000000 magnetization     231.0000000
 augmentation part      778.0000000 magnetization     231.0000000

 Free energy of the ion-electron system (eV)
  ---------------------------------------------------
  alpha Z        PSCENC =      1982.35054298
  Ewald energy   TEWEN  =    223072.00278008
  -Hartree energ DENC   =   -294531.85866746
  -exchange      EXHF   =         0.00000000
  -V(xc)+E(xc)   XCENC  =      1372.81362927
  PAW double counting   =     64136.80006862   -66038.70876209
  entropy T*S    EENTRO =         0.00000000
  eigenvalues    EBANDS =      -640.03403107
  atomic energy  EATOM  =     70218.65458108
  Solvation  Ediel_sol  =         0.00000000
  ---------------------------------------------------
  free energy    TOTEN  =      -427.97985859 eV

  energy without entropy =     -427.97985859  energy(sigma->0) =     -427.97985859


--------------------------------------------------------------------------------------------------------




--------------------------------------- Iteration      1(   4)  ---------------------------------------


     EDDAV:  cpu time   74.4347: real time   74.6485
 BZINTS: Fermi energy:  2.561133;778.000000 electrons
         Band energy:-700.775524;  BLOECHL correction: -0.076161
       DOS:  cpu time    0.0245: real time    0.0640
    --------------------------------------------
      LOOP:  cpu time   74.4592: real time   74.7125

 eigenvalue-minimisations  : 12336
 total energy-change (2. order) :-0.6074149E+02  (-0.5832121E+02)
 number of electron     778.0000000 magnetization     231.0000000
 augmentation part      778.0000000 magnetization     231.0000000

 Free energy of the ion-electron system (eV)
  ---------------------------------------------------
  alpha Z        PSCENC =      1982.35054298
  Ewald energy   TEWEN  =    223072.00278008
  -Hartree energ DENC   =   -294531.85866746
  -exchange      EXHF   =         0.00000000
  -V(xc)+E(xc)   XCENC  =      1372.81362927
  PAW double counting   =     64136.80006862   -66038.70876209
  entropy T*S    EENTRO =         0.00000000
  eigenvalues    EBANDS =      -700.77552370
  atomic energy  EATOM  =     70218.65458108
  Solvation  Ediel_sol  =         0.00000000
  ---------------------------------------------------
  free energy    TOTEN  =      -488.72135122 eV

  energy without entropy =     -488.72135122  energy(sigma->0) =     -488.72135122


--------------------------------------------------------------------------------------------------------




--------------------------------------- Iteration      1(   5)  ---------------------------------------


     EDDAV:  cpu time   73.4631: real time   73.8024
 BZINTS: Fermi energy:  2.558238;778.000000 electrons
         Band energy:-702.824012;  BLOECHL correction: -0.078153
       DOS:  cpu time    0.0250: real time    0.0350
    CHARGE:  cpu time    3.0169: real time    3.0253
    MIXING:  cpu time    0.0113: real time    0.0113
    --------------------------------------------
      LOOP:  cpu time   76.5163: real time   76.8741

 eigenvalue-minimisations  : 12144
 total energy-change (2. order) :-0.2048488E+01  (-0.2041766E+01)
 number of electron     778.0000027 magnetization     216.6729384
 augmentation part      335.8518372 magnetization     183.4538794

 Broyden mixing:
  rms(total) = 0.11128E+02    rms(broyden)= 0.11128E+02
  rms(prec ) = 0.11515E+02
  weight for this iteration     100.00

 Free energy of the ion-electron system (eV)
  ---------------------------------------------------
  alpha Z        PSCENC =      1982.35054298
  Ewald energy   TEWEN  =    223072.00278008
  -Hartree energ DENC   =   -294531.85866746
  -exchange      EXHF   =         0.00000000
  -V(xc)+E(xc)   XCENC  =      1372.81362927
  PAW double counting   =     64136.80006862   -66038.70876209
  entropy T*S    EENTRO =         0.00000000
  eigenvalues    EBANDS =      -702.82401206
  atomic energy  EATOM  =     70218.65458108
  Solvation  Ediel_sol  =         0.00000000
  ---------------------------------------------------
  free energy    TOTEN  =      -490.76983957 eV

  energy without entropy =     -490.76983957  energy(sigma->0) =     -490.76983957


--------------------------------------------------------------------------------------------------------




--------------------------------------- Iteration      1(   6)  ---------------------------------------


    POTLOK:  cpu time    0.4750: real time    0.4776
    SETDIJ:  cpu time    0.0326: real time    0.0327
    EDDIAG:  cpu time   10.7173: real time   10.7463
  RMM-DIIS:  cpu time   41.6189: real time   41.7355
    ORTHCH:  cpu time    1.5694: real time    1.5779
 BZINTS: Fermi energy:  1.233971;778.000000 electrons
         Band energy:***********;  BLOECHL correction: -0.031078
       DOS:  cpu time    0.0295: real time    0.0296
    CHARGE:  cpu time    2.9993: real time    3.0129
    MIXING:  cpu time    0.0143: real time    0.0185
    --------------------------------------------
      LOOP:  cpu time   57.4564: real time   57.6311

 eigenvalue-minimisations  : 10112
 total energy-change (2. order) :-0.2541502E+03  (-0.9390044E+02)
 number of electron     778.0000030 magnetization     213.1496714
 augmentation part      407.7676979 magnetization     177.7022219

 Broyden mixing:
  rms(total) = 0.21372E+02    rms(broyden)= 0.21372E+02
  rms(prec ) = 0.28073E+02
  weight for this iteration     100.00

 eigenvalues of (default mixing * dielectric matrix)
  average eigenvalue GAMMA=   0.1878
  0.1878

 Free energy of the ion-electron system (eV)
  ---------------------------------------------------
  alpha Z        PSCENC =      1982.35054298
  Ewald energy   TEWEN  =    223072.00278008
  -Hartree energ DENC   =   -292940.75659430
  -exchange      EXHF   =         0.00000000
  -V(xc)+E(xc)   XCENC  =      1332.82161305
  PAW double counting   =     68216.33020712   -69893.24722936
  entropy T*S    EENTRO =         0.00000000
  eigenvalues    EBANDS =     -2733.07592779
  atomic energy  EATOM  =     70218.65458108
  Solvation  Ediel_sol  =         0.00000000
  ---------------------------------------------------
  free energy    TOTEN  =      -744.92002714 eV

  energy without entropy =     -744.92002714  energy(sigma->0) =     -744.92002714


--------------------------------------------------------------------------------------------------------




--------------------------------------- Iteration      1(   7)  ---------------------------------------


    POTLOK:  cpu time    0.4755: real time    0.4829
    SETDIJ:  cpu time    0.0325: real time    0.0327
    EDDIAG:  cpu time   10.7353: real time   10.7649
  RMM-DIIS:  cpu time   41.2422: real time   41.3814
    ORTHCH:  cpu time    1.5683: real time    1.5725
 BZINTS: Fermi energy:  1.821684;778.000000 electrons
         Band energy:***********;  BLOECHL correction: -0.028937
       DOS:  cpu time    0.0265: real time    0.0266
    CHARGE:  cpu time    3.0189: real time    3.0274
    MIXING:  cpu time    0.0124: real time    0.0126
    --------------------------------------------
      LOOP:  cpu time   57.1118: real time   57.3011

 eigenvalue-minimisations  : 10008
 total energy-change (2. order) : 0.2772330E+03  (-0.1419498E+02)
 number of electron     778.0000031 magnetization     208.2535192
 augmentation part      375.2254534 magnetization     163.9842774

 Broyden mixing:
  rms(total) = 0.13568E+02    rms(broyden)= 0.13568E+02
  rms(prec ) = 0.17171E+02
  weight for this iteration     100.00

 eigenvalues of (default mixing * dielectric matrix)
  average eigenvalue GAMMA=   0.2645
  0.3533  0.1757

 Free energy of the ion-electron system (eV)
  ---------------------------------------------------
  alpha Z        PSCENC =      1982.35054298
  Ewald energy   TEWEN  =    223072.00278008
  -Hartree energ DENC   =   -293586.10558161
  -exchange      EXHF   =         0.00000000
  -V(xc)+E(xc)   XCENC  =      1351.24840908
  PAW double counting   =     69120.24796332   -70945.03410920
  entropy T*S    EENTRO =         0.00000000
  eigenvalues    EBANDS =     -1681.05159709
  atomic energy  EATOM  =     70218.65458108
  Solvation  Ediel_sol  =         0.00000000
  ---------------------------------------------------
  free energy    TOTEN  =      -467.68701136 eV

  energy without entropy =     -467.68701136  energy(sigma->0) =     -467.68701136


--------------------------------------------------------------------------------------------------------




--------------------------------------- Iteration      1(   8)  ---------------------------------------


    POTLOK:  cpu time    0.4780: real time    0.4811
    SETDIJ:  cpu time    0.0323: real time    0.0324
    EDDIAG:  cpu time   10.7271: real time   10.7565
  RMM-DIIS:  cpu time   41.3363: real time   41.4503
    ORTHCH:  cpu time    1.5762: real time    1.5852
 BZINTS: Fermi energy:  1.597342;778.000000 electrons
         Band energy:***********;  BLOECHL correction: -0.047946
       DOS:  cpu time    0.0253: real time    0.0253
    CHARGE:  cpu time    3.0076: real time    3.0185
    MIXING:  cpu time    0.0459: real time    0.0469
    --------------------------------------------
      LOOP:  cpu time   57.2284: real time   57.3960

 eigenvalue-minimisations  : 10008
 total energy-change (2. order) : 0.5529777E+01  (-0.1398346E+02)
 number of electron     778.0000030 magnetization     200.9507297
 augmentation part      376.2829224 magnetization     162.6063443

 Broyden mixing:
  rms(total) = 0.15801E+02    rms(broyden)= 0.15801E+02
  rms(prec ) = 0.18366E+02
  weight for this iteration     100.00

 eigenvalues of (default mixing * dielectric matrix)
  average eigenvalue GAMMA=   0.3207
  0.6048  0.2694  0.0879

 Free energy of the ion-electron system (eV)
  ---------------------------------------------------
  alpha Z        PSCENC =      1982.35054298
  Ewald energy   TEWEN  =    223072.00278008
  -Hartree energ DENC   =   -293770.20287753
  -exchange      EXHF   =         0.00000000
[...]
      9.526033  5.995499  7.030432            0           0           0  
      3.618050  0.957810  1.137373            0           0           0  
      9.467772  6.029359  1.097646            0           0           0  
      5.475081  4.096778  1.292149            0           0           0  
     12.171883  9.010064  3.097482            0           0           0  
     12.232007  7.529814  4.849671            0           0           0  
     13.201906  6.516389  2.860049            0           0           0  
      9.439361  4.481434  2.881981            0           0           0  
      8.320728  8.568113  6.990785            0           0           0  
      8.215871  8.514745  1.046134            0           0           0  
     10.797304  6.956992  2.877208            0           0           0  
      2.747277  0.169566  5.016340            0           0           0  
      8.012111  3.686386  0.936353            0           0           0  
      5.151173  2.018111  2.939760            0           0           0  
      5.820638  6.716796  3.333529            0           0           0  
      8.089607  0.552716  4.820863            0           0           0  
      9.504983  1.224275  6.831917            0           0           0  
     10.929920  8.437723  6.949444            0           0           0  
      9.466025  1.072074  0.982705            0           0           0  
     10.913689  8.532809  0.978487            0           0           0  
      5.044385  4.933692  4.797239            0           0           0  
     12.207155  2.892278  4.959570            0           0           0  
     15.222372  9.455696  3.091789            0           0           0  
      9.651011  2.870814  4.965495            0           0           0  
      6.618604  2.700720  4.854143            0           0           0  
     12.004382  4.229734  2.914633            0           0           0  
      2.299472  1.817449  2.960623            0           0           0  
     11.897406  5.747693  1.036536            0           0           0  
      6.866926  6.065809  1.237958            0           0           0  
      8.327728  7.035784  2.956202            0           0           0  
      6.883022  4.269237  3.037923            0           0           0  
     10.936404  3.719168  7.013440            0           0           0  
     10.591534  3.442881  1.027706            0           0           0  
     10.977009  0.658663  4.914776            0           0           0  
      9.650178  7.718098  5.007647            0           0           0  
      7.130498  7.755423  5.095638            0           0           0  
      5.257279  0.254918  4.921263            0           0           0  
     10.782524  5.255298  9.954040    -0.462726   -0.159802   -0.871980  
 
   2 f  =   24.016433 THz   150.899701 2PiTHz  801.101963 cm-1    99.324020 meV
             X         Y         Z           dx          dy          dz
     13.665303  8.467156  6.700560            0           0           0  
      5.245711  8.466737  6.592939            0           0           0  
      5.150353  3.524947  6.911448            0           0           0  
     15.136804  9.306736  8.921629            0           0           0  
      3.835621  4.503108  9.088199            0           0           0  
      6.683995  9.220955  8.923130            0           0           0  
     12.347397  4.330643  9.186055            0           0           0  
      9.505874  9.270793  9.121609            0           0           0  
     10.917483  1.957312  8.953663            0           0           0  
      2.569311  2.010781  9.088826            0           0           0  
     12.349046  9.243293  9.054000            0           0           0  
     13.746911  6.892699  9.065295            0           0           0  
      5.317947  1.908728  9.131999            0           0           0  
      8.078549  6.869438  8.957868            0           0           0  
      9.479065  4.387710  9.094327            0           0           0  
      5.268046  6.842170  9.020598            0           0           0  
      8.135120  1.978041  9.015470            0           0           0  
      8.114885  3.628422  6.825002            0           0           0  
      6.623319  1.140178  6.849031            0           0           0  
      6.859966  1.056188  1.304516            0           0           0  
      3.434902  4.140216  2.704604            0           0           0  
      1.275820  1.220932  6.829836            0           0           0  
      0.890964  1.085470  0.914220            0           0           0  
      6.768544  9.209257  3.102482            0           0           0  
      6.662120  4.404803  9.067001            0           0           0  
      8.146595  5.433584  4.843710            0           0           0  
     10.881654  6.901216  9.128685            0           0           0  
     14.903167  7.353642  4.601981            0           0           0  
     12.347986  5.966185  6.955952            0           0           0  
      6.500072  5.997266  6.784190            0           0           0  
      3.614299  2.583061  4.950121            0           0           0  
     10.863846  5.339863  4.868867            0           0           0  
      3.868077  6.079574  6.903190            0           0           0  
     13.705920  8.365654  1.415812            0           0           0  
      5.336769  8.276025  1.238917            0           0           0  
      4.135541  6.224697  1.462456            0           0           0  
      8.342678  2.247154  2.954262            0           0           0  
      9.566421  9.217632  2.985507            0           0           0  
      2.443629  3.665205  7.024593            0           0           0  
     12.999641  3.457592  0.960354            0           0           0  
     10.861906  2.018596  2.948772            0           0           0  
     13.562259  5.118621  4.864532            0           0           0  
      3.956291  1.055503  7.034105            0           0           0  
      9.526033  5.995499  7.030432            0           0           0  
      3.618050  0.957810  1.137373            0           0           0  
      9.467772  6.029359  1.097646            0           0           0  
      5.475081  4.096778  1.292149            0           0           0  
     12.171883  9.010064  3.097482            0           0           0  
     12.232007  7.529814  4.849671            0           0           0  
     13.201906  6.516389  2.860049            0           0           0  
      9.439361  4.481434  2.881981            0           0           0  
      8.320728  8.568113  6.990785            0           0           0  
      8.215871  8.514745  1.046134            0           0           0  
     10.797304  6.956992  2.877208            0           0           0  
      2.747277  0.169566  5.016340            0           0           0  
      8.012111  3.686386  0.936353            0           0           0  
      5.151173  2.018111  2.939760            0           0           0  
      5.820638  6.716796  3.333529            0           0           0  
      8.089607  0.552716  4.820863            0           0           0  
      9.504983  1.224275  6.831917            0           0           0  
     10.929920  8.437723  6.949444            0           0           0  
      9.466025  1.072074  0.982705            0           0           0  
     10.913689  8.532809  0.978487            0           0           0  
      5.044385  4.933692  4.797239            0           0           0  
     12.207155  2.892278  4.959570            0           0           0  
     15.222372  9.455696  3.091789            0           0           0  
      9.651011  2.870814  4.965495            0           0           0  
      6.618604  2.700720  4.854143            0           0           0  
     12.004382  4.229734  2.914633            0           0           0  
      2.299472  1.817449  2.960623            0           0           0  
     11.897406  5.747693  1.036536            0           0           0  
      6.866926  6.065809  1.237958            0           0           0  
      8.327728  7.035784  2.956202            0           0           0  
      6.883022  4.269237  3.037923            0           0           0  
     10.936404  3.719168  7.013440            0           0           0  
     10.591534  3.442881  1.027706            0           0           0  
     10.977009  0.658663  4.914776            0           0           0  
      9.650178  7.718098  5.007647            0           0           0  
      7.130498  7.755423  5.095638            0           0           0  
      5.257279  0.254918  4.921263            0           0           0  
     10.782524  5.255298  9.954040    -0.319940   -0.887223    0.332375  
 
   3 f  =   15.139131 THz    95.121964 2PiTHz  504.987030 cm-1    62.610435 meV
             X         Y         Z           dx          dy          dz
     13.665303  8.467156  6.700560            0           0           0  
      5.245711  8.466737  6.592939            0           0           0  
      5.150353  3.524947  6.911448            0           0           0  
     15.136804  9.306736  8.921629            0           0           0  
      3.835621  4.503108  9.088199            0           0           0  
      6.683995  9.220955  8.923130            0           0           0  
     12.347397  4.330643  9.186055            0           0           0  
      9.505874  9.270793  9.121609            0           0           0  
     10.917483  1.957312  8.953663            0           0           0  
      2.569311  2.010781  9.088826            0           0           0  
     12.349046  9.243293  9.054000            0           0           0  
     13.746911  6.892699  9.065295            0           0           0  
      5.317947  1.908728  9.131999            0           0           0  
      8.078549  6.869438  8.957868            0           0           0  
      9.479065  4.387710  9.094327            0           0           0  
      5.268046  6.842170  9.020598            0           0           0  
      8.135120  1.978041  9.015470            0           0           0  
      8.114885  3.628422  6.825002            0           0           0  
      6.623319  1.140178  6.849031            0           0           0  
      6.859966  1.056188  1.304516            0           0           0  
      3.434902  4.140216  2.704604            0           0           0  
      1.275820  1.220932  6.829836            0           0           0  
      0.890964  1.085470  0.914220            0           0           0  
      6.768544  9.209257  3.102482            0           0           0  
      6.662120  4.404803  9.067001            0           0           0  
      8.146595  5.433584  4.843710            0           0           0  
     10.881654  6.901216  9.128685            0           0           0  
     14.903167  7.353642  4.601981            0           0           0  
     12.347986  5.966185  6.955952            0           0           0  
      6.500072  5.997266  6.784190            0           0           0  
      3.614299  2.583061  4.950121            0           0           0  
     10.863846  5.339863  4.868867            0           0           0  
      3.868077  6.079574  6.903190            0           0           0  
     13.705920  8.365654  1.415812            0           0           0  
      5.336769  8.276025  1.238917            0           0           0  
      4.135541  6.224697  1.462456            0           0           0  
      8.342678  2.247154  2.954262            0           0           0  
      9.566421  9.217632  2.985507            0           0           0  
      2.443629  3.665205  7.024593            0           0           0  
     12.999641  3.457592  0.960354            0           0           0  
     10.861906  2.018596  2.948772            0           0           0  
     13.562259  5.118621  4.864532            0           0           0  
      3.956291  1.055503  7.034105            0           0           0  
      9.526033  5.995499  7.030432            0           0           0  
      3.618050  0.957810  1.137373            0           0           0  
      9.467772  6.029359  1.097646            0           0           0  
      5.475081  4.096778  1.292149            0           0           0  
     12.171883  9.010064  3.097482            0           0           0  
     12.232007  7.529814  4.849671            0           0           0  
     13.201906  6.516389  2.860049            0           0           0  
      9.439361  4.481434  2.881981            0           0           0  
      8.320728  8.568113  6.990785            0           0           0  
      8.215871  8.514745  1.046134            0           0           0  
     10.797304  6.956992  2.877208            0           0           0  
      2.747277  0.169566  5.016340            0           0           0  
      8.012111  3.686386  0.936353            0           0           0  
      5.151173  2.018111  2.939760            0           0           0  
      5.820638  6.716796  3.333529            0           0           0  
      8.089607  0.552716  4.820863            0           0           0  
      9.504983  1.224275  6.831917            0           0           0  
     10.929920  8.437723  6.949444            0           0           0  
      9.466025  1.072074  0.982705            0           0           0  
     10.913689  8.532809  0.978487            0           0           0  
      5.044385  4.933692  4.797239            0           0           0  
     12.207155  2.892278  4.959570            0           0           0  
     15.222372  9.455696  3.091789            0           0           0  
      9.651011  2.870814  4.965495            0           0           0  
      6.618604  2.700720  4.854143            0           0           0  
     12.004382  4.229734  2.914633            0           0           0  
      2.299472  1.817449  2.960623            0           0           0  
     11.897406  5.747693  1.036536            0           0           0  
      6.866926  6.065809  1.237958            0           0           0  
      8.327728  7.035784  2.956202            0           0           0  
      6.883022  4.269237  3.037923            0           0           0  
     10.936404  3.719168  7.013440            0           0           0  
     10.591534  3.442881  1.027706            0           0           0  
     10.977009  0.658663  4.914776            0           0           0  
      9.650178  7.718098  5.007647            0           0           0  
      7.130498  7.755423  5.095638            0           0           0  
      5.257279  0.254918  4.921263            0           0           0  
     10.782524  5.255298  9.954040    -0.826755    0.432780    0.359414  
 
 Finite differences POTIM=  1.500000000000000E-002
  LATTYP: Found a hexagonal cell.
 ALAT       =    11.2227001190
 C/A-ratio  =     1.9603125600
  
  Lattice vectors:
  
 A1 = (   5.6113500595,  -9.7191434021,   0.0000000000)
 A2 = ( -11.2227001190,   0.0000000000,   0.0000000000)
 A3 = (   0.0000000000,   0.0000000000, -22.0000000000)


Analysis of symmetry for initial positions (statically):
=====================================================================
 Subroutine PRICEL returns:
 Original cell was already a primitive cell.
 

 Routine SETGRP: Setting up the symmetry group for a 
 hexagonal supercell.


 Subroutine GETGRP returns: Found  1 space group operations
 (whereof  1 operations were pure point group operations)
 out of a pool of 24 trial point group operations.


The static configuration has the point symmetry C_1 .


Analysis of symmetry for dynamics (positions and initial velocities):
=====================================================================
 Subroutine PRICEL returns:
 Original cell was already a primitive cell.
 

 Routine SETGRP: Setting up the symmetry group for a 
 hexagonal supercell.


 Subroutine GETGRP returns: Found  1 space group operations
 (whereof  1 operations were pure point group operations)
 out of a pool of 24 trial point group operations.


The dynamic configuration has the point symmetry C_1 .


Analysis of constrained symmetry for selective dynamics:
=====================================================================
 Subroutine PRICEL returns:
 Original cell was already a primitive cell.
 

 Routine SETGRP: Setting up the symmetry group for a 
 hexagonal supercell.


 Subroutine GETGRP returns: Found  1 space group operations
 (whereof  1 operations were pure point group operations)
 out of a pool of 24 trial point group operations.


The constrained configuration has the point symmetry C_1 .


Analysis of structural, dynamic, and magnetic symmetry:
=====================================================================
 Subroutine PRICEL returns:
 Original cell was already a primitive cell.
 

 Routine SETGRP: Setting up the symmetry group for a 
 hexagonal supercell.


 Subroutine GETGRP returns: Found  1 space group operations
 (whereof  1 operations were pure point group operations)
 out of a pool of 24 trial point group operations.


The magnetic configuration has the point symmetry C_1 .


 Subroutine INISYM returns: Found  1 space group operations
 (whereof  1 operations are pure point group operations),
 and found     1 'primitive' translations

 
 KPOINTS: mesh auto                               

Automatic generation of k-mesh.
Space group operators:
 irot       det(A)        alpha          n_x          n_y          n_z        tau_x        tau_y        tau_z
    1     1.000000     0.000000     1.000000     0.000000     0.000000     0.000000     0.000000     0.000000
 
 Subroutine IBZKPT returns following result:
 ===========================================
 
 Found      4 irreducible k-points:
 
 Following reciprocal coordinates:
            Coordinates               Weight
  0.000000  0.000000  0.000000      1.000000
  0.500000  0.000000  0.000000      1.000000
  0.000000  0.500000  0.000000      1.000000
  0.500000  0.500000  0.000000      1.000000
 
 Following cartesian coordinates:
            Coordinates               Weight
  0.000000  0.000000  0.000000      1.000000
  0.044553 -0.025722  0.000000      1.000000
  0.000000  0.051445  0.000000      1.000000
  0.044553  0.025722  0.000000      1.000000
 
 TETIRR: Found     12 inequivalent tetrahedra from       24
     LOOP+:  cpu time  725.8049: real time  728.3670
    4ORBIT:  cpu time    0.0000: real time    0.0000
 BZINTS: Fermi energy:  1.293301;778.000000 electrons
         Band energy:***********;  BLOECHL correction: -0.202931

 total amount of memory used by VASP MPI-rank0   401993. kBytes
=======================================================================

   base      :      30000. kBytes
   nonlr-proj:     100015. kBytes
   fftplans  :      13535. kBytes
   grid      :     136356. kBytes
   one-center:       2519. kBytes
   wavefun   :     119568. kBytes
 
  
  
 General timing and accounting informations for this job:
 ========================================================
  
                  Total CPU time used (sec):     9129.811
                            User time (sec):     9089.533
                          System time (sec):       40.277
                         Elapsed time (sec):     9167.197
  
                   Maximum memory used (kb):      761072.
                   Average memory used (kb):           0.
  
                          Minor page faults:      3747997
                          Major page faults:          251
                 Voluntary context switches:         8300
