 vasp.5.4.4.18Apr17-6-g9f103f2a35 (build Oct 25 2019 11:13:22) complex          
  
 executed on             LinuxIFC date 2022.02.04  11:47:16
 running on   48 total cores
 distrk:  each k-point on   48 cores,    1 groups
 distr:  one band on NCORES_PER_BAND=   1 cores,   48 groups


--------------------------------------------------------------------------------------------------------


 INCAR:
 POTCAR:    PAW_PBE Pt 04Feb2005                  
 POTCAR:    PAW_PBE Fe 06Sep2000                  
 POTCAR:    PAW_PBE Co 02Aug2007                  
 POTCAR:    PAW_PBE Cu 22Jun2005                  
 POTCAR:    PAW_PBE Ni 02Aug2007                  
 POTCAR:    PAW_PBE H 15Jun2001                   

 ----------------------------------------------------------------------------- 
|                                                                             |
|           W    W    AA    RRRRR   N    N  II  N    N   GGGG   !!!           |
|           W    W   A  A   R    R  NN   N  II  NN   N  G    G  !!!           |
|           W    W  A    A  R    R  N N  N  II  N N  N  G       !!!           |
|           W WW W  AAAAAA  RRRRR   N  N N  II  N  N N  G  GGG   !            |
|           WW  WW  A    A  R   R   N   NN  II  N   NN  G    G                |
|           W    W  A    A  R    R  N    N  II  N    N   GGGG   !!!           |
|                                                                             |
|      For optimal performance we recommend to set                            |
|        NCORE= 4 - approx SQRT( number of cores)                             |
|      NCORE specifies how many cores store one orbital (NPAR=cpu/NCORE).     |
|      This setting can  greatly improve the performance of VASP for DFT.     |
|      The default,   NCORE=1            might be grossly inefficient         |
|      on modern multi-core architectures or massively parallel machines.     |
|      Do your own testing !!!!                                               |
|      Unfortunately you need to use the default for GW and RPA calculations. |
|      (for HF NCORE is supported but not extensively tested yet)             |
|                                                                             |
 ----------------------------------------------------------------------------- 

 POTCAR:    PAW_PBE Pt 04Feb2005                  
   VRHFIN =Pt: s1d9                                                             
   LEXCH  = PE                                                                  
   EATOM  =   729.1176 eV,   53.5886 Ry                                         
                                                                                
   TITEL  = PAW_PBE Pt 04Feb2005                                                
   LULTRA =        F    use ultrasoft PP ?                                      
   IUNSCR =        1    unscreen: 0-lin 1-nonlin 2-no                           
   RPACOR =    2.330    partial core radius                                     
   POMASS =  195.080; ZVAL   =   10.000    mass and valenz                      
   RCORE  =    2.600    outmost cutoff radius                                   
   RWIGS  =    2.750; RWIGS  =    1.455    wigner-seitz radius (au A)           
   ENMAX  =  230.283; ENMIN  =  172.712 eV                                      
   ICORE  =        3    local potential                                         
   LCOR   =        T    correct aug charges                                     
   LPAW   =        T    paw PP                                                  
   EAUG   =  358.966                                                            
   DEXC   =    0.000                                                            
   RMAX   =    2.658    core radius for proj-oper                               
   RAUG   =    1.300    factor for augmentation sphere                          
   RDEP   =    2.761    radius for radial grids                                 
   RDEPT  =    2.203    core radius for aug-charge                              
                                                                                
   Atomic configuration                                                         
   16 entries                                                                   
     n  l   j            E        occ.                                          
     1  0  0.50    -78401.1885   2.0000                                         
     2  0  0.50    -13770.7750   2.0000                                         
     2  1  1.50    -11931.0468   6.0000                                         
     3  0  0.50     -3234.7234   2.0000                                         
     3  1  1.50     -2699.2216   6.0000                                         
     3  2  2.50     -2119.5714  10.0000                                         
     4  0  0.50      -695.1528   2.0000                                         
     4  1  1.50      -519.6034   6.0000                                         
     4  2  2.50      -306.6786  10.0000                                         
     4  3  3.50       -70.1041  14.0000                                         
     5  0  0.50      -101.7747   2.0000                                         
     5  1  1.50       -55.9873   6.0000                                         
     5  2  2.50        -6.1423   9.0000                                         
     6  0  0.50        -5.6573   1.0000                                         
     6  1  1.50        -6.8029   0.0000                                         
     5  3  2.50        -1.3606   0.0000                                         
   Description                                                                  
     l       E           TYP  RCUT    TYP  RCUT                                 
     2     -6.1423404     23  2.500                                             
     2     -7.5029230     23  2.500                                             
     0     -5.6573207     23  2.500                                             
     0      0.7416693     23  2.500                                             
     1     -2.7211652     23  2.600                                             
     1     20.4087390     23  2.600                                             
     3     -1.3605826     23  2.500                                             
  local pseudopotential read in
  partial core-charges read in
  partial kinetic energy density read in
  atomic valenz-charges read in
  non local Contribution for L=           2  read in
    real space projection operators read in
  non local Contribution for L=           2  read in
    real space projection operators read in
  non local Contribution for L=           0  read in
    real space projection operators read in
  non local Contribution for L=           0  read in
    real space projection operators read in
  non local Contribution for L=           1  read in
    real space projection operators read in
  non local Contribution for L=           1  read in
    real space projection operators read in
    PAW grid and wavefunctions read in
 
   number of l-projection  operators is LMAX  =           6
   number of lm-projection operators is LMMAX =          18
 
 POTCAR:    PAW_PBE Fe 06Sep2000                  
   VRHFIN =Fe:  d7 s1                                                           
   LEXCH  = PE                                                                  
   EATOM  =   594.3153 eV,   43.6809 Ry                                         
                                                                                
   TITEL  = PAW_PBE Fe 06Sep2000                                                
   LULTRA =        F    use ultrasoft PP ?                                      
   IUNSCR =        1    unscreen: 0-lin 1-nonlin 2-no                           
   RPACOR =    2.000    partial core radius                                     
   POMASS =   55.847; ZVAL   =    8.000    mass and valenz                      
   RCORE  =    2.300    outmost cutoff radius                                   
   RWIGS  =    2.460; RWIGS  =    1.302    wigner-seitz radius (au A)           
   ENMAX  =  267.882; ENMIN  =  200.911 eV                                      
   RCLOC  =    1.701    cutoff for local pot                                    
   LCOR   =        T    correct aug charges                                     
   LPAW   =        T    paw PP                                                  
   EAUG   =  511.368                                                            
   DEXC   =    0.000                                                            
   RMAX   =    2.356    core radius for proj-oper                               
   RAUG   =    1.300    factor for augmentation sphere                          
   RDEP   =    2.442    radius for radial grids                                 
   RDEPT  =    1.890    core radius for aug-charge                              
                                                                                
   Atomic configuration                                                         
    9 entries                                                                   
     n  l   j            E        occ.                                          
     1  0  0.50     -6993.8440   2.0000                                         
     2  0  0.50      -814.6047   2.0000                                         
     2  1  1.50      -693.3689   6.0000                                         
     3  0  0.50       -89.4732   2.0000                                         
     3  1  1.50       -55.6373   6.0000                                         
     3  2  2.50        -3.8151   7.0000                                         
     4  0  0.50        -4.2551   1.0000                                         
     4  1  1.50        -3.4015   0.0000                                         
     4  3  2.50        -1.3606   0.0000                                         
   Description                                                                  
     l       E           TYP  RCUT    TYP  RCUT                                 
     2     -3.8151135     23  2.300                                             
     2     -5.1756961     23  2.300                                             
     0     -4.2550963     23  2.300                                             
     0      7.2035603     23  2.300                                             
     1     -2.7211652     23  2.300                                             
     1     18.4316424     23  2.300                                             
  local pseudopotential read in
  partial core-charges read in
  partial kinetic energy density read in
  atomic valenz-charges read in
  non local Contribution for L=           2  read in
    real space projection operators read in
  non local Contribution for L=           2  read in
    real space projection operators read in
  non local Contribution for L=           0  read in
    real space projection operators read in
  non local Contribution for L=           0  read in
    real space projection operators read in
  non local Contribution for L=           1  read in
    real space projection operators read in
  non local Contribution for L=           1  read in
    real space projection operators read in
    PAW grid and wavefunctions read in
 
   number of l-projection  operators is LMAX  =           6
   number of lm-projection operators is LMMAX =          18
 
 POTCAR:    PAW_PBE Co 02Aug2007                  
   VRHFIN =Co: d8 s1                                                            
   LEXCH  = PE                                                                  
   EATOM  =   813.3670 eV,   59.7808 Ry                                         
                                                                                
   TITEL  = PAW_PBE Co 02Aug2007                                                
   LULTRA =        F    use ultrasoft PP ?                                      
   IUNSCR =        1    unscreen: 0-lin 1-nonlin 2-no                           
   RPACOR =    2.000    partial core radius                                     
   POMASS =   58.933; ZVAL   =    9.000    mass and valenz                      
   RCORE  =    2.300    outmost cutoff radius                                   
   RWIGS  =    2.460; RWIGS  =    1.302    wigner-seitz radius (au A)           
   ENMAX  =  267.968; ENMIN  =  200.976 eV                                      
   RCLOC  =    1.203    cutoff for local pot                                    
   LCOR   =        T    correct aug charges                                     
   LPAW   =        T    paw PP                                                  
   EAUG   =  477.818                                                            
   DEXC   =    0.000                                                            
   RMAX   =    2.360    core radius for proj-oper                               
   RAUG   =    1.300    factor for augmentation sphere                          
   RDEP   =    2.393    radius for radial grids                                 
   RDEPT  =    1.864    core radius for aug-charge                              
                                                                                
   Atomic configuration                                                         
    9 entries                                                                   
     n  l   j            E        occ.                                          
     1  0  0.50     -7587.6674   2.0000                                         
     2  0  0.50      -893.6084   2.0000                                         
     2  1  1.50      -764.5805   6.0000                                         
     3  0  0.50       -97.5973   2.0000                                         
     3  1  1.50       -60.9648   6.0000                                         
     3  2  2.50        -4.2382   8.0000                                         
     4  0  0.50        -4.3746   1.0000                                         
     4  1  1.50        -4.0817   0.0000                                         
     4  3  2.50        -1.3606   0.0000                                         
   Description                                                                  
     l       E           TYP  RCUT    TYP  RCUT                                 
     2     -4.2382362     23  2.300                                             
     2     -5.5988188     23  2.300                                             
     0     -4.3745797     23  2.300                                             
     0      5.7660125     23  2.300                                             
     1     -2.7211652     23  2.300                                             
     1     16.9860234     23  2.300                                             
  local pseudopotential read in
  partial core-charges read in
  partial kinetic energy density read in
  atomic valenz-charges read in
  non local Contribution for L=           2  read in
    real space projection operators read in
  non local Contribution for L=           2  read in
    real space projection operators read in
  non local Contribution for L=           0  read in
    real space projection operators read in
  non local Contribution for L=           0  read in
    real space projection operators read in
  non local Contribution for L=           1  read in
    real space projection operators read in
  non local Contribution for L=           1  read in
    real space projection operators read in
    PAW grid and wavefunctions read in
 
   number of l-projection  operators is LMAX  =           6
   number of lm-projection operators is LMMAX =          18
 
 POTCAR:    PAW_PBE Cu 22Jun2005                  
   VRHFIN =Cu: d10 p1                                                           
   LEXCH  = PE                                                                  
   EATOM  =  1390.9808 eV,  102.2342 Ry                                         
                                                                                
   TITEL  = PAW_PBE Cu 22Jun2005                                                
   LULTRA =        F    use ultrasoft PP ?                                      
   IUNSCR =        1    unscreen: 0-lin 1-nonlin 2-no                           
   RPACOR =    2.000    partial core radius                                     
   POMASS =   63.546; ZVAL   =   11.000    mass and valenz                      
   RCORE  =    2.300    outmost cutoff radius                                   
   RWIGS  =    2.200; RWIGS  =    1.164    wigner-seitz radius (au A)           
   ENMAX  =  295.446; ENMIN  =  221.585 eV                                      
   ICORE  =        3    local potential                                         
   LCOR   =        T    correct aug charges                                     
   LPAW   =        T    paw PP                                                  
   EAUG   =  586.980                                                            
   DEXC   =    0.000                                                            
   RMAX   =    2.344    core radius for proj-oper                               
   RAUG   =    1.300    factor for augmentation sphere                          
   RDEP   =    2.302    radius for radial grids                                 
   RDEPT  =    1.771    core radius for aug-charge                              
                                                                                
   Atomic configuration                                                         
    9 entries                                                                   
     n  l   j            E        occ.                                          
     1  0  0.50     -8850.2468   2.0000                                         
     2  0  0.50     -1062.3498   2.0000                                         
     2  1  1.50      -916.8226   6.0000                                         
     3  0  0.50      -114.6929   2.0000                                         
     3  1  1.50       -72.1325   6.0000                                         
     3  2  2.50        -5.0394  10.0000                                         
     4  0  0.50        -4.6097   1.0000                                         
     4  1  0.50        -4.0817   0.0000                                         
     4  3  2.50        -1.3606   0.0000                                         
   Description                                                                  
     l       E           TYP  RCUT    TYP  RCUT                                 
     2     -5.0393973     23  2.200                                             
     2     10.8846608     23  2.200                                             
     0     -4.6097109     23  2.200                                             
     0      8.2520465     23  2.200                                             
     1     -2.7211652     23  2.200                                             
     1     21.7055443     23  2.200                                             
     3      2.7211652     23  2.300                                             
  local pseudopotential read in
  partial core-charges read in
  partial kinetic energy density read in
  atomic valenz-charges read in
  non local Contribution for L=           2  read in
    real space projection operators read in
  non local Contribution for L=           2  read in
    real space projection operators read in
  non local Contribution for L=           0  read in
    real space projection operators read in
  non local Contribution for L=           0  read in
    real space projection operators read in
  non local Contribution for L=           1  read in
    real space projection operators read in
  non local Contribution for L=           1  read in
    real space projection operators read in
    PAW grid and wavefunctions read in
 
   number of l-projection  operators is LMAX  =           6
   number of lm-projection operators is LMMAX =          18
 
 POTCAR:    PAW_PBE Ni 02Aug2007                  
   VRHFIN =Ni:                                                                  
   LEXCH  = PE                                                                  
   EATOM  =  1077.6739 eV,   79.2068 Ry                                         
                                                                                
   TITEL  = PAW_PBE Ni 02Aug2007                                                
   LULTRA =        F    use ultrasoft PP ?                                      
   IUNSCR =        1    unscreen: 0-lin 1-nonlin 2-no                           
   RPACOR =    2.000    partial core radius                                     
   POMASS =   58.690; ZVAL   =   10.000    mass and valenz                      
   RCORE  =    2.300    outmost cutoff radius                                   
   RWIGS  =    2.430; RWIGS  =    1.286    wigner-seitz radius (au A)           
   ENMAX  =  269.532; ENMIN  =  202.149 eV                                      
   RCLOC  =    1.201    cutoff for local pot                                    
   LCOR   =        T    correct aug charges                                     
   LPAW   =        T    paw PP                                                  
   EAUG   =  544.565                                                            
   DEXC   =    0.000                                                            
   RMAX   =    2.357    core radius for proj-oper                               
   RAUG   =    1.300    factor for augmentation sphere                          
   RDEP   =    2.390    radius for radial grids                                 
   RDEPT  =    1.838    core radius for aug-charge                              
                                                                                
   Atomic configuration                                                         
    9 entries                                                                   
     n  l   j            E        occ.                                          
     1  0  0.50     -8206.4253   2.0000                                         
     2  0  0.50      -976.1748   2.0000                                         
     2  1  1.50      -839.0571   6.0000                                         
     3  0  0.50      -105.9991   2.0000                                         
     3  1  1.50       -66.4603   6.0000                                         
     3  2  2.50        -4.6458   9.0000                                         
     4  0  0.50        -4.4926   1.0000                                         
     4  1  1.50        -4.0817   0.0000                                         
     4  3  2.50        -1.3606   0.0000                                         
   Description                                                                  
     l       E           TYP  RCUT    TYP  RCUT                                 
     2     -4.6457903     23  2.300                                             
     2     -6.0063729     23  2.300                                             
     0     -4.4925590     23  2.300                                             
     0      5.0102601     23  2.300                                             
     1     -2.7211652     23  2.300                                             
     1     16.5183231     23  2.300                                             
  local pseudopotential read in
  partial core-charges read in
  partial kinetic energy density read in
  atomic valenz-charges read in
  non local Contribution for L=           2  read in
    real space projection operators read in
  non local Contribution for L=           2  read in
    real space projection operators read in
  non local Contribution for L=           0  read in
    real space projection operators read in
  non local Contribution for L=           0  read in
    real space projection operators read in
  non local Contribution for L=           1  read in
    real space projection operators read in
  non local Contribution for L=           1  read in
    real space projection operators read in
    PAW grid and wavefunctions read in
 
   number of l-projection  operators is LMAX  =           6
   number of lm-projection operators is LMMAX =          18
 
 POTCAR:    PAW_PBE H 15Jun2001                   
   VRHFIN =H: ultrasoft test                                                    
   LEXCH  = PE                                                                  
   EATOM  =    12.4884 eV,    0.9179 Ry                                         
                                                                                
   TITEL  = PAW_PBE H 15Jun2001                                                 
   LULTRA =        F    use ultrasoft PP ?                                      
   IUNSCR =        0    unscreen: 0-lin 1-nonlin 2-no                           
   RPACOR =    0.000    partial core radius                                     
   POMASS =    1.000; ZVAL   =    1.000    mass and valenz                      
   RCORE  =    1.100    outmost cutoff radius                                   
   RWIGS  =    0.700; RWIGS  =    0.370    wigner-seitz radius (au A)           
   ENMAX  =  250.000; ENMIN  =  200.000 eV                                      
   RCLOC  =    0.701    cutoff for local pot                                    
   LCOR   =        T    correct aug charges                                     
   LPAW   =        T    paw PP                                                  
   EAUG   =  400.000                                                            
   RMAX   =    1.123    core radius for proj-oper                               
   RAUG   =    1.200    factor for augmentation sphere                          
   RDEP   =    1.112    radius for radial grids                                 
   RDEPT  =    0.926    core radius for aug-charge                              
                                                                                
   Atomic configuration                                                         
    2 entries                                                                   
     n  l   j            E        occ.                                          
     1  0  0.50        -6.4927   1.0000                                         
     2  1  0.50        -3.4015   0.0000                                         
   Description                                                                  
     l       E           TYP  RCUT    TYP  RCUT                                 
     0     -6.4927494     23  1.100                                             
     0      6.8029130     23  1.100                                             
     1     -4.0817478     23  1.100                                             
  local pseudopotential read in
  atomic valenz-charges read in
  non local Contribution for L=           0  read in
    real space projection operators read in
  non local Contribution for L=           0  read in
    real space projection operators read in
  non local Contribution for L=           1  read in
    real space projection operators read in
    PAW grid and wavefunctions read in
 
   number of l-projection  operators is LMAX  =           3
   number of lm-projection operators is LMMAX =           5
 
 Optimization of the real space projectors (new method)

 maximal supplied QI-value         = 14.36
 optimisation between [QCUT,QGAM] = [ 11.92, 23.98] = [ 39.79,161.09] Ry 
 Optimized for a Real-space Cutoff    1.49 Angstroem

   l    n(q)    QCUT    max X(q) W(low)/X(q) W(high)/X(q)  e(spline) 
   2     10    11.920    66.195    0.79E-04    0.18E-03    0.24E-06
   2     10    11.920    64.643    0.81E-04    0.19E-03    0.24E-06
   0     11    11.920    95.520    0.28E-04    0.54E-04    0.18E-06
   0     11    11.920    63.403    0.27E-04    0.52E-04    0.17E-06
   1     10    11.920    19.961    0.18E-04    0.11E-03    0.23E-06
   1     10    11.920    13.289    0.25E-04    0.87E-04    0.19E-06
 Optimization of the real space projectors (new method)

 maximal supplied QI-value         = 16.25
 optimisation between [QCUT,QGAM] = [ 11.86, 23.89] = [ 39.41,159.82] Ry 
 Optimized for a Real-space Cutoff    1.49 Angstroem

   l    n(q)    QCUT    max X(q) W(low)/X(q) W(high)/X(q)  e(spline) 
   2     10    11.864    80.901    0.13E-03    0.23E-03    0.37E-06
   2     10    11.864    75.754    0.13E-03    0.23E-03    0.38E-06
   0     11    11.864    58.752    0.44E-04    0.11E-04    0.20E-06
   0     11    11.864    30.679    0.36E-04    0.10E-04    0.18E-06
   1     10    11.864    17.977    0.31E-04    0.45E-04    0.10E-06
   1     10    11.864    13.559    0.25E-04    0.37E-04    0.89E-07
 Optimization of the real space projectors (new method)

 maximal supplied QI-value         = 16.25
 optimisation between [QCUT,QGAM] = [ 11.86, 23.89] = [ 39.41,159.82] Ry 
 Optimized for a Real-space Cutoff    1.33 Angstroem

   l    n(q)    QCUT    max X(q) W(low)/X(q) W(high)/X(q)  e(spline) 
   2      9    11.864    65.824    0.22E-03    0.53E-03    0.26E-06
   2      9    11.864    61.429    0.22E-03    0.53E-03    0.26E-06
   0      9    11.864    56.174    0.21E-03    0.32E-04    0.15E-06
   0      9    11.864    31.263    0.19E-03    0.30E-04    0.14E-06
   1      9    11.864    19.828    0.63E-04    0.30E-03    0.16E-06
   1      9    11.864    15.139    0.49E-04    0.25E-03    0.13E-06
 Optimization of the real space projectors (new method)

 maximal supplied QI-value         = 16.25
 optimisation between [QCUT,QGAM] = [ 11.86, 23.89] = [ 39.41,159.82] Ry 
 Optimized for a Real-space Cutoff    1.49 Angstroem

   l    n(q)    QCUT    max X(q) W(low)/X(q) W(high)/X(q)  e(spline) 
   2     10    11.864     4.610    0.10E-03    0.20E-03    0.29E-06
   2     10    11.864     8.522    0.17E-03    0.33E-03    0.50E-06
   0     11    11.864    51.609    0.52E-04    0.55E-04    0.33E-06
   0     11    11.864    27.747    0.46E-04    0.52E-04    0.31E-06
   1     10    11.864    20.408    0.54E-04    0.25E-04    0.21E-06
   1     10    11.864    13.425    0.48E-04    0.22E-04    0.18E-06
 Optimization of the real space projectors (new method)

 maximal supplied QI-value         = 16.25
 optimisation between [QCUT,QGAM] = [ 11.86, 23.89] = [ 39.41,159.82] Ry 
 Optimized for a Real-space Cutoff    1.33 Angstroem

   l    n(q)    QCUT    max X(q) W(low)/X(q) W(high)/X(q)  e(spline) 
   2      9    11.864    60.317    0.21E-03    0.51E-03    0.25E-06
   2      9    11.864    55.921    0.21E-03    0.51E-03    0.26E-06
   0      9    11.864    51.690    0.22E-03    0.30E-04    0.17E-06
   0      9    11.864    30.015    0.20E-03    0.28E-04    0.15E-06
   1      9    11.864    18.849    0.76E-04    0.33E-03    0.17E-06
   1      9    11.864    14.624    0.60E-04    0.28E-03    0.15E-06
 Optimization of the real space projectors (new method)

 maximal supplied QI-value         = 34.20
 optimisation between [QCUT,QGAM] = [ 11.97, 23.94] = [ 40.13,160.53] Ry 
 Optimized for a Real-space Cutoff    1.18 Angstroem

   l    n(q)    QCUT    max X(q) W(low)/X(q) W(high)/X(q)  e(spline) 
   0      8    11.971    19.460    0.15E-03    0.31E-03    0.25E-06
   0      8    11.971    12.209    0.13E-03    0.29E-03    0.25E-06
   1      8    11.971     4.655    0.22E-03    0.24E-03    0.21E-06
  PAW_PBE Pt 04Feb2005                  :
 energy of atom  1       EATOM= -729.1176
 kinetic energy error for atom=    0.0021 (will be added to EATOM!!)
  PAW_PBE Fe 06Sep2000                  :
 energy of atom  2       EATOM= -594.3153
 kinetic energy error for atom=    0.0024 (will be added to EATOM!!)
  PAW_PBE Co 02Aug2007                  :
 energy of atom  3       EATOM= -813.3670
 kinetic energy error for atom=    0.0026 (will be added to EATOM!!)
  PAW_PBE Cu 22Jun2005                  :
 energy of atom  4       EATOM=-1390.9808
 kinetic energy error for atom=    0.0036 (will be added to EATOM!!)
  PAW_PBE Ni 02Aug2007                  :
 energy of atom  5       EATOM=-1077.6739
 kinetic energy error for atom=    0.0027 (will be added to EATOM!!)
  PAW_PBE H 15Jun2001                   :
 energy of atom  6       EATOM=  -12.4884
 kinetic energy error for atom=    0.0008 (will be added to EATOM!!)
 
 
 POSCAR: 11.06                                   
  positions in cartesian coordinates
  No initial velocities read in
 exchange correlation table for  LEXCH =        8
   RHO(1)=    0.500       N(1)  =     2000
   RHO(2)=  100.500       N(2)  =     4000
 


--------------------------------------------------------------------------------------------------------


 ion  position               nearest neighbor table
   1  0.787  0.880  0.311-  49 2.57  59 2.62  28 2.65  11 2.75  19 2.76  61 2.76   4 2.77  33 2.77
                            29 2.78  60 2.79  12 2.84   2 2.84
   2  0.044  0.881  0.306-  79 2.53  77 2.57  28 2.71  30 2.75  33 2.76  60 2.76   6 2.78  52 2.79
                             4 2.83   1 2.84  22 2.84  16 2.91
   3  0.280  0.378  0.315-  64 2.55  68 2.65  31 2.65  39 2.68   5 2.73  33 2.74  13 2.77  19 2.80
                            25 2.80  43 2.81  30 2.84  18 2.96
   4  0.876  0.963  0.412-   9 2.69  60 2.70  17 2.74   6 2.74  16 2.76   1 2.77  12 2.78  11 2.79
                             2 2.83
   5  0.120  0.468  0.417-  39 2.65  33 2.69  12 2.71  16 2.72   3 2.73   7 2.74  25 2.76  10 2.79
                            13 2.87
   6  0.128  0.956  0.412-  52 2.64  16 2.73  14 2.73   4 2.74   8 2.75   2 2.78  22 2.79   9 2.81
                            10 2.84
   7  0.875  0.464  0.420-  81 1.78  39 2.66  75 2.69   5 2.74  29 2.74  12 2.76  27 2.77  15 2.77
                            10 2.83   9 2.84
   8  0.375  0.960  0.414-  43 2.57  52 2.63  61 2.68  14 2.72  10 2.73  27 2.74  13 2.75   6 2.75
                            11 2.78
   9  0.871  0.209  0.413-  81 1.85  75 2.67  60 2.67   4 2.69  17 2.71  15 2.78  22 2.81   6 2.81
                             7 2.84  10 2.90
  10  0.133  0.210  0.416-  81 1.97  39 2.66  13 2.69  43 2.69   8 2.73  22 2.75   5 2.79   7 2.83
                             6 2.84   9 2.90
  11  0.627  0.959  0.414-  61 2.71  12 2.73  13 2.75   1 2.75  27 2.75  17 2.76   8 2.78  19 2.78
                             4 2.79
  12  0.875  0.713  0.417-  33 2.70   5 2.71  29 2.72  11 2.73  16 2.75   7 2.76   4 2.78  27 2.80
                             1 2.84
  13  0.378  0.206  0.416-  43 2.69  10 2.69  11 2.75   8 2.75  19 2.76  17 2.77   3 2.77  25 2.78
                             5 2.87
  14  0.378  0.712  0.415-  44 2.62  52 2.65  27 2.70   8 2.72   6 2.73  15 2.74  30 2.76  16 2.81
                            25 2.82
  15  0.624  0.464  0.415-  44 2.61  75 2.65  18 2.71  27 2.73  14 2.74   7 2.77   9 2.78  25 2.79
                            17 2.81
  16  0.124  0.712  0.416-  33 2.64   5 2.72   6 2.73  30 2.74  12 2.75   4 2.76  25 2.78  14 2.81
                             2 2.91
  17  0.627  0.208  0.414-   9 2.71  18 2.71  60 2.73   4 2.74  11 2.76  13 2.77  25 2.79  19 2.81
                            15 2.81
  18  0.548  0.377  0.314-  67 2.54  68 2.61  26 2.67  17 2.71  15 2.71  60 2.73  44 2.74  75 2.76
                            25 2.80  30 2.84  19 2.85   3 2.96
  19  0.535  0.126  0.311-  80 2.53  68 2.56  59 2.57  43 2.65  13 2.76   1 2.76  61 2.78  11 2.78
                             3 2.80  17 2.81  18 2.85  60 2.88
  20  0.552  0.124  0.052-  37 2.54  57 2.54  48 2.56  62 2.67  63 2.77  47 2.79  34 2.81  56 2.83
                            45 2.95
  21  0.117  0.448  0.127-  47 2.51  36 2.52  40 2.52  42 2.62  70 2.69  69 2.70  64 2.70  31 2.74
                            50 2.78  57 2.79  74 3.04  58 3.09
  22  0.048  0.135  0.312-  65 2.53  77 2.55  55 2.57  39 2.69  43 2.70  10 2.75   6 2.79  75 2.80
                             9 2.81  52 2.83   2 2.84  60 2.85  31 3.35
  23  0.032  0.132  0.039-  70 2.56  41 2.58  40 2.58  62 2.69  76 2.70  24 2.71  45 2.77  35 2.89
                            53 2.93
  24  0.132  0.957  0.136-  79 2.51  35 2.56  77 2.57  53 2.57  55 2.59  70 2.65  58 2.68  23 2.71
                            73 2.74  38 2.74  66 2.81  41 2.91
  25  0.374  0.459  0.417-   5 2.76  13 2.78  16 2.78  30 2.79  17 2.79  15 2.79  18 2.80   3 2.80
                            14 2.82
  26  0.458  0.551  0.220-  74 2.50  73 2.52  51 2.55  79 2.63  30 2.64  18 2.67  44 2.68  32 2.73
                            78 2.74  68 2.81  67 2.84  64 2.85
  27  0.623  0.712  0.416-  44 2.65  61 2.67  14 2.70  15 2.73   8 2.74  11 2.75  29 2.77   7 2.77
                            12 2.80
  28  0.955  0.779  0.215-  58 2.56  50 2.56  66 2.61   1 2.65  42 2.65  33 2.67  49 2.68   2 2.71
                            64 2.75  59 2.94  77 3.16  79 3.16
  29  0.799  0.624  0.317-  42 2.55  32 2.62  39 2.64  49 2.64  75 2.67  12 2.72  33 2.73   7 2.74
                            27 2.77   1 2.78  61 2.79  44 2.83
  30  0.288  0.630  0.314-  79 2.53  64 2.63  26 2.64  33 2.71  16 2.74   2 2.75  52 2.76  14 2.76
                            25 2.79  44 2.79  18 2.84   3 2.84
  31  0.197  0.274  0.226-  70 2.49  43 2.57  57 2.57  55 2.61  65 2.63  39 2.64   3 2.65  21 2.74
                            42 2.80  80 2.84  64 2.96  68 3.01  22 3.35
  32  0.704  0.554  0.222-  54 2.55  69 2.55  51 2.59  29 2.62  49 2.63  44 2.66  78 2.67  75 2.69
                            65 2.72  42 2.73  26 2.73  67 2.77
  33  0.041  0.634  0.318-  16 2.64  28 2.67  64 2.67   5 2.69  12 2.70  42 2.70  30 2.71  29 2.73
                             3 2.74   2 2.76   1 2.77  39 2.80
  34  0.794  0.860  0.055-  50 2.37  48 2.43  66 2.54  36 2.60  63 2.69  71 2.72  20 2.81  35 2.85

  35  0.050  0.863  0.048-  36 2.43  58 2.54  24 2.56  66 2.58  72 2.69  34 2.85  23 2.89  53 2.90
                            62 2.92
  36  0.046  0.646  0.053-  35 2.43  21 2.52  58 2.52  50 2.58  34 2.60  72 2.68  47 2.90  71 3.06

  37  0.627  0.234  0.134-  67 2.50  56 2.50  51 2.50  20 2.54  59 2.54  74 2.55  68 2.55  62 2.57
                            41 2.59  66 2.76
  38  0.383  0.952  0.134-  45 2.42  53 2.43  80 2.46  55 2.52  78 2.52  63 2.54  73 2.58  54 2.59
                            48 2.62  24 2.74  57 2.75  70 2.83
  39  0.036  0.384  0.322-  42 2.62  29 2.64  31 2.64   5 2.65   7 2.66  10 2.66  75 2.68   3 2.68
                            22 2.69  65 2.70  33 2.80  43 2.97
  40  0.009  0.376  0.044-  69 2.35  76 2.47  21 2.52  23 2.58  70 2.59  71 2.60  45 3.03
  41  0.868  0.220  0.132-  76 2.44  77 2.46  67 2.52  65 2.54  62 2.56  23 2.58  37 2.59  69 2.60
                            51 2.66  66 2.68  70 2.71  24 2.91
  42  0.958  0.538  0.223-  50 2.48  29 2.55  21 2.62  39 2.62  69 2.62  28 2.65  65 2.66  33 2.70
                            32 2.73  64 2.76  49 2.77  31 2.80
  43  0.302  0.113  0.318-  55 2.51  80 2.56   8 2.57  31 2.57  19 2.65  52 2.67  61 2.67  13 2.69
                            10 2.69  22 2.70   3 2.81  39 2.97
  44  0.542  0.627  0.320-  15 2.61  78 2.61  14 2.62  27 2.65  32 2.66  26 2.68  61 2.71  52 2.72
                            75 2.72  18 2.74  30 2.79  29 2.83
  45  0.291  0.112  0.049-  38 2.42  70 2.44  53 2.53  57 2.59  63 2.71  23 2.77  20 2.95  40 3.03
                            47 3.10
  46  0.550  0.626  0.049-  54 2.38  51 2.39  73 2.40  71 2.55  76 2.70  56 2.73  53 2.75  63 2.76
                            72 2.80
  47  0.309  0.384  0.051-  74 2.30  21 2.51  56 2.59  57 2.60  72 2.60  20 2.79  36 2.90  45 3.10

  48  0.625  0.943  0.137-  49 2.35  34 2.43  80 2.48  54 2.52  63 2.52  20 2.56  59 2.58  38 2.62
                            50 2.70  57 2.82  66 2.91
  49  0.707  0.789  0.221-  48 2.35  50 2.43  54 2.50   1 2.57  32 2.63  61 2.63  29 2.64  80 2.66
                            78 2.67  28 2.68  42 2.77  59 2.93
  50  0.857  0.689  0.133-  71 2.36  34 2.37  49 2.43  42 2.48  54 2.49  69 2.53  28 2.56  36 2.58
                            48 2.70  21 2.78
  51  0.628  0.460  0.130-  46 2.39  76 2.43  37 2.50  56 2.51  26 2.55  32 2.59  67 2.62  69 2.64
                            41 2.66  74 2.68  73 2.76  54 2.82
  52  0.298  0.874  0.317-  55 2.42  79 2.45  78 2.55   8 2.63   6 2.64  14 2.65  43 2.67  61 2.68
                            44 2.72  30 2.76   2 2.79  22 2.83
  53  0.305  0.877  0.046-  73 2.41  38 2.43  45 2.53  24 2.57  63 2.65  46 2.75  72 2.84  35 2.90
                            23 2.93
  54  0.618  0.719  0.131-  46 2.38  71 2.46  63 2.47  50 2.49  49 2.50  48 2.52  32 2.55  78 2.57
                            73 2.58  38 2.59  51 2.82  69 2.86
  55  0.233  0.022  0.228-  52 2.42  43 2.51  79 2.51  38 2.52  78 2.53  80 2.53  22 2.57  24 2.59
                            31 2.61  70 2.73  77 2.91
  56  0.542  0.383  0.041-  74 2.49  37 2.50  51 2.51  47 2.59  76 2.65  72 2.69  46 2.73  62 2.77
                            20 2.83
  57  0.375  0.205  0.139-  68 2.48  20 2.54  80 2.57  31 2.57  45 2.59  47 2.60  38 2.75  21 2.79
                            70 2.82  48 2.82  74 2.83
  58  0.156  0.704  0.140-  72 2.42  64 2.44  79 2.47  36 2.52  35 2.54  28 2.56  73 2.63  24 2.68
                            74 2.68  21 3.09
  59  0.702  0.057  0.220-  66 2.47  37 2.54  19 2.57  48 2.58  60 2.58   1 2.62  68 2.69  67 2.75
                            77 2.81  80 2.86  49 2.93  28 2.94
  60  0.794  0.129  0.313-  67 2.51  77 2.53  59 2.58   9 2.67   4 2.70  18 2.73  17 2.73   2 2.76
                             1 2.79  75 2.83  22 2.85  19 2.88
  61  0.542  0.871  0.316-  78 2.47  80 2.49  49 2.63  43 2.67  27 2.67  52 2.68   8 2.68  44 2.71
                            11 2.71   1 2.76  19 2.78  29 2.79
  62  0.790  0.129  0.042-  66 2.50  41 2.56  37 2.57  20 2.67  76 2.69  23 2.69  56 2.77  35 2.92

  63  0.544  0.878  0.042-  54 2.47  48 2.52  38 2.54  53 2.65  34 2.69  45 2.71  71 2.75  46 2.76
                            20 2.77
  64  0.208  0.536  0.222-  58 2.44   3 2.55  74 2.62  30 2.63  33 2.67  68 2.69  21 2.70  28 2.75
                            42 2.76  26 2.85  31 2.96
  65  0.946  0.304  0.224-  69 2.49  22 2.53  41 2.54  75 2.57  67 2.57  77 2.61  70 2.62  31 2.63
                            42 2.66  39 2.70  32 2.72
  66  0.869  0.977  0.134-  59 2.47  62 2.50  77 2.52  34 2.54  35 2.58  28 2.61  41 2.68  37 2.76
                            24 2.81  48 2.91
  67  0.717  0.297  0.226-  37 2.50  60 2.51  41 2.52  18 2.54  65 2.57  77 2.58  75 2.59  51 2.62
                            59 2.75  32 2.77  26 2.84
  68  0.456  0.298  0.222-  57 2.48  74 2.48  37 2.55  19 2.56  18 2.61   3 2.65  64 2.69  59 2.69
                            26 2.81  31 3.01
  69  0.869  0.454  0.131-  40 2.35  76 2.47  71 2.47  65 2.49  50 2.53  32 2.55  41 2.60  42 2.62
                            51 2.64  21 2.70  70 2.79  54 2.86
  70  0.122  0.202  0.132-  45 2.44  31 2.49  23 2.56  40 2.59  65 2.62  24 2.65  21 2.69  41 2.71
                            55 2.73  69 2.79  57 2.82  38 2.83
  71  0.783  0.620  0.045-  50 2.36  54 2.46  69 2.47  46 2.55  40 2.60  76 2.70  34 2.72  63 2.75
                            36 3.06
  72  0.298  0.624  0.049-  58 2.42  74 2.44  73 2.50  47 2.60  36 2.68  35 2.69  56 2.69  46 2.80
                            53 2.84
  73  0.386  0.717  0.131-  46 2.40  53 2.41  72 2.50  26 2.52  79 2.55  78 2.57  54 2.58  38 2.58
                            58 2.63  24 2.74  51 2.76  74 2.90
  74  0.388  0.454  0.132-  47 2.30  72 2.44  68 2.48  56 2.49  26 2.50  37 2.55  64 2.62  51 2.68
                            58 2.68  57 2.83  73 2.90  21 3.04
  75  0.793  0.385  0.320-  65 2.57  67 2.59  15 2.65  29 2.67   9 2.67  39 2.68   7 2.69  32 2.69
                            44 2.72  18 2.76  22 2.80  60 2.83
  76  0.786  0.375  0.044-  51 2.43  41 2.44  69 2.47  40 2.47  56 2.65  62 2.69  46 2.70  71 2.70
                            23 2.70
  77  0.951  0.066  0.221-  41 2.46  66 2.52  60 2.53  22 2.55  24 2.57   2 2.57  67 2.58  65 2.61
                            59 2.81  55 2.91  79 3.04  28 3.16
  78  0.464  0.795  0.226-  61 2.47  80 2.52  38 2.52  55 2.53  52 2.55  79 2.57  73 2.57  54 2.57
                            44 2.61  32 2.67  49 2.67  26 2.74
  79  0.231  0.796  0.226-  52 2.45  58 2.47  55 2.51  24 2.51   2 2.53  30 2.53  73 2.55  78 2.57
                            26 2.63  77 3.04  28 3.16
  80  0.461  0.024  0.225-  38 2.46  48 2.48  61 2.49  78 2.52  55 2.53  19 2.53  43 2.56  57 2.57
                            49 2.66  31 2.84  59 2.86
  81  0.949  0.298  0.456-   7 1.78   9 1.85  10 1.97
 
  LATTYP: Found a hexagonal cell.
 ALAT       =    11.0600004197
 C/A-ratio  =     1.9891500149
  
  Lattice vectors:
  
 A1 = (   5.5300002098,  -9.5782413293,   0.0000000000)
 A2 = ( -11.0600004196,   0.0000000000,   0.0000000000)
 A3 = (   0.0000000000,   0.0000000000, -22.0000000000)


Analysis of symmetry for initial positions (statically):
=====================================================================
 Subroutine PRICEL returns:
 Original cell was already a primitive cell.
 

 Routine SETGRP: Setting up the symmetry group for a 
 hexagonal supercell.


 Subroutine GETGRP returns: Found  1 space group operations
 (whereof  1 operations were pure point group operations)
 out of a pool of 24 trial point group operations.


The static configuration has the point symmetry C_1 .


Analysis of symmetry for dynamics (positions and initial velocities):
=====================================================================
 Subroutine PRICEL returns:
 Original cell was already a primitive cell.
 

 Routine SETGRP: Setting up the symmetry group for a 
 hexagonal supercell.


 Subroutine GETGRP returns: Found  1 space group operations
 (whereof  1 operations were pure point group operations)
 out of a pool of 24 trial point group operations.


The dynamic configuration has the point symmetry C_1 .


Analysis of constrained symmetry for selective dynamics:
=====================================================================
 Subroutine PRICEL returns:
 Original cell was already a primitive cell.
 

 Routine SETGRP: Setting up the symmetry group for a 
 hexagonal supercell.


 Subroutine GETGRP returns: Found  1 space group operations
 (whereof  1 operations were pure point group operations)
 out of a pool of 24 trial point group operations.


The constrained configuration has the point symmetry C_1 .


Analysis of structural, dynamic, and magnetic symmetry:
=====================================================================
 Subroutine PRICEL returns:
 Original cell was already a primitive cell.
 

 Routine SETGRP: Setting up the symmetry group for a 
 hexagonal supercell.


 Subroutine GETGRP returns: Found  1 space group operations
 (whereof  1 operations were pure point group operations)
 out of a pool of 24 trial point group operations.


The magnetic configuration has the point symmetry C_1 .


 Subroutine INISYM returns: Found  1 space group operations
 (whereof  1 operations are pure point group operations),
 and found     1 'primitive' translations

 
 
 KPOINTS: mesh auto                               

Automatic generation of k-mesh.
Space group operators:
 irot       det(A)        alpha          n_x          n_y          n_z        tau_x        tau_y        tau_z
    1     1.000000     0.000000     1.000000     0.000000     0.000000     0.000000     0.000000     0.000000
 
 Subroutine IBZKPT returns following result:
 ===========================================
 
 Found      4 irreducible k-points:
 
 Following reciprocal coordinates:
            Coordinates               Weight
  0.000000  0.000000  0.000000      1.000000
  0.500000  0.000000  0.000000      1.000000
  0.000000  0.500000  0.000000      1.000000
  0.500000  0.500000  0.000000      1.000000
 
 Following cartesian coordinates:
            Coordinates               Weight
  0.000000  0.000000  0.000000      1.000000
  0.045208 -0.026101  0.000000      1.000000
  0.000000  0.052202  0.000000      1.000000
  0.045208  0.026101  0.000000      1.000000
 
 TETIRR: Found     12 inequivalent tetrahedra from       24
 
 Subroutine IBZKPT_HF returns following result:
 ==============================================
 
 Found      4 k-points in 1st BZ
 the following      4 k-points will be used (e.g. in the exchange kernel)
 Following reciprocal coordinates:   # in IRBZ
  0.000000  0.000000  0.000000    0.25000000   1 t-inv F
  0.500000  0.000000  0.000000    0.25000000   2 t-inv F
  0.000000  0.500000  0.000000    0.25000000   3 t-inv F
  0.500000  0.500000  0.000000    0.25000000   4 t-inv F


--------------------------------------------------------------------------------------------------------




 Dimension of arrays:
   k-points           NKPTS =      4   k-points in BZ     NKDIM =      4   number of bands    NBANDS=    624
   number of dos      NEDOS =    301   number of ions     NIONS =     81
   non local maximal  LDIM  =      6   non local SUM 2l+1 LMDIM =     18
   total plane-waves  NPLWV = ******
   max r-space proj   IRMAX =   8163   max aug-charges    IRDMAX=  35560
   dimension x,y,z NGX =    90 NGY =   90 NGZ =  168
   dimension x,y,z NGXF=   180 NGYF=  180 NGZF=  336
   support grid    NGXF=   180 NGYF=  180 NGZF=  336
   ions per type =              32  13  10  13  12   1
   NGX,Y,Z   is equivalent  to a cutoff of  13.53, 13.53, 12.70 a.u.
   NGXF,Y,Z  is equivalent  to a cutoff of  27.06, 27.06, 25.39 a.u.

 SYSTEM =  Pt111                                   
 POSCAR =  11.06                                   

 Startparameter for this run:
   NWRITE =      2    write-flag & timer
   PREC   = accura    normal or accurate (medium, high low for compatibility)
   ISTART =      0    job   : 0-new  1-cont  2-samecut
   ICHARG =      2    charge: 1-file 2-atom 10-const
   ISPIN  =      2    spin polarized calculation?
   LNONCOLLINEAR =      F non collinear calculations
   LSORBIT =      F    spin-orbit coupling
   INIWAV =      1    electr: 0-lowe 1-rand  2-diag
   LASPH  =      F    aspherical Exc in radial PAW
   METAGGA=      F    non-selfconsistent MetaGGA calc.

 Electronic Relaxation 1
   ENCUT  =  550.0 eV  40.42 Ry    6.36 a.u.  21.15 21.15 42.07*2*pi/ulx,y,z
   ENINI  =  550.0     initial cutoff
   ENAUG  =  587.0 eV  augmentation charge cutoff
   NELM   =    200;   NELMIN=  2; NELMDL= -5     # of ELM steps 
   EDIFF  = 0.1E-04   stopping-criterion for ELM
   LREAL  =      T    real-space projection
   NLSPLINE    = F    spline interpolate recip. space projectors
   LCOMPAT=      F    compatible to vasp.4.4
   GGA_COMPAT  = T    GGA compatible to vasp.4.4-vasp.4.6
   LMAXPAW     = -100 max onsite density
   LMAXMIX     =    2 max onsite mixed and CHGCAR
   VOSKOWN=      0    Vosko Wilk Nusair interpolation
   ROPT   =   -0.00025  -0.00025  -0.00025  -0.00025
   ROPT   =   -0.00025  -0.00025
 Ionic relaxation
   EDIFFG = -.5E-01   stopping-criterion for IOM
   NSW    =   1009    number of steps for IOM
   NBLOCK =      1;   KBLOCK =   1009    inner block; outer block 
   IBRION =      5    ionic relax: 0-MD 1-quasi-New 2-CG
   NFREE  =      2    steps in history (QN), initial steepest desc. (CG)
   ISIF   =      2    stress and relaxation
   IWAVPR =     11    prediction:  0-non 1-charg 2-wave 3-comb
   ISYM   =      2    0-nonsym 1-usesym 2-fastsym
   LCORR  =      T    Harris-Foulkes like correction to forces

   POTIM  = 0.5000    time-step for ionic-motion
   TEIN   =    0.0    initial temperature
   TEBEG  =    0.0;   TEEND  =   0.0 temperature during run
   SMASS  =  -3.00    Nose mass-parameter (am)
   estimated Nose-frequenzy (Omega)   =  0.10E-29 period in steps =****** mass=  -0.280E-26a.u.
   SCALEE = 1.0000    scale energy and forces
   NPACO  =    256;   APACO  = 16.0  distance and # of slots for P.C.
   PSTRESS=    0.0 pullay stress

  Mass of Ions in am
   POMASS = 195.08 55.85 58.93 63.55 58.69  1.00
  Ionic Valenz
   ZVAL   =  10.00  8.00  9.00 11.00 10.00  1.00
  Atomic Wigner-Seitz radii
   RWIGS  =  -1.00 -1.00 -1.00 -1.00 -1.00 -1.00
  virtual crystal weights 
   VCA    =   1.00  1.00  1.00  1.00  1.00  1.00
   NELECT =     778.0000    total number of electrons
   NUPDOWN=      -1.0000    fix difference up-down

 DOS related values:
   EMIN   =  10.00;   EMAX   =-10.00  energy-range for DOS
   EFERMI =   0.00
   ISMEAR =    -5;   SIGMA  =   0.10  broadening in eV -4-tet -1-fermi 0-gaus

 Electronic relaxation 2 (details)
   IALGO  =     68    algorithm
   LDIAG  =      T    sub-space diagonalisation (order eigenvalues)
   LSUBROT=      F    optimize rotation matrix (better conditioning)
   TURBO    =      0    0=normal 1=particle mesh
   IRESTART =      0    0=no restart 2=restart with 2 vectors
   NREBOOT  =      0    no. of reboots
   NMIN     =      0    reboot dimension
   EREF     =   0.00    reference energy to select bands
   IMIX   =      4    mixing-type and parameters
     AMIX     =   0.40;   BMIX     =  1.00
     AMIX_MAG =   1.60;   BMIX_MAG =  1.00
     AMIN     =   0.10
     WC   =   100.;   INIMIX=   1;  MIXPRE=   1;  MAXMIX= -45

 Intra band minimization:
   WEIMIN = 0.0010     energy-eigenvalue tresh-hold
   EBREAK =  0.40E-08  absolut break condition
   DEPER  =   0.30     relativ break condition  

   TIME   =   0.40     timestep for ELM

  volume/ion in A,a.u.               =      28.77       194.17
  Fermi-wavevector in a.u.,A,eV,Ry     =   1.135656  2.146079 17.547634  1.289715
  Thomas-Fermi vector in A             =   2.272361
 
 Write flags
   LWAVE        =      F    write WAVECAR
   LDOWNSAMPLE  =      F    k-point downsampling of WAVECAR
   LCHARG       =      F    write CHGCAR
   LVTOT        =      F    write LOCPOT, total local potential
   LVHAR        =      F    write LOCPOT, Hartree potential only
   LELF         =      F    write electronic localiz. function (ELF)
   LORBIT       =      0    0 simple, 1 ext, 2 COOP (PROOUT), +10 PAW based schemes


 Dipole corrections
   LMONO  =      F    monopole corrections only (constant potential shift)
   LDIPOL =      F    correct potential (dipole corrections)
   IDIPOL =      0    1-x, 2-y, 3-z, 4-all directions 
   EPSILON=  1.0000000 bulk dielectric constant

 Exchange correlation treatment:
   GGA     =    --    GGA type
   LEXCH   =     8    internal setting for exchange type
   VOSKOWN=      0    Vosko Wilk Nusair interpolation
   LHFCALC =     F    Hartree Fock is set to
   LHFONE  =     F    Hartree Fock one center treatment
   AEXX    =    0.0000 exact exchange contribution

 Linear response parameters
   LEPSILON=     F    determine dielectric tensor
   LRPA    =     F    only Hartree local field effects (RPA)
   LNABLA  =     F    use nabla operator in PAW spheres
   LVEL    =     F    velocity operator in full k-point grid
   LINTERFAST=   F  fast interpolation
   KINTER  =     0    interpolate to denser k-point grid
   CSHIFT  =0.1000    complex shift for real part using Kramers Kronig
   OMEGAMAX=  -1.0    maximum frequency
   DEG_THRESHOLD= 0.2000000E-02 threshold for treating states as degnerate
   RTIME   =   -0.100 relaxation time in fs
  (WPLASMAI=    0.000 imaginary part of plasma frequency in eV, 0.658/RTIME)
   DFIELD  = 0.0000000 0.0000000 0.0000000 field for delta impulse in time
 
 Orbital magnetization related:
   ORBITALMAG=     F  switch on orbital magnetization
   LCHIMAG   =     F  perturbation theory with respect to B field
   DQ        =  0.001000  dq finite difference perturbation B field
   LLRAUG    =     F  two centre corrections for induced B field



--------------------------------------------------------------------------------------------------------


 finite differences
   using selective dynamics as specified on POSCAR
   WARNING: If single coordinates had been selected the selection of coordinates
            is made according to the corresponding   d i r e c t   coordinates!
            Don't support selection of single cartesian coordinates -- sorry ...
  !
 charge density and potential will be updated during run
 spin polarized calculation
 RMM-DIIS sequential band-by-band and
  variant of blocked Davidson during initial phase
 perform sub-space diagonalisation
    before iterative eigenvector-optimisation
 modified Broyden-mixing scheme, WC =      100.0
 initial mixing is a Kerker type mixing with AMIX =  0.4000 and BMIX =      1.0000
 Hartree-type preconditioning will be used
 using additional bands          235
 real space projection scheme for non local part
 use partial core corrections
 calculate Harris-corrections to forces 
   (improved forces if not selfconsistent)
 use gradient corrections 
 use of overlap-Matrix (Vanderbilt PP)
 Fermi weights with tetrahedron method with Bloechl corrections


--------------------------------------------------------------------------------------------------------


  energy-cutoff  :      550.00
  volume of cell :     2330.58
      direct lattice vectors                 reciprocal lattice vectors
    11.060000420  0.000000000  0.000000000     0.090415910 -0.052201650  0.000000000
     5.530000210  9.578241329  0.000000000     0.000000000  0.104403300  0.000000000
     0.000000000  0.000000000 22.000000000     0.000000000  0.000000000  0.045454545

  length of vectors
    11.060000420 11.060000420 22.000000000     0.104403300  0.104403300  0.045454545


 
 k-points in units of 2pi/SCALE and weight: mesh auto                               
   0.00000000  0.00000000  0.00000000       0.250
   0.04520795 -0.02610082  0.00000000       0.250
   0.00000000  0.05220165  0.00000000       0.250
   0.04520795  0.02610082  0.00000000       0.250
 
 k-points in reciprocal lattice and weights: mesh auto                               
   0.00000000  0.00000000  0.00000000       0.250
   0.50000000  0.00000000  0.00000000       0.250
   0.00000000  0.50000000  0.00000000       0.250
   0.50000000  0.50000000  0.00000000       0.250
 
 position of ions in fractional coordinates (direct lattice) 
   0.78732846  0.88015702  0.31068457
   0.04354551  0.88071892  0.30609230
   0.28017024  0.37754588  0.31474200
   0.87649376  0.96324180  0.41203710
   0.11997880  0.46806185  0.41706660
   0.12780282  0.95637248  0.41159522
   0.87451076  0.46356681  0.41981115
   0.37458580  0.95956219  0.41389736
   0.87148417  0.20858015  0.41340428
   0.13264565  0.21011737  0.41578647
   0.62659746  0.95857212  0.41429291
   0.87470475  0.71318161  0.41715533
   0.37785717  0.20617762  0.41603798
   0.37763016  0.71248909  0.41503110
   0.62390269  0.46402602  0.41511601
   0.12360452  0.71198079  0.41589814
   0.62682909  0.20821071  0.41351531
   0.54792061  0.37657112  0.31449429
   0.53450719  0.12581679  0.31100045
   0.55179070  0.12374142  0.05223803
   0.11664031  0.44783054  0.12690504
   0.04789511  0.13536768  0.31190879
   0.03186342  0.13215323  0.03914365
   0.13229023  0.95742467  0.13574991
   0.37389803  0.45931893  0.41665768
   0.45833023  0.55057366  0.21962299
   0.62250431  0.71176498  0.41606092
   0.95473106  0.77905270  0.21531405
   0.79918096  0.62372388  0.31658455
   0.28842219  0.62979581  0.31409132
   0.19730386  0.27376709  0.22569465
   0.70394404  0.55368540  0.22172522
   0.04132238  0.63351287  0.31842714
   0.79426676  0.85995412  0.05534962
   0.05040034  0.86281033  0.04849241
   0.04583922  0.64588455  0.05316479
   0.62748553  0.23380425  0.13407091
   0.38303549  0.95218749  0.13425721
   0.03552271  0.38374560  0.32157309
   0.00878266  0.37630951  0.04359329
   0.86822399  0.21988956  0.13207131
   0.95768743  0.53847804  0.22346892
   0.30206208  0.11330163  0.31838748
   0.54222896  0.62657321  0.31975559
   0.29115016  0.11224154  0.04942744
   0.55011489  0.62555697  0.04882647
   0.30851450  0.38355964  0.05056246
   0.62453420  0.94332048  0.13749178
   0.70748620  0.78937003  0.22081801
   0.85712416  0.68932342  0.13253871
   0.62777237  0.45999968  0.13033077
   0.29814245  0.87412637  0.31715928
   0.30521974  0.87703315  0.04638098
   0.61823189  0.71917785  0.13087512
   0.23341642  0.02203156  0.22829392
   0.54221244  0.38306195  0.04085355
   0.37543997  0.20459316  0.13860528
   0.15586478  0.70436301  0.14002149
   0.70209783  0.05654741  0.21991291
   0.79359782  0.12907225  0.31304112
   0.54235109  0.87103497  0.31618647
   0.78970655  0.12944214  0.04180567
   0.54410433  0.87755340  0.04232343
   0.20842910  0.53574741  0.22172336
   0.94628336  0.30393848  0.22360982
   0.86905633  0.97705001  0.13425761
   0.71711062  0.29698767  0.22578458
   0.45638208  0.29767019  0.22194754
   0.86935297  0.45437442  0.13113085
   0.12200307  0.20180872  0.13240107
   0.78290196  0.62028376  0.04517290
   0.29789721  0.62412549  0.04942260
   0.38609046  0.71740367  0.13123061
   0.38842403  0.45385939  0.13216076
   0.79283385  0.38538747  0.31954301
   0.78618513  0.37451175  0.04413402
   0.95135446  0.06593013  0.22138172
   0.46359829  0.79518871  0.22640819
   0.23108351  0.79634638  0.22553160
   0.46122434  0.02412498  0.22485055
   0.94859381  0.29780185  0.45579008
 
 position of ions in cartesian coordinates  (Angst):
  13.57512163  8.43035630  6.83506054
   5.35198920  8.43573836  6.73403050
   5.18651176  3.61622558  6.92432402
  15.02074866  9.22616239  9.06481628
   3.91534764  4.48320933  9.17546529
   6.70223921  9.16036638  9.05509486
  12.23561400  4.44015481  9.23584531
   9.44929828  9.19091827  9.10574183
  10.79206359  1.99783099  9.09489427
   2.62901007  2.01255490  9.14730240
  12.23107213  9.18143507  9.11444404
  13.61812940  6.83102558  9.17741722
   5.31926269  1.97481897  9.15283549
   8.11665452  6.82439245  9.13068419
   9.46642799  4.44455318  9.13255224
   5.30431998  6.81952378  9.14975900
   8.08413531  1.99429240  9.09733682
   8.14244060  3.60688906  6.91887441
   6.60741667  1.20510360  6.84200992
   6.78709547  1.18522515  1.14923670
   3.76654481  4.28942896  2.79191094
   1.27830321  1.29658430  6.86199332
   1.08321683  1.26579552  0.86116039
   6.75768865  9.17044452  2.98649792
   6.67534617  4.39946758  9.16646886
   8.11380504  5.27352740  4.83170574
  10.82095846  6.81745675  9.15334026
  14.86748747  7.46195479  4.73690904
  12.28813492  5.97417780  6.96486010
   6.67272048  6.03233625  6.91000901
   3.69611280  2.62220721  4.96528240
  10.84750176  5.30333240  4.87795483
   3.96035186  6.06793919  7.00539715
  13.54013713  8.23684812  1.21769172
   5.32876904  8.26420554  1.06683310
   4.07872348  6.18643805  1.16962540
   8.23292784  2.23943355  2.94956001
   9.50196967  9.12028159  2.95365854
   2.51499442  3.67560794  7.07460799
   2.17812787  3.60438329  0.95905241
  10.81854706  2.10615528  2.90556873
  13.56980708  5.15767259  4.91631614
   3.96736476  1.08523035  7.00452456
   9.46200246  6.00146940  7.03462301
   3.84081665  1.07507655  1.08740358
   9.54360111  5.99173566  1.07418236
   5.53325542  3.67382684  1.11237413
  12.12391093  9.03535119  3.02481924
  12.19001410  7.56077667  4.85799630
  13.29175221  6.60250608  2.91585159
   9.48696101  4.40598797  2.86727693
   8.13137470  8.37259334  6.97750423
   8.22572396  8.40043513  1.02038156
  10.81469861  6.88845902  2.87925273
   2.70342022  0.21102363  5.02246627
   8.11520240  3.66905975  0.89877812
   5.28376640  1.95964267  3.04931611
   5.61899210  6.74655889  3.08047284
   8.07790953  0.54162477  4.83808406
   9.49096181  1.23628513  6.88690459
  10.81522685  8.34298315  6.95610243
   9.44996985  1.23982809  0.91972464
  10.87066461  8.40541820  0.93111538
   5.26790923  5.13151797  4.87791390
  12.14667424  2.91119613  4.91941612
  15.01485015  9.35842080  2.95366751
   9.57358561  2.84461955  4.96726068
   6.69370223  2.85115693  4.88284582
  12.12773486  4.35210787  2.88487863
   2.46535630  1.93297263  2.91282356
  12.08906533  5.94122750  0.99380383
   6.74615738  5.97802458  1.08729710
   8.23740307  6.87146547  2.88707340
   6.80581242  4.34717479  2.90753677
  10.89993548  3.69133421  7.02994631
  10.76625790  3.58716396  0.97094843
  10.88657438  0.63149474  4.87039779
   9.52479099  7.61650941  4.98098015
   6.95957939  7.62759781  4.96169511
   5.23455253  0.23107491  4.94671213
  12.13829221  2.85241800 10.02738171
 


--------------------------------------------------------------------------------------------------------


 k-point  1 :   0.0000 0.0000 0.0000  plane waves:   68137
 k-point  2 :   0.5000 0.0000 0.0000  plane waves:   68322
 k-point  3 :   0.0000 0.5000 0.0000  plane waves:   68322
 k-point  4 :   0.5000 0.5000 0.0000  plane waves:   68322

 maximum and minimum number of plane-waves per node :     68322    68137

 maximum number of plane-waves:     68322
 maximum index in each direction: 
   IXMAX=   21   IYMAX=   21   IZMAX=   42
   IXMIN=  -21   IYMIN=  -21   IZMIN=  -42


 serial   3D FFT for wavefunctions
 parallel 3D FFT for charge:
    minimum data exchange during FFTs selected (reduces bandwidth)


 total amount of memory used by VASP MPI-rank0   401580. kBytes
=======================================================================

   base      :      30000. kBytes
   nonlr-proj:     102957. kBytes
   fftplans  :      13535. kBytes
   grid      :     136356. kBytes
   one-center:       2519. kBytes
   wavefun   :     116213. kBytes
 
     INWAV:  cpu time    0.0000: real time    0.0004
 Broyden mixing: mesh for mixing (old mesh)
   NGX = 43   NGY = 43   NGZ = 85
  (NGX  =180   NGY  =180   NGZ  =336)
  gives a total of 157165 points

 initial charge density was supplied:
 charge density of overlapping atoms calculated
 number of electron     778.0000000 magnetization     231.0000000
 keeping initial charge density in first step


--------------------------------------------------------------------------------------------------------


 Maximum index for non-local projection operator         7893
 Maximum index for augmentation-charges         1138 (set IRDMAX)


--------------------------------------------------------------------------------------------------------


 First call to EWALD:  gamma=   0.134
 Maximum number of real-space cells 4x 4x 2
 Maximum number of reciprocal cells 2x 2x 4

    FEWALD:  cpu time    0.0044: real time    0.0044


--------------------------------------- Iteration      1(   1)  ---------------------------------------


    POTLOK:  cpu time    0.5194: real time    2.0569
    SETDIJ:  cpu time    0.0332: real time    0.0334
     EDDAV:  cpu time   66.4952: real time   66.7852
 BZINTS: Fermi energy: 16.506527;778.000000 electrons
         Band energy:7325.157203;  BLOECHL correction: -0.011907
       DOS:  cpu time    0.0435: real time    0.5108
    --------------------------------------------
      LOOP:  cpu time   67.0913: real time   69.3863

 eigenvalue-minimisations  :  9984
 total energy-change (2. order) : 0.7385453E+04  (-0.3324284E+05)
 number of electron     778.0000000 magnetization     231.0000000
 augmentation part      778.0000000 magnetization     231.0000000

 Free energy of the ion-electron system (eV)
  ---------------------------------------------------
  alpha Z        PSCENC =      2041.10282521
  Ewald energy   TEWEN  =    220901.38316160
  -Hartree energ DENC   =   -292573.41116338
  -exchange      EXHF   =         0.00000000
  -V(xc)+E(xc)   XCENC  =      1374.47492354
  PAW double counting   =     64136.80006862   -66038.70876209
  entropy T*S    EENTRO =         0.00000000
  eigenvalues    EBANDS =      7325.15720300
  atomic energy  EATOM  =     70218.65458108
  Solvation  Ediel_sol  =         0.00000000
  ---------------------------------------------------
  free energy    TOTEN  =      7385.45283758 eV

  energy without entropy =     7385.45283758  energy(sigma->0) =     7385.45283758


--------------------------------------------------------------------------------------------------------




--------------------------------------- Iteration      1(   2)  ---------------------------------------


     EDDAV:  cpu time   67.5803: real time   67.9205
 BZINTS: Fermi energy:  5.080001;778.000000 electrons
         Band energy: 521.871872;  BLOECHL correction: -0.092735
       DOS:  cpu time    0.0438: real time    1.7840
    --------------------------------------------
      LOOP:  cpu time   67.6241: real time   69.7045

 eigenvalue-minimisations  : 10224
 total energy-change (2. order) :-0.6803285E+04  (-0.6042453E+04)
 number of electron     778.0000000 magnetization     231.0000000
 augmentation part      778.0000000 magnetization     231.0000000

 Free energy of the ion-electron system (eV)
  ---------------------------------------------------
  alpha Z        PSCENC =      2041.10282521
  Ewald energy   TEWEN  =    220901.38316160
  -Hartree energ DENC   =   -292573.41116338
  -exchange      EXHF   =         0.00000000
  -V(xc)+E(xc)   XCENC  =      1374.47492354
  PAW double counting   =     64136.80006862   -66038.70876209
  entropy T*S    EENTRO =         0.00000000
  eigenvalues    EBANDS =       521.87187183
  atomic energy  EATOM  =     70218.65458108
  Solvation  Ediel_sol  =         0.00000000
  ---------------------------------------------------
  free energy    TOTEN  =       582.16750641 eV

  energy without entropy =      582.16750641  energy(sigma->0) =      582.16750641


--------------------------------------------------------------------------------------------------------




--------------------------------------- Iteration      1(   3)  ---------------------------------------


     EDDAV:  cpu time   66.8104: real time   67.0156
 BZINTS: Fermi energy:  2.914362;778.000000 electrons
         Band energy:-490.637190;  BLOECHL correction: -0.047732
       DOS:  cpu time    0.0459: real time    1.3864
    --------------------------------------------
      LOOP:  cpu time   66.8563: real time   68.4020

 eigenvalue-minimisations  : 10080
 total energy-change (2. order) :-0.1012509E+04  (-0.8459527E+03)
 number of electron     778.0000000 magnetization     231.0000000
 augmentation part      778.0000000 magnetization     231.0000000

 Free energy of the ion-electron system (eV)
  ---------------------------------------------------
  alpha Z        PSCENC =      2041.10282521
  Ewald energy   TEWEN  =    220901.38316160
  -Hartree energ DENC   =   -292573.41116338
  -exchange      EXHF   =         0.00000000
  -V(xc)+E(xc)   XCENC  =      1374.47492354
  PAW double counting   =     64136.80006862   -66038.70876209
  entropy T*S    EENTRO =         0.00000000
  eigenvalues    EBANDS =      -490.63718962
  atomic energy  EATOM  =     70218.65458108
  Solvation  Ediel_sol  =         0.00000000
  ---------------------------------------------------
  free energy    TOTEN  =      -430.34155505 eV

  energy without entropy =     -430.34155505  energy(sigma->0) =     -430.34155505


--------------------------------------------------------------------------------------------------------




--------------------------------------- Iteration      1(   4)  ---------------------------------------


     EDDAV:  cpu time   80.0259: real time   80.2638
 BZINTS: Fermi energy:  2.788616;778.000000 electrons
         Band energy:-553.097039;  BLOECHL correction: -0.043007
       DOS:  cpu time    0.0448: real time    3.5495
    --------------------------------------------
      LOOP:  cpu time   80.0707: real time   83.8133

 eigenvalue-minimisations  : 12624
 total energy-change (2. order) :-0.6245985E+02  (-0.5981079E+02)
 number of electron     778.0000000 magnetization     231.0000000
 augmentation part      778.0000000 magnetization     231.0000000

 Free energy of the ion-electron system (eV)
  ---------------------------------------------------
  alpha Z        PSCENC =      2041.10282521
  Ewald energy   TEWEN  =    220901.38316160
  -Hartree energ DENC   =   -292573.41116338
  -exchange      EXHF   =         0.00000000
  -V(xc)+E(xc)   XCENC  =      1374.47492354
  PAW double counting   =     64136.80006862   -66038.70876209
  entropy T*S    EENTRO =         0.00000000
  eigenvalues    EBANDS =      -553.09703887
  atomic energy  EATOM  =     70218.65458108
  Solvation  Ediel_sol  =         0.00000000
  ---------------------------------------------------
  free energy    TOTEN  =      -492.80140429 eV

  energy without entropy =     -492.80140429  energy(sigma->0) =     -492.80140429


--------------------------------------------------------------------------------------------------------




--------------------------------------- Iteration      1(   5)  ---------------------------------------


     EDDAV:  cpu time   77.0957: real time   77.4580
 BZINTS: Fermi energy:  2.785717;778.000000 electrons
         Band energy:-555.093463;  BLOECHL correction: -0.043431
       DOS:  cpu time    0.0455: real time    2.4545
    CHARGE:  cpu time    3.0526: real time    3.0632
    MIXING:  cpu time    0.0138: real time    2.7375
    --------------------------------------------
      LOOP:  cpu time   80.2077: real time   85.7133

 eigenvalue-minimisations  : 12048
 total energy-change (2. order) :-0.1996425E+01  (-0.1991345E+01)
 number of electron     778.0000031 magnetization     216.7202538
 augmentation part      335.3953303 magnetization     183.5445434

 Broyden mixing:
  rms(total) = 0.11253E+02    rms(broyden)= 0.11253E+02
  rms(prec ) = 0.11645E+02
  weight for this iteration     100.00

 Free energy of the ion-electron system (eV)
  ---------------------------------------------------
  alpha Z        PSCENC =      2041.10282521
  Ewald energy   TEWEN  =    220901.38316160
  -Hartree energ DENC   =   -292573.41116338
  -exchange      EXHF   =         0.00000000
  -V(xc)+E(xc)   XCENC  =      1374.47492354
  PAW double counting   =     64136.80006862   -66038.70876209
  entropy T*S    EENTRO =         0.00000000
  eigenvalues    EBANDS =      -555.09346338
  atomic energy  EATOM  =     70218.65458108
  Solvation  Ediel_sol  =         0.00000000
  ---------------------------------------------------
  free energy    TOTEN  =      -494.79782880 eV

  energy without entropy =     -494.79782880  energy(sigma->0) =     -494.79782880


--------------------------------------------------------------------------------------------------------




--------------------------------------- Iteration      1(   6)  ---------------------------------------


    POTLOK:  cpu time    0.4841: real time    0.4863
    SETDIJ:  cpu time    0.0332: real time    0.0333
    EDDIAG:  cpu time   11.1859: real time   11.2190
  RMM-DIIS:  cpu time   42.8056: real time   42.9394
    ORTHCH:  cpu time    1.7319: real time    2.3783
 BZINTS: Fermi energy:  1.420848;778.000000 electrons
         Band energy:***********;  BLOECHL correction: -0.045347
       DOS:  cpu time    0.0247: real time    0.0248
    CHARGE:  cpu time    3.0675: real time    3.0762
    MIXING:  cpu time    0.0153: real time    4.3303
    --------------------------------------------
      LOOP:  cpu time   59.3481: real time   64.4875

 eigenvalue-minimisations  : 10119
 total energy-change (2. order) :-0.2682270E+03  (-0.9409804E+02)
 number of electron     778.0000039 magnetization     213.1869436
 augmentation part      407.7624053 magnetization     178.3798218

 Broyden mixing:
  rms(total) = 0.21569E+02    rms(broyden)= 0.21569E+02
  rms(prec ) = 0.28516E+02
  weight for this iteration     100.00

 eigenvalues of (default mixing * dielectric matrix)
  average eigenvalue GAMMA=   0.1889
  0.1889

 Free energy of the ion-electron system (eV)
  ---------------------------------------------------
  alpha Z        PSCENC =      2041.10282521
  Ewald energy   TEWEN  =    220901.38316160
  -Hartree energ DENC   =   -290965.08245636
  -exchange      EXHF   =         0.00000000
  -V(xc)+E(xc)   XCENC  =      1331.91918225
  PAW double counting   =     68267.64897602   -69942.81351807
  entropy T*S    EENTRO =         0.00000000
  eigenvalues    EBANDS =     -2615.83757395
  atomic energy  EATOM  =     70218.65458108
  Solvation  Ediel_sol  =         0.00000000
  ---------------------------------------------------
  free energy    TOTEN  =      -763.02482223 eV

  energy without entropy =     -763.02482223  energy(sigma->0) =     -763.02482223


--------------------------------------------------------------------------------------------------------




--------------------------------------- Iteration      1(   7)  ---------------------------------------


    POTLOK:  cpu time    0.4970: real time   25.8166
    SETDIJ:  cpu time    0.0333: real time    0.0334
    EDDIAG:  cpu time   11.1905: real time   11.2219
  RMM-DIIS:  cpu time   42.4887: real time   42.6537
    ORTHCH:  cpu time    1.7051: real time    4.3894
 BZINTS: Fermi energy:  2.064562;778.000000 electrons
         Band energy:***********;  BLOECHL correction: -0.016915
       DOS:  cpu time    0.0266: real time    0.0266
    CHARGE:  cpu time    3.0463: real time    3.0992
    MIXING:  cpu time    0.0169: real time    2.5406
    --------------------------------------------
      LOOP:  cpu time   59.0047: real time   89.7817

 eigenvalue-minimisations  : 10006
 total energy-change (2. order) : 0.2743187E+03  (-0.1419721E+02)
 number of electron     778.0000040 magnetization     208.4958282
 augmentation part      374.7165851 magnetization     165.1353564

 Broyden mixing:
  rms(total) = 0.14118E+02    rms(broyden)= 0.14118E+02
  rms(prec ) = 0.18006E+02
  weight for this iteration     100.00

 eigenvalues of (default mixing * dielectric matrix)
  average eigenvalue GAMMA=   0.2540
  0.3317  0.1762

 Free energy of the ion-electron system (eV)
  ---------------------------------------------------
  alpha Z        PSCENC =      2041.10282521
  Ewald energy   TEWEN  =    220901.38316160
  -Hartree energ DENC   =   -291612.95783546
  -exchange      EXHF   =         0.00000000
  -V(xc)+E(xc)   XCENC  =      1349.71869101
  PAW double counting   =     69168.30314858   -70991.63373836
  entropy T*S    EENTRO =         0.00000000
  eigenvalues    EBANDS =     -1563.27691638
  atomic energy  EATOM  =     70218.65458108
  Solvation  Ediel_sol  =         0.00000000
  ---------------------------------------------------
  free energy    TOTEN  =      -488.70608275 eV

  energy without entropy =     -488.70608275  energy(sigma->0) =     -488.70608275


--------------------------------------------------------------------------------------------------------




--------------------------------------- Iteration      1(   8)  ---------------------------------------


    POTLOK:  cpu time    0.4846: real time    0.4871
    SETDIJ:  cpu time    0.0335: real time    0.0336
    EDDIAG:  cpu time   11.3000: real time   11.3337
  RMM-DIIS:  cpu time   42.5660: real time   42.7991
    ORTHCH:  cpu time    1.7552: real time    2.8713
 BZINTS: Fermi energy:  1.816267;778.000000 electrons
         Band energy:***********;  BLOECHL correction: -0.050146
       DOS:  cpu time    0.0259: real time    0.0260
    CHARGE:  cpu time    3.0667: real time    3.0760
    MIXING:  cpu time    0.0164: real time    4.2643
    --------------------------------------------
      LOOP:  cpu time   59.2481: real time   64.8910

 eigenvalue-minimisations  : 10015
 total energy-change (2. order) : 0.2302752E+02  (-0.1303253E+02)
 number of electron     778.0000033 magnetization     201.2913490
 augmentation part      375.8649253 magnetization     163.4393703

 Broyden mixing:
  rms(total) = 0.15766E+02    rms(broyden)= 0.15766E+02
  rms(prec ) = 0.18383E+02
  weight for this iteration     100.00

[...]
      9.462002  6.001469  7.034623            0           0           0  
      3.840817  1.075077  1.087404            0           0           0  
      9.543601  5.991736  1.074182            0           0           0  
      5.533255  3.673827  1.112374            0           0           0  
     12.123911  9.035351  3.024819            0           0           0  
     12.190014  7.560777  4.857996            0           0           0  
     13.291752  6.602506  2.915852            0           0           0  
      9.486961  4.405988  2.867277            0           0           0  
      8.131375  8.372593  6.977504            0           0           0  
      8.225724  8.400435  1.020382            0           0           0  
     10.814699  6.888459  2.879253            0           0           0  
      2.703420  0.211024  5.022466            0           0           0  
      8.115202  3.669060  0.898778            0           0           0  
      5.283766  1.959643  3.049316            0           0           0  
      5.618992  6.746559  3.080473            0           0           0  
      8.077910  0.541625  4.838084            0           0           0  
      9.490962  1.236285  6.886905            0           0           0  
     10.815227  8.342983  6.956102            0           0           0  
      9.449970  1.239828  0.919725            0           0           0  
     10.870665  8.405418  0.931115            0           0           0  
      5.267909  5.131518  4.877914            0           0           0  
     12.146674  2.911196  4.919416            0           0           0  
     15.014850  9.358421  2.953668            0           0           0  
      9.573586  2.844620  4.967261            0           0           0  
      6.693702  2.851157  4.882846            0           0           0  
     12.127735  4.352108  2.884879            0           0           0  
      2.465356  1.932973  2.912824            0           0           0  
     12.089065  5.941227  0.993804            0           0           0  
      6.746157  5.978025  1.087297            0           0           0  
      8.237403  6.871465  2.887073            0           0           0  
      6.805812  4.347175  2.907537            0           0           0  
     10.899935  3.691334  7.029946            0           0           0  
     10.766258  3.587164  0.970948            0           0           0  
     10.886574  0.631495  4.870398            0           0           0  
      9.524791  7.616509  4.980980            0           0           0  
      6.959579  7.627598  4.961695            0           0           0  
      5.234553  0.231075  4.946712            0           0           0  
     12.138292  2.852418 10.027382     0.067663   -0.513979    0.855130  
 
   2 f  =   23.516258 THz   147.757010 2PiTHz  784.417924 cm-1    97.255462 meV
             X         Y         Z           dx          dy          dz
     13.575122  8.430356  6.835061            0           0           0  
      5.351989  8.435738  6.734030            0           0           0  
      5.186512  3.616226  6.924324            0           0           0  
     15.020749  9.226162  9.064816            0           0           0  
      3.915348  4.483209  9.175465            0           0           0  
      6.702239  9.160366  9.055095            0           0           0  
     12.235614  4.440155  9.235845            0           0           0  
      9.449298  9.190918  9.105742            0           0           0  
     10.792064  1.997831  9.094894            0           0           0  
      2.629010  2.012555  9.147302            0           0           0  
     12.231072  9.181435  9.114444            0           0           0  
     13.618129  6.831026  9.177417            0           0           0  
      5.319263  1.974819  9.152835            0           0           0  
      8.116655  6.824392  9.130684            0           0           0  
      9.466428  4.444553  9.132552            0           0           0  
      5.304320  6.819524  9.149759            0           0           0  
      8.084135  1.994292  9.097337            0           0           0  
      8.142441  3.606889  6.918874            0           0           0  
      6.607417  1.205104  6.842010            0           0           0  
      6.787095  1.185225  1.149237            0           0           0  
      3.766545  4.289429  2.791911            0           0           0  
      1.278303  1.296584  6.861993            0           0           0  
      1.083217  1.265796  0.861160            0           0           0  
      6.757689  9.170445  2.986498            0           0           0  
      6.675346  4.399468  9.166469            0           0           0  
      8.113805  5.273527  4.831706            0           0           0  
     10.820958  6.817457  9.153340            0           0           0  
     14.867487  7.461955  4.736909            0           0           0  
     12.288135  5.974178  6.964860            0           0           0  
      6.672720  6.032336  6.910009            0           0           0  
      3.696113  2.622207  4.965282            0           0           0  
     10.847502  5.303332  4.877955            0           0           0  
      3.960352  6.067939  7.005397            0           0           0  
     13.540137  8.236848  1.217692            0           0           0  
      5.328769  8.264206  1.066833            0           0           0  
      4.078723  6.186438  1.169625            0           0           0  
      8.232928  2.239434  2.949560            0           0           0  
      9.501970  9.120282  2.953659            0           0           0  
      2.514994  3.675608  7.074608            0           0           0  
      2.178128  3.604383  0.959052            0           0           0  
     10.818547  2.106155  2.905569            0           0           0  
     13.569807  5.157673  4.916316            0           0           0  
      3.967365  1.085230  7.004525            0           0           0  
      9.462002  6.001469  7.034623            0           0           0  
      3.840817  1.075077  1.087404            0           0           0  
      9.543601  5.991736  1.074182            0           0           0  
      5.533255  3.673827  1.112374            0           0           0  
     12.123911  9.035351  3.024819            0           0           0  
     12.190014  7.560777  4.857996            0           0           0  
     13.291752  6.602506  2.915852            0           0           0  
      9.486961  4.405988  2.867277            0           0           0  
      8.131375  8.372593  6.977504            0           0           0  
      8.225724  8.400435  1.020382            0           0           0  
     10.814699  6.888459  2.879253            0           0           0  
      2.703420  0.211024  5.022466            0           0           0  
      8.115202  3.669060  0.898778            0           0           0  
      5.283766  1.959643  3.049316            0           0           0  
      5.618992  6.746559  3.080473            0           0           0  
      8.077910  0.541625  4.838084            0           0           0  
      9.490962  1.236285  6.886905            0           0           0  
     10.815227  8.342983  6.956102            0           0           0  
      9.449970  1.239828  0.919725            0           0           0  
     10.870665  8.405418  0.931115            0           0           0  
      5.267909  5.131518  4.877914            0           0           0  
     12.146674  2.911196  4.919416            0           0           0  
     15.014850  9.358421  2.953668            0           0           0  
      9.573586  2.844620  4.967261            0           0           0  
      6.693702  2.851157  4.882846            0           0           0  
     12.127735  4.352108  2.884879            0           0           0  
      2.465356  1.932973  2.912824            0           0           0  
     12.089065  5.941227  0.993804            0           0           0  
      6.746157  5.978025  1.087297            0           0           0  
      8.237403  6.871465  2.887073            0           0           0  
      6.805812  4.347175  2.907537            0           0           0  
     10.899935  3.691334  7.029946            0           0           0  
     10.766258  3.587164  0.970948            0           0           0  
     10.886574  0.631495  4.870398            0           0           0  
      9.524791  7.616509  4.980980            0           0           0  
      6.959579  7.627598  4.961695            0           0           0  
      5.234553  0.231075  4.946712            0           0           0  
     12.138292  2.852418 10.027382    -0.518811   -0.750225   -0.409874  
 
   3 f  =   14.595275 THz    91.704820 2PiTHz  486.845968 cm-1    60.361229 meV
             X         Y         Z           dx          dy          dz
     13.575122  8.430356  6.835061            0           0           0  
      5.351989  8.435738  6.734030            0           0           0  
      5.186512  3.616226  6.924324            0           0           0  
     15.020749  9.226162  9.064816            0           0           0  
      3.915348  4.483209  9.175465            0           0           0  
      6.702239  9.160366  9.055095            0           0           0  
     12.235614  4.440155  9.235845            0           0           0  
      9.449298  9.190918  9.105742            0           0           0  
     10.792064  1.997831  9.094894            0           0           0  
      2.629010  2.012555  9.147302            0           0           0  
     12.231072  9.181435  9.114444            0           0           0  
     13.618129  6.831026  9.177417            0           0           0  
      5.319263  1.974819  9.152835            0           0           0  
      8.116655  6.824392  9.130684            0           0           0  
      9.466428  4.444553  9.132552            0           0           0  
      5.304320  6.819524  9.149759            0           0           0  
      8.084135  1.994292  9.097337            0           0           0  
      8.142441  3.606889  6.918874            0           0           0  
      6.607417  1.205104  6.842010            0           0           0  
      6.787095  1.185225  1.149237            0           0           0  
      3.766545  4.289429  2.791911            0           0           0  
      1.278303  1.296584  6.861993            0           0           0  
      1.083217  1.265796  0.861160            0           0           0  
      6.757689  9.170445  2.986498            0           0           0  
      6.675346  4.399468  9.166469            0           0           0  
      8.113805  5.273527  4.831706            0           0           0  
     10.820958  6.817457  9.153340            0           0           0  
     14.867487  7.461955  4.736909            0           0           0  
     12.288135  5.974178  6.964860            0           0           0  
      6.672720  6.032336  6.910009            0           0           0  
      3.696113  2.622207  4.965282            0           0           0  
     10.847502  5.303332  4.877955            0           0           0  
      3.960352  6.067939  7.005397            0           0           0  
     13.540137  8.236848  1.217692            0           0           0  
      5.328769  8.264206  1.066833            0           0           0  
      4.078723  6.186438  1.169625            0           0           0  
      8.232928  2.239434  2.949560            0           0           0  
      9.501970  9.120282  2.953659            0           0           0  
      2.514994  3.675608  7.074608            0           0           0  
      2.178128  3.604383  0.959052            0           0           0  
     10.818547  2.106155  2.905569            0           0           0  
     13.569807  5.157673  4.916316            0           0           0  
      3.967365  1.085230  7.004525            0           0           0  
      9.462002  6.001469  7.034623            0           0           0  
      3.840817  1.075077  1.087404            0           0           0  
      9.543601  5.991736  1.074182            0           0           0  
      5.533255  3.673827  1.112374            0           0           0  
     12.123911  9.035351  3.024819            0           0           0  
     12.190014  7.560777  4.857996            0           0           0  
     13.291752  6.602506  2.915852            0           0           0  
      9.486961  4.405988  2.867277            0           0           0  
      8.131375  8.372593  6.977504            0           0           0  
      8.225724  8.400435  1.020382            0           0           0  
     10.814699  6.888459  2.879253            0           0           0  
      2.703420  0.211024  5.022466            0           0           0  
      8.115202  3.669060  0.898778            0           0           0  
      5.283766  1.959643  3.049316            0           0           0  
      5.618992  6.746559  3.080473            0           0           0  
      8.077910  0.541625  4.838084            0           0           0  
      9.490962  1.236285  6.886905            0           0           0  
     10.815227  8.342983  6.956102            0           0           0  
      9.449970  1.239828  0.919725            0           0           0  
     10.870665  8.405418  0.931115            0           0           0  
      5.267909  5.131518  4.877914            0           0           0  
     12.146674  2.911196  4.919416            0           0           0  
     15.014850  9.358421  2.953668            0           0           0  
      9.573586  2.844620  4.967261            0           0           0  
      6.693702  2.851157  4.882846            0           0           0  
     12.127735  4.352108  2.884879            0           0           0  
      2.465356  1.932973  2.912824            0           0           0  
     12.089065  5.941227  0.993804            0           0           0  
      6.746157  5.978025  1.087297            0           0           0  
      8.237403  6.871465  2.887073            0           0           0  
      6.805812  4.347175  2.907537            0           0           0  
     10.899935  3.691334  7.029946            0           0           0  
     10.766258  3.587164  0.970948            0           0           0  
     10.886574  0.631495  4.870398            0           0           0  
      9.524791  7.616509  4.980980            0           0           0  
      6.959579  7.627598  4.961695            0           0           0  
      5.234553  0.231075  4.946712            0           0           0  
     12.138292  2.852418 10.027382    -0.852207    0.415918    0.317421  
 
 Finite differences POTIM=  1.500000000000000E-002
  LATTYP: Found a hexagonal cell.
 ALAT       =    11.0600004197
 C/A-ratio  =     1.9891500149
  
  Lattice vectors:
  
 A1 = (   5.5300002098,  -9.5782413293,   0.0000000000)
 A2 = ( -11.0600004196,   0.0000000000,   0.0000000000)
 A3 = (   0.0000000000,   0.0000000000, -22.0000000000)


Analysis of symmetry for initial positions (statically):
=====================================================================
 Subroutine PRICEL returns:
 Original cell was already a primitive cell.
 

 Routine SETGRP: Setting up the symmetry group for a 
 hexagonal supercell.


 Subroutine GETGRP returns: Found  1 space group operations
 (whereof  1 operations were pure point group operations)
 out of a pool of 24 trial point group operations.


The static configuration has the point symmetry C_1 .


Analysis of symmetry for dynamics (positions and initial velocities):
=====================================================================
 Subroutine PRICEL returns:
 Original cell was already a primitive cell.
 

 Routine SETGRP: Setting up the symmetry group for a 
 hexagonal supercell.


 Subroutine GETGRP returns: Found  1 space group operations
 (whereof  1 operations were pure point group operations)
 out of a pool of 24 trial point group operations.


The dynamic configuration has the point symmetry C_1 .


Analysis of constrained symmetry for selective dynamics:
=====================================================================
 Subroutine PRICEL returns:
 Original cell was already a primitive cell.
 

 Routine SETGRP: Setting up the symmetry group for a 
 hexagonal supercell.


 Subroutine GETGRP returns: Found  1 space group operations
 (whereof  1 operations were pure point group operations)
 out of a pool of 24 trial point group operations.


The constrained configuration has the point symmetry C_1 .


Analysis of structural, dynamic, and magnetic symmetry:
=====================================================================
 Subroutine PRICEL returns:
 Original cell was already a primitive cell.
 

 Routine SETGRP: Setting up the symmetry group for a 
 hexagonal supercell.


 Subroutine GETGRP returns: Found  1 space group operations
 (whereof  1 operations were pure point group operations)
 out of a pool of 24 trial point group operations.


The magnetic configuration has the point symmetry C_1 .


 Subroutine INISYM returns: Found  1 space group operations
 (whereof  1 operations are pure point group operations),
 and found     1 'primitive' translations

 
 KPOINTS: mesh auto                               

Automatic generation of k-mesh.
Space group operators:
 irot       det(A)        alpha          n_x          n_y          n_z        tau_x        tau_y        tau_z
    1     1.000000     0.000000     1.000000     0.000000     0.000000     0.000000     0.000000     0.000000
 
 Subroutine IBZKPT returns following result:
 ===========================================
 
 Found      4 irreducible k-points:
 
 Following reciprocal coordinates:
            Coordinates               Weight
  0.000000  0.000000  0.000000      1.000000
  0.500000  0.000000  0.000000      1.000000
  0.000000  0.500000  0.000000      1.000000
  0.500000  0.500000  0.000000      1.000000
 
 Following cartesian coordinates:
            Coordinates               Weight
  0.000000  0.000000  0.000000      1.000000
  0.045208 -0.026101  0.000000      1.000000
  0.000000  0.052202  0.000000      1.000000
  0.045208  0.026101  0.000000      1.000000
 
 TETIRR: Found     12 inequivalent tetrahedra from       24
     LOOP+:  cpu time  751.8370: real time  796.0238
    4ORBIT:  cpu time    0.0000: real time    0.0000
 BZINTS: Fermi energy:  1.470285;778.000000 electrons
         Band energy:***********;  BLOECHL correction: -0.240481

 total amount of memory used by VASP MPI-rank0   401580. kBytes
=======================================================================

   base      :      30000. kBytes
   nonlr-proj:     102957. kBytes
   fftplans  :      13535. kBytes
   grid      :     136356. kBytes
   one-center:       2519. kBytes
   wavefun   :     116213. kBytes
 
  
  
 General timing and accounting informations for this job:
 ========================================================
  
                  Total CPU time used (sec):     9411.850
                            User time (sec):     9352.548
                          System time (sec):       59.301
                         Elapsed time (sec):    10606.699
  
                   Maximum memory used (kb):      754400.
                   Average memory used (kb):           0.
  
                          Minor page faults:      8545468
                          Major page faults:          332
                 Voluntary context switches:         7295
