 vasp.5.4.4.18Apr17-6-g9f103f2a35 (build Oct 25 2019 11:13:22) complex          
  
 executed on             LinuxIFC date 2022.02.05  11:14:42
 running on   48 total cores
 distrk:  each k-point on   48 cores,    1 groups
 distr:  one band on NCORES_PER_BAND=   1 cores,   48 groups


--------------------------------------------------------------------------------------------------------


 INCAR:
 POTCAR:    PAW_PBE Pt 04Feb2005                  
 POTCAR:    PAW_PBE Fe 06Sep2000                  
 POTCAR:    PAW_PBE Co 02Aug2007                  
 POTCAR:    PAW_PBE Cu 22Jun2005                  
 POTCAR:    PAW_PBE Ni 02Aug2007                  
 POTCAR:    PAW_PBE H 15Jun2001                   

 ----------------------------------------------------------------------------- 
|                                                                             |
|           W    W    AA    RRRRR   N    N  II  N    N   GGGG   !!!           |
|           W    W   A  A   R    R  NN   N  II  NN   N  G    G  !!!           |
|           W    W  A    A  R    R  N N  N  II  N N  N  G       !!!           |
|           W WW W  AAAAAA  RRRRR   N  N N  II  N  N N  G  GGG   !            |
|           WW  WW  A    A  R   R   N   NN  II  N   NN  G    G                |
|           W    W  A    A  R    R  N    N  II  N    N   GGGG   !!!           |
|                                                                             |
|      For optimal performance we recommend to set                            |
|        NCORE= 4 - approx SQRT( number of cores)                             |
|      NCORE specifies how many cores store one orbital (NPAR=cpu/NCORE).     |
|      This setting can  greatly improve the performance of VASP for DFT.     |
|      The default,   NCORE=1            might be grossly inefficient         |
|      on modern multi-core architectures or massively parallel machines.     |
|      Do your own testing !!!!                                               |
|      Unfortunately you need to use the default for GW and RPA calculations. |
|      (for HF NCORE is supported but not extensively tested yet)             |
|                                                                             |
 ----------------------------------------------------------------------------- 

 POTCAR:    PAW_PBE Pt 04Feb2005                  
   VRHFIN =Pt: s1d9                                                             
   LEXCH  = PE                                                                  
   EATOM  =   729.1176 eV,   53.5886 Ry                                         
                                                                                
   TITEL  = PAW_PBE Pt 04Feb2005                                                
   LULTRA =        F    use ultrasoft PP ?                                      
   IUNSCR =        1    unscreen: 0-lin 1-nonlin 2-no                           
   RPACOR =    2.330    partial core radius                                     
   POMASS =  195.080; ZVAL   =   10.000    mass and valenz                      
   RCORE  =    2.600    outmost cutoff radius                                   
   RWIGS  =    2.750; RWIGS  =    1.455    wigner-seitz radius (au A)           
   ENMAX  =  230.283; ENMIN  =  172.712 eV                                      
   ICORE  =        3    local potential                                         
   LCOR   =        T    correct aug charges                                     
   LPAW   =        T    paw PP                                                  
   EAUG   =  358.966                                                            
   DEXC   =    0.000                                                            
   RMAX   =    2.658    core radius for proj-oper                               
   RAUG   =    1.300    factor for augmentation sphere                          
   RDEP   =    2.761    radius for radial grids                                 
   RDEPT  =    2.203    core radius for aug-charge                              
                                                                                
   Atomic configuration                                                         
   16 entries                                                                   
     n  l   j            E        occ.                                          
     1  0  0.50    -78401.1885   2.0000                                         
     2  0  0.50    -13770.7750   2.0000                                         
     2  1  1.50    -11931.0468   6.0000                                         
     3  0  0.50     -3234.7234   2.0000                                         
     3  1  1.50     -2699.2216   6.0000                                         
     3  2  2.50     -2119.5714  10.0000                                         
     4  0  0.50      -695.1528   2.0000                                         
     4  1  1.50      -519.6034   6.0000                                         
     4  2  2.50      -306.6786  10.0000                                         
     4  3  3.50       -70.1041  14.0000                                         
     5  0  0.50      -101.7747   2.0000                                         
     5  1  1.50       -55.9873   6.0000                                         
     5  2  2.50        -6.1423   9.0000                                         
     6  0  0.50        -5.6573   1.0000                                         
     6  1  1.50        -6.8029   0.0000                                         
     5  3  2.50        -1.3606   0.0000                                         
   Description                                                                  
     l       E           TYP  RCUT    TYP  RCUT                                 
     2     -6.1423404     23  2.500                                             
     2     -7.5029230     23  2.500                                             
     0     -5.6573207     23  2.500                                             
     0      0.7416693     23  2.500                                             
     1     -2.7211652     23  2.600                                             
     1     20.4087390     23  2.600                                             
     3     -1.3605826     23  2.500                                             
  local pseudopotential read in
  partial core-charges read in
  partial kinetic energy density read in
  atomic valenz-charges read in
  non local Contribution for L=           2  read in
    real space projection operators read in
  non local Contribution for L=           2  read in
    real space projection operators read in
  non local Contribution for L=           0  read in
    real space projection operators read in
  non local Contribution for L=           0  read in
    real space projection operators read in
  non local Contribution for L=           1  read in
    real space projection operators read in
  non local Contribution for L=           1  read in
    real space projection operators read in
    PAW grid and wavefunctions read in
 
   number of l-projection  operators is LMAX  =           6
   number of lm-projection operators is LMMAX =          18
 
 POTCAR:    PAW_PBE Fe 06Sep2000                  
   VRHFIN =Fe:  d7 s1                                                           
   LEXCH  = PE                                                                  
   EATOM  =   594.3153 eV,   43.6809 Ry                                         
                                                                                
   TITEL  = PAW_PBE Fe 06Sep2000                                                
   LULTRA =        F    use ultrasoft PP ?                                      
   IUNSCR =        1    unscreen: 0-lin 1-nonlin 2-no                           
   RPACOR =    2.000    partial core radius                                     
   POMASS =   55.847; ZVAL   =    8.000    mass and valenz                      
   RCORE  =    2.300    outmost cutoff radius                                   
   RWIGS  =    2.460; RWIGS  =    1.302    wigner-seitz radius (au A)           
   ENMAX  =  267.882; ENMIN  =  200.911 eV                                      
   RCLOC  =    1.701    cutoff for local pot                                    
   LCOR   =        T    correct aug charges                                     
   LPAW   =        T    paw PP                                                  
   EAUG   =  511.368                                                            
   DEXC   =    0.000                                                            
   RMAX   =    2.356    core radius for proj-oper                               
   RAUG   =    1.300    factor for augmentation sphere                          
   RDEP   =    2.442    radius for radial grids                                 
   RDEPT  =    1.890    core radius for aug-charge                              
                                                                                
   Atomic configuration                                                         
    9 entries                                                                   
     n  l   j            E        occ.                                          
     1  0  0.50     -6993.8440   2.0000                                         
     2  0  0.50      -814.6047   2.0000                                         
     2  1  1.50      -693.3689   6.0000                                         
     3  0  0.50       -89.4732   2.0000                                         
     3  1  1.50       -55.6373   6.0000                                         
     3  2  2.50        -3.8151   7.0000                                         
     4  0  0.50        -4.2551   1.0000                                         
     4  1  1.50        -3.4015   0.0000                                         
     4  3  2.50        -1.3606   0.0000                                         
   Description                                                                  
     l       E           TYP  RCUT    TYP  RCUT                                 
     2     -3.8151135     23  2.300                                             
     2     -5.1756961     23  2.300                                             
     0     -4.2550963     23  2.300                                             
     0      7.2035603     23  2.300                                             
     1     -2.7211652     23  2.300                                             
     1     18.4316424     23  2.300                                             
  local pseudopotential read in
  partial core-charges read in
  partial kinetic energy density read in
  atomic valenz-charges read in
  non local Contribution for L=           2  read in
    real space projection operators read in
  non local Contribution for L=           2  read in
    real space projection operators read in
  non local Contribution for L=           0  read in
    real space projection operators read in
  non local Contribution for L=           0  read in
    real space projection operators read in
  non local Contribution for L=           1  read in
    real space projection operators read in
  non local Contribution for L=           1  read in
    real space projection operators read in
    PAW grid and wavefunctions read in
 
   number of l-projection  operators is LMAX  =           6
   number of lm-projection operators is LMMAX =          18
 
 POTCAR:    PAW_PBE Co 02Aug2007                  
   VRHFIN =Co: d8 s1                                                            
   LEXCH  = PE                                                                  
   EATOM  =   813.3670 eV,   59.7808 Ry                                         
                                                                                
   TITEL  = PAW_PBE Co 02Aug2007                                                
   LULTRA =        F    use ultrasoft PP ?                                      
   IUNSCR =        1    unscreen: 0-lin 1-nonlin 2-no                           
   RPACOR =    2.000    partial core radius                                     
   POMASS =   58.933; ZVAL   =    9.000    mass and valenz                      
   RCORE  =    2.300    outmost cutoff radius                                   
   RWIGS  =    2.460; RWIGS  =    1.302    wigner-seitz radius (au A)           
   ENMAX  =  267.968; ENMIN  =  200.976 eV                                      
   RCLOC  =    1.203    cutoff for local pot                                    
   LCOR   =        T    correct aug charges                                     
   LPAW   =        T    paw PP                                                  
   EAUG   =  477.818                                                            
   DEXC   =    0.000                                                            
   RMAX   =    2.360    core radius for proj-oper                               
   RAUG   =    1.300    factor for augmentation sphere                          
   RDEP   =    2.393    radius for radial grids                                 
   RDEPT  =    1.864    core radius for aug-charge                              
                                                                                
   Atomic configuration                                                         
    9 entries                                                                   
     n  l   j            E        occ.                                          
     1  0  0.50     -7587.6674   2.0000                                         
     2  0  0.50      -893.6084   2.0000                                         
     2  1  1.50      -764.5805   6.0000                                         
     3  0  0.50       -97.5973   2.0000                                         
     3  1  1.50       -60.9648   6.0000                                         
     3  2  2.50        -4.2382   8.0000                                         
     4  0  0.50        -4.3746   1.0000                                         
     4  1  1.50        -4.0817   0.0000                                         
     4  3  2.50        -1.3606   0.0000                                         
   Description                                                                  
     l       E           TYP  RCUT    TYP  RCUT                                 
     2     -4.2382362     23  2.300                                             
     2     -5.5988188     23  2.300                                             
     0     -4.3745797     23  2.300                                             
     0      5.7660125     23  2.300                                             
     1     -2.7211652     23  2.300                                             
     1     16.9860234     23  2.300                                             
  local pseudopotential read in
  partial core-charges read in
  partial kinetic energy density read in
  atomic valenz-charges read in
  non local Contribution for L=           2  read in
    real space projection operators read in
  non local Contribution for L=           2  read in
    real space projection operators read in
  non local Contribution for L=           0  read in
    real space projection operators read in
  non local Contribution for L=           0  read in
    real space projection operators read in
  non local Contribution for L=           1  read in
    real space projection operators read in
  non local Contribution for L=           1  read in
    real space projection operators read in
    PAW grid and wavefunctions read in
 
   number of l-projection  operators is LMAX  =           6
   number of lm-projection operators is LMMAX =          18
 
 POTCAR:    PAW_PBE Cu 22Jun2005                  
   VRHFIN =Cu: d10 p1                                                           
   LEXCH  = PE                                                                  
   EATOM  =  1390.9808 eV,  102.2342 Ry                                         
                                                                                
   TITEL  = PAW_PBE Cu 22Jun2005                                                
   LULTRA =        F    use ultrasoft PP ?                                      
   IUNSCR =        1    unscreen: 0-lin 1-nonlin 2-no                           
   RPACOR =    2.000    partial core radius                                     
   POMASS =   63.546; ZVAL   =   11.000    mass and valenz                      
   RCORE  =    2.300    outmost cutoff radius                                   
   RWIGS  =    2.200; RWIGS  =    1.164    wigner-seitz radius (au A)           
   ENMAX  =  295.446; ENMIN  =  221.585 eV                                      
   ICORE  =        3    local potential                                         
   LCOR   =        T    correct aug charges                                     
   LPAW   =        T    paw PP                                                  
   EAUG   =  586.980                                                            
   DEXC   =    0.000                                                            
   RMAX   =    2.344    core radius for proj-oper                               
   RAUG   =    1.300    factor for augmentation sphere                          
   RDEP   =    2.302    radius for radial grids                                 
   RDEPT  =    1.771    core radius for aug-charge                              
                                                                                
   Atomic configuration                                                         
    9 entries                                                                   
     n  l   j            E        occ.                                          
     1  0  0.50     -8850.2468   2.0000                                         
     2  0  0.50     -1062.3498   2.0000                                         
     2  1  1.50      -916.8226   6.0000                                         
     3  0  0.50      -114.6929   2.0000                                         
     3  1  1.50       -72.1325   6.0000                                         
     3  2  2.50        -5.0394  10.0000                                         
     4  0  0.50        -4.6097   1.0000                                         
     4  1  0.50        -4.0817   0.0000                                         
     4  3  2.50        -1.3606   0.0000                                         
   Description                                                                  
     l       E           TYP  RCUT    TYP  RCUT                                 
     2     -5.0393973     23  2.200                                             
     2     10.8846608     23  2.200                                             
     0     -4.6097109     23  2.200                                             
     0      8.2520465     23  2.200                                             
     1     -2.7211652     23  2.200                                             
     1     21.7055443     23  2.200                                             
     3      2.7211652     23  2.300                                             
  local pseudopotential read in
  partial core-charges read in
  partial kinetic energy density read in
  atomic valenz-charges read in
  non local Contribution for L=           2  read in
    real space projection operators read in
  non local Contribution for L=           2  read in
    real space projection operators read in
  non local Contribution for L=           0  read in
    real space projection operators read in
  non local Contribution for L=           0  read in
    real space projection operators read in
  non local Contribution for L=           1  read in
    real space projection operators read in
  non local Contribution for L=           1  read in
    real space projection operators read in
    PAW grid and wavefunctions read in
 
   number of l-projection  operators is LMAX  =           6
   number of lm-projection operators is LMMAX =          18
 
 POTCAR:    PAW_PBE Ni 02Aug2007                  
   VRHFIN =Ni:                                                                  
   LEXCH  = PE                                                                  
   EATOM  =  1077.6739 eV,   79.2068 Ry                                         
                                                                                
   TITEL  = PAW_PBE Ni 02Aug2007                                                
   LULTRA =        F    use ultrasoft PP ?                                      
   IUNSCR =        1    unscreen: 0-lin 1-nonlin 2-no                           
   RPACOR =    2.000    partial core radius                                     
   POMASS =   58.690; ZVAL   =   10.000    mass and valenz                      
   RCORE  =    2.300    outmost cutoff radius                                   
   RWIGS  =    2.430; RWIGS  =    1.286    wigner-seitz radius (au A)           
   ENMAX  =  269.532; ENMIN  =  202.149 eV                                      
   RCLOC  =    1.201    cutoff for local pot                                    
   LCOR   =        T    correct aug charges                                     
   LPAW   =        T    paw PP                                                  
   EAUG   =  544.565                                                            
   DEXC   =    0.000                                                            
   RMAX   =    2.357    core radius for proj-oper                               
   RAUG   =    1.300    factor for augmentation sphere                          
   RDEP   =    2.390    radius for radial grids                                 
   RDEPT  =    1.838    core radius for aug-charge                              
                                                                                
   Atomic configuration                                                         
    9 entries                                                                   
     n  l   j            E        occ.                                          
     1  0  0.50     -8206.4253   2.0000                                         
     2  0  0.50      -976.1748   2.0000                                         
     2  1  1.50      -839.0571   6.0000                                         
     3  0  0.50      -105.9991   2.0000                                         
     3  1  1.50       -66.4603   6.0000                                         
     3  2  2.50        -4.6458   9.0000                                         
     4  0  0.50        -4.4926   1.0000                                         
     4  1  1.50        -4.0817   0.0000                                         
     4  3  2.50        -1.3606   0.0000                                         
   Description                                                                  
     l       E           TYP  RCUT    TYP  RCUT                                 
     2     -4.6457903     23  2.300                                             
     2     -6.0063729     23  2.300                                             
     0     -4.4925590     23  2.300                                             
     0      5.0102601     23  2.300                                             
     1     -2.7211652     23  2.300                                             
     1     16.5183231     23  2.300                                             
  local pseudopotential read in
  partial core-charges read in
  partial kinetic energy density read in
  atomic valenz-charges read in
  non local Contribution for L=           2  read in
    real space projection operators read in
  non local Contribution for L=           2  read in
    real space projection operators read in
  non local Contribution for L=           0  read in
    real space projection operators read in
  non local Contribution for L=           0  read in
    real space projection operators read in
  non local Contribution for L=           1  read in
    real space projection operators read in
  non local Contribution for L=           1  read in
    real space projection operators read in
    PAW grid and wavefunctions read in
 
   number of l-projection  operators is LMAX  =           6
   number of lm-projection operators is LMMAX =          18
 
 POTCAR:    PAW_PBE H 15Jun2001                   
   VRHFIN =H: ultrasoft test                                                    
   LEXCH  = PE                                                                  
   EATOM  =    12.4884 eV,    0.9179 Ry                                         
                                                                                
   TITEL  = PAW_PBE H 15Jun2001                                                 
   LULTRA =        F    use ultrasoft PP ?                                      
   IUNSCR =        0    unscreen: 0-lin 1-nonlin 2-no                           
   RPACOR =    0.000    partial core radius                                     
   POMASS =    1.000; ZVAL   =    1.000    mass and valenz                      
   RCORE  =    1.100    outmost cutoff radius                                   
   RWIGS  =    0.700; RWIGS  =    0.370    wigner-seitz radius (au A)           
   ENMAX  =  250.000; ENMIN  =  200.000 eV                                      
   RCLOC  =    0.701    cutoff for local pot                                    
   LCOR   =        T    correct aug charges                                     
   LPAW   =        T    paw PP                                                  
   EAUG   =  400.000                                                            
   RMAX   =    1.123    core radius for proj-oper                               
   RAUG   =    1.200    factor for augmentation sphere                          
   RDEP   =    1.112    radius for radial grids                                 
   RDEPT  =    0.926    core radius for aug-charge                              
                                                                                
   Atomic configuration                                                         
    2 entries                                                                   
     n  l   j            E        occ.                                          
     1  0  0.50        -6.4927   1.0000                                         
     2  1  0.50        -3.4015   0.0000                                         
   Description                                                                  
     l       E           TYP  RCUT    TYP  RCUT                                 
     0     -6.4927494     23  1.100                                             
     0      6.8029130     23  1.100                                             
     1     -4.0817478     23  1.100                                             
  local pseudopotential read in
  atomic valenz-charges read in
  non local Contribution for L=           0  read in
    real space projection operators read in
  non local Contribution for L=           0  read in
    real space projection operators read in
  non local Contribution for L=           1  read in
    real space projection operators read in
    PAW grid and wavefunctions read in
 
   number of l-projection  operators is LMAX  =           3
   number of lm-projection operators is LMMAX =           5
 
 Optimization of the real space projectors (new method)

 maximal supplied QI-value         = 14.36
 optimisation between [QCUT,QGAM] = [ 11.92, 23.98] = [ 39.79,161.09] Ry 
 Optimized for a Real-space Cutoff    1.49 Angstroem

   l    n(q)    QCUT    max X(q) W(low)/X(q) W(high)/X(q)  e(spline) 
   2     10    11.920    66.195    0.79E-04    0.18E-03    0.24E-06
   2     10    11.920    64.643    0.81E-04    0.19E-03    0.24E-06
   0     11    11.920    95.520    0.28E-04    0.54E-04    0.18E-06
   0     11    11.920    63.403    0.27E-04    0.52E-04    0.17E-06
   1     10    11.920    19.961    0.18E-04    0.11E-03    0.23E-06
   1     10    11.920    13.289    0.25E-04    0.87E-04    0.19E-06
 Optimization of the real space projectors (new method)

 maximal supplied QI-value         = 16.25
 optimisation between [QCUT,QGAM] = [ 11.86, 23.89] = [ 39.41,159.82] Ry 
 Optimized for a Real-space Cutoff    1.49 Angstroem

   l    n(q)    QCUT    max X(q) W(low)/X(q) W(high)/X(q)  e(spline) 
   2     10    11.864    80.901    0.13E-03    0.23E-03    0.37E-06
   2     10    11.864    75.754    0.13E-03    0.23E-03    0.38E-06
   0     11    11.864    58.752    0.44E-04    0.11E-04    0.20E-06
   0     11    11.864    30.679    0.36E-04    0.10E-04    0.18E-06
   1     10    11.864    17.977    0.31E-04    0.45E-04    0.10E-06
   1     10    11.864    13.559    0.25E-04    0.37E-04    0.89E-07
 Optimization of the real space projectors (new method)

 maximal supplied QI-value         = 16.25
 optimisation between [QCUT,QGAM] = [ 11.86, 23.89] = [ 39.41,159.82] Ry 
 Optimized for a Real-space Cutoff    1.33 Angstroem

   l    n(q)    QCUT    max X(q) W(low)/X(q) W(high)/X(q)  e(spline) 
   2      9    11.864    65.824    0.22E-03    0.53E-03    0.26E-06
   2      9    11.864    61.429    0.22E-03    0.53E-03    0.26E-06
   0      9    11.864    56.174    0.21E-03    0.32E-04    0.15E-06
   0      9    11.864    31.263    0.19E-03    0.30E-04    0.14E-06
   1      9    11.864    19.828    0.63E-04    0.30E-03    0.16E-06
   1      9    11.864    15.139    0.49E-04    0.25E-03    0.13E-06
 Optimization of the real space projectors (new method)

 maximal supplied QI-value         = 16.25
 optimisation between [QCUT,QGAM] = [ 11.86, 23.89] = [ 39.41,159.82] Ry 
 Optimized for a Real-space Cutoff    1.49 Angstroem

   l    n(q)    QCUT    max X(q) W(low)/X(q) W(high)/X(q)  e(spline) 
   2     10    11.864     4.610    0.10E-03    0.20E-03    0.29E-06
   2     10    11.864     8.522    0.17E-03    0.33E-03    0.50E-06
   0     11    11.864    51.609    0.52E-04    0.55E-04    0.33E-06
   0     11    11.864    27.747    0.46E-04    0.52E-04    0.31E-06
   1     10    11.864    20.408    0.54E-04    0.25E-04    0.21E-06
   1     10    11.864    13.425    0.48E-04    0.22E-04    0.18E-06
 Optimization of the real space projectors (new method)

 maximal supplied QI-value         = 16.25
 optimisation between [QCUT,QGAM] = [ 11.86, 23.89] = [ 39.41,159.82] Ry 
 Optimized for a Real-space Cutoff    1.33 Angstroem

   l    n(q)    QCUT    max X(q) W(low)/X(q) W(high)/X(q)  e(spline) 
   2      9    11.864    60.317    0.21E-03    0.51E-03    0.25E-06
   2      9    11.864    55.921    0.21E-03    0.51E-03    0.26E-06
   0      9    11.864    51.690    0.22E-03    0.30E-04    0.17E-06
   0      9    11.864    30.015    0.20E-03    0.28E-04    0.15E-06
   1      9    11.864    18.849    0.76E-04    0.33E-03    0.17E-06
   1      9    11.864    14.624    0.60E-04    0.28E-03    0.15E-06
 Optimization of the real space projectors (new method)

 maximal supplied QI-value         = 34.20
 optimisation between [QCUT,QGAM] = [ 11.97, 23.94] = [ 40.13,160.53] Ry 
 Optimized for a Real-space Cutoff    1.18 Angstroem

   l    n(q)    QCUT    max X(q) W(low)/X(q) W(high)/X(q)  e(spline) 
   0      8    11.971    19.460    0.15E-03    0.31E-03    0.25E-06
   0      8    11.971    12.209    0.13E-03    0.29E-03    0.25E-06
   1      8    11.971     4.655    0.22E-03    0.24E-03    0.21E-06
  PAW_PBE Pt 04Feb2005                  :
 energy of atom  1       EATOM= -729.1176
 kinetic energy error for atom=    0.0021 (will be added to EATOM!!)
  PAW_PBE Fe 06Sep2000                  :
 energy of atom  2       EATOM= -594.3153
 kinetic energy error for atom=    0.0024 (will be added to EATOM!!)
  PAW_PBE Co 02Aug2007                  :
 energy of atom  3       EATOM= -813.3670
 kinetic energy error for atom=    0.0026 (will be added to EATOM!!)
  PAW_PBE Cu 22Jun2005                  :
 energy of atom  4       EATOM=-1390.9808
 kinetic energy error for atom=    0.0036 (will be added to EATOM!!)
  PAW_PBE Ni 02Aug2007                  :
 energy of atom  5       EATOM=-1077.6739
 kinetic energy error for atom=    0.0027 (will be added to EATOM!!)
  PAW_PBE H 15Jun2001                   :
 energy of atom  6       EATOM=  -12.4884
 kinetic energy error for atom=    0.0008 (will be added to EATOM!!)
 
 
 POSCAR: 10.46                                   
  positions in cartesian coordinates
  No initial velocities read in
 exchange correlation table for  LEXCH =        8
   RHO(1)=    0.500       N(1)  =     2000
   RHO(2)=  100.500       N(2)  =     4000
 


--------------------------------------------------------------------------------------------------------


 ion  position               nearest neighbor table
   1  0.789  0.876  0.319-  33 2.61  19 2.62  28 2.63  61 2.64  49 2.64  29 2.64  60 2.67  59 2.68
                             2 2.69  11 2.77   4 2.84  12 2.91
   2  0.042  0.883  0.317-  79 2.54  60 2.59  77 2.60  30 2.63  52 2.64  28 2.64  33 2.66  22 2.67
                             1 2.69   6 2.75   4 2.86  16 2.91
   3  0.280  0.380  0.320-  39 2.54  33 2.57  64 2.58  31 2.63  19 2.68  43 2.68  30 2.69  68 2.72
                             5 2.78  18 2.78  13 2.81  25 2.89
   4  0.875  0.962  0.427-  12 2.60   9 2.60  17 2.61   6 2.62  11 2.62  16 2.62   1 2.84  60 2.84
                             2 2.86
   5  0.124  0.461  0.429-  16 2.61  10 2.62  25 2.62  13 2.62  12 2.63   7 2.63  33 2.72  39 2.72
                             3 2.78
   6  0.125  0.961  0.422-   8 2.61  10 2.61   9 2.61   4 2.62  14 2.62  16 2.62   2 2.75  52 2.79
                            22 2.86
   7  0.875  0.457  0.434-  81 1.81   9 2.59  10 2.61  15 2.61   5 2.63  27 2.67  12 2.68  39 2.78
                            75 2.87  29 2.90
   8  0.375  0.960  0.422-  27 2.59  14 2.60  13 2.61   6 2.61  10 2.61  43 2.61  11 2.62  52 2.71
                            61 2.73
   9  0.874  0.211  0.422-   7 2.59   4 2.60  15 2.61  17 2.61   6 2.61  10 2.63  75 2.69  60 2.73
                            22 2.82
  10  0.126  0.211  0.424-  13 2.60   7 2.61   8 2.61   6 2.61   5 2.62   9 2.63  39 2.66  43 2.73
                            22 2.80
  11  0.624  0.963  0.425-  13 2.60  17 2.60   8 2.62   4 2.62  12 2.62  27 2.63   1 2.77  19 2.81
                            61 2.85
  12  0.875  0.713  0.433-  81 1.82   4 2.60  16 2.60  11 2.62   5 2.63  27 2.66   7 2.68  33 2.77
                             1 2.91  29 2.93
  13  0.374  0.210  0.427-  11 2.60  10 2.60   8 2.61   5 2.62  17 2.62  25 2.64  43 2.80   3 2.81
                            19 2.86
  14  0.376  0.712  0.425-  27 2.57   8 2.60   6 2.62  15 2.62  25 2.62  16 2.63  44 2.71  30 2.77
                            52 2.79
  15  0.625  0.460  0.422-   9 2.61   7 2.61  17 2.61  25 2.62  14 2.62  27 2.62  44 2.68  75 2.70
                            18 2.74
  16  0.125  0.711  0.428-  12 2.60  25 2.61   5 2.61   4 2.62   6 2.62  14 2.63  33 2.68  30 2.84
                             2 2.91
  17  0.625  0.211  0.424-  11 2.60   4 2.61   9 2.61  15 2.61  25 2.62  13 2.62  18 2.77  60 2.79
                            19 2.86
  18  0.548  0.375  0.317-  67 2.56  60 2.56  75 2.58  44 2.63  68 2.65  26 2.67  30 2.68  19 2.70
                            15 2.74  17 2.77   3 2.78  25 2.94
  19  0.536  0.123  0.316-  43 2.55  80 2.55  68 2.58  59 2.60  61 2.61   1 2.62   3 2.68  18 2.70
                            60 2.72  11 2.81  13 2.86  17 2.86
  20  0.546  0.123  0.038-  37 2.55  57 2.56  48 2.58  62 2.61  45 2.65  63 2.65  47 2.66  56 2.67
                            34 2.68
  21  0.121  0.460  0.127-  40 2.52  47 2.53  36 2.53  69 2.59  42 2.60  70 2.61  50 2.62  64 2.62
                            58 2.64  57 2.68  74 2.69  31 2.70
  22  0.042  0.138  0.314-  65 2.51  55 2.53  39 2.55  43 2.55  75 2.57  77 2.57  60 2.66   2 2.67
                            52 2.71  10 2.80   9 2.82   6 2.86  31 3.39
  23  0.043  0.130  0.032-  70 2.58  40 2.59  45 2.59  41 2.62  62 2.62  76 2.62  24 2.68  35 2.69
                            53 2.75
  24  0.130  0.958  0.131-  79 2.51  77 2.53  53 2.57  35 2.58  55 2.58  70 2.59  58 2.62  38 2.62
                            73 2.63  66 2.68  23 2.68  41 2.70
  25  0.375  0.462  0.430-  16 2.61  15 2.62   5 2.62  17 2.62  14 2.62  13 2.64  30 2.88   3 2.89
                            18 2.94
  26  0.454  0.545  0.219-  73 2.49  74 2.54  51 2.56  79 2.59  64 2.60  68 2.65  30 2.65  78 2.65
                            18 2.67  32 2.67  67 2.70  44 2.76
  27  0.621  0.713  0.429-  81 1.92  14 2.57   8 2.59  15 2.62  11 2.63  12 2.66   7 2.67  44 2.77
                            61 2.84  29 2.85
  28  0.956  0.790  0.221-  58 2.57  42 2.57  66 2.58  50 2.59  49 2.59  64 2.61   1 2.63   2 2.64
                            59 2.67  79 2.72  77 2.73  33 2.75
  29  0.794  0.621  0.320-  39 2.51  75 2.54  42 2.58  44 2.61  32 2.63  33 2.63   1 2.64  61 2.65
                            49 2.72  27 2.85   7 2.90  12 2.93
  30  0.292  0.631  0.319-  79 2.58  44 2.59  52 2.60  64 2.61   2 2.63  33 2.64  26 2.65  18 2.68
                             3 2.69  14 2.77  16 2.84  25 2.88
  31  0.203  0.282  0.225-  70 2.53  55 2.55  65 2.56  43 2.60  57 2.61   3 2.63  80 2.67  42 2.68
                            39 2.69  21 2.70  68 2.71  64 2.75  22 3.39
  32  0.707  0.549  0.221-  54 2.53  69 2.56  49 2.57  42 2.58  51 2.58  65 2.60  78 2.60  29 2.63
                            26 2.67  67 2.68  75 2.70  44 2.70
  33  0.041  0.630  0.327-   3 2.57  39 2.60   1 2.61  29 2.63  30 2.64   2 2.66  16 2.68   5 2.72
                            64 2.72  28 2.75  42 2.75  12 2.77
  34  0.798  0.862  0.040-  50 2.39  66 2.50  71 2.53  36 2.54  48 2.54  63 2.59  20 2.68  35 2.72
                            62 2.73
  35  0.056  0.867  0.036-  72 2.53  58 2.54  36 2.55  24 2.58  53 2.62  66 2.62  23 2.69  62 2.70
                            34 2.72
  36  0.047  0.627  0.035-  21 2.53  34 2.54  35 2.55  58 2.59  47 2.59  72 2.62  50 2.62  40 2.64
                            71 2.69
  37  0.627  0.221  0.128-  74 2.49  51 2.51  67 2.52  41 2.54  56 2.54  20 2.55  59 2.56  68 2.56
                            62 2.60  66 2.63  57 2.68  48 2.82
  38  0.382  0.955  0.129-  80 2.48  53 2.48  45 2.51  48 2.52  78 2.53  73 2.54  54 2.54  63 2.55
                            55 2.59  57 2.60  24 2.62  70 2.65
  39  0.036  0.383  0.326-  29 2.51   3 2.54  22 2.55  75 2.57  33 2.60  10 2.66  42 2.69  31 2.69
                             5 2.72  43 2.76   7 2.78  65 2.79
  40  0.032  0.382  0.036-  69 2.46  71 2.51  21 2.52  76 2.55  70 2.58  23 2.59  36 2.64  47 2.73
                            45 2.75
  41  0.872  0.216  0.128-  76 2.46  65 2.51  37 2.54  69 2.54  67 2.54  77 2.54  51 2.57  62 2.58
                            23 2.62  70 2.63  66 2.64  24 2.70
  42  0.955  0.545  0.224-  50 2.56  28 2.57  32 2.58  29 2.58  21 2.60  49 2.61  64 2.62  69 2.62
                            65 2.63  31 2.68  39 2.69  33 2.75
  43  0.296  0.116  0.322-  52 2.50  55 2.54  61 2.54  19 2.55  22 2.55  31 2.60   8 2.61  80 2.67
                             3 2.68  10 2.73  39 2.76  13 2.80
  44  0.540  0.630  0.322-  61 2.52  52 2.55  30 2.59  29 2.61  18 2.63  78 2.64  75 2.64  15 2.68
                            32 2.70  14 2.71  26 2.76  27 2.77
  45  0.295  0.120  0.038-  70 2.50  38 2.51  57 2.57  53 2.59  23 2.59  63 2.62  20 2.65  47 2.72
                            40 2.75
  46  0.548  0.625  0.042-  51 2.38  73 2.40  54 2.42  53 2.54  71 2.55  63 2.56  76 2.57  56 2.59
                            72 2.61
  47  0.295  0.380  0.037-  74 2.43  21 2.53  72 2.58  36 2.59  56 2.61  57 2.61  20 2.66  45 2.72
                            40 2.73
  48  0.625  0.951  0.131-  49 2.40  54 2.48  80 2.48  38 2.52  34 2.54  59 2.54  50 2.54  63 2.58
                            20 2.58  57 2.62  66 2.64  37 2.82
  49  0.706  0.795  0.220-  48 2.40  50 2.48  54 2.49  80 2.51  32 2.57  78 2.59  28 2.59  42 2.61
                            61 2.63   1 2.64  59 2.66  29 2.72
  50  0.866  0.707  0.128-  34 2.39  71 2.43  54 2.46  49 2.48  48 2.54  42 2.56  69 2.57  28 2.59
                            21 2.62  36 2.62  66 2.71  58 2.80
  51  0.626  0.461  0.126-  46 2.38  76 2.45  37 2.51  56 2.53  26 2.56  73 2.57  41 2.57  32 2.58
                            69 2.58  74 2.60  67 2.63  54 2.65
  52  0.298  0.876  0.318-  55 2.43  61 2.50  43 2.50  78 2.52  79 2.53  44 2.55  30 2.60   2 2.64
                            22 2.71   8 2.71   6 2.79  14 2.79
  53  0.305  0.868  0.039-  73 2.42  38 2.48  63 2.53  46 2.54  24 2.57  72 2.58  45 2.59  35 2.62
                            23 2.75
  54  0.627  0.714  0.128-  46 2.42  71 2.46  50 2.46  48 2.48  63 2.49  49 2.49  32 2.53  38 2.54
                            73 2.55  78 2.62  69 2.64  51 2.65
  55  0.223  0.029  0.227-  52 2.43  78 2.44  79 2.48  80 2.51  22 2.53  43 2.54  31 2.55  24 2.58
                            38 2.59  77 2.69  70 2.72  65 2.82
  56  0.543  0.380  0.033-  74 2.50  51 2.53  37 2.54  72 2.57  76 2.58  46 2.59  47 2.61  62 2.67
                            20 2.67
  57  0.379  0.205  0.131-  68 2.46  80 2.54  20 2.56  45 2.57  38 2.60  74 2.60  31 2.61  47 2.61
                            70 2.61  48 2.62  37 2.68  21 2.68
  58  0.135  0.705  0.131-  72 2.47  64 2.54  35 2.54  28 2.57  79 2.58  36 2.59  24 2.62  74 2.62
                            21 2.64  73 2.65  66 2.73  50 2.80
  59  0.705  0.050  0.220-  66 2.53  48 2.54  67 2.55  37 2.56  68 2.56  19 2.60  60 2.62  77 2.63
                            80 2.64  49 2.66  28 2.67   1 2.68
  60  0.793  0.129  0.318-  67 2.54  18 2.56  77 2.58   2 2.59  75 2.61  59 2.62  22 2.66   1 2.67
                            19 2.72   9 2.73  17 2.79   4 2.84
  61  0.539  0.872  0.317-  78 2.49  52 2.50  44 2.52  43 2.54  80 2.55  19 2.61  49 2.63   1 2.64
                            29 2.65   8 2.73  27 2.84  11 2.85
  62  0.796  0.123  0.033-  66 2.55  41 2.58  37 2.60  20 2.61  23 2.62  76 2.63  56 2.67  35 2.70
                            34 2.73
  63  0.546  0.870  0.035-  54 2.49  53 2.53  38 2.55  46 2.56  48 2.58  71 2.58  34 2.59  45 2.62
                            20 2.65
  64  0.207  0.542  0.224-  58 2.54   3 2.58  26 2.60  30 2.61  28 2.61  42 2.62  21 2.62  68 2.63
                            74 2.69  79 2.70  33 2.72  31 2.75
  65  0.952  0.296  0.221-  22 2.51  41 2.51  67 2.52  69 2.53  77 2.53  31 2.56  70 2.59  32 2.60
                            42 2.63  75 2.63  39 2.79  55 2.82
  66  0.872  0.963  0.128-  34 2.50  59 2.53  62 2.55  28 2.58  77 2.58  35 2.62  37 2.63  41 2.64
                            48 2.64  24 2.68  50 2.71  58 2.73
  67  0.714  0.289  0.223-  77 2.51  37 2.52  65 2.52  60 2.54  41 2.54  59 2.55  18 2.56  51 2.63
                            75 2.64  68 2.67  32 2.68  26 2.70
  68  0.457  0.291  0.221-  57 2.46  74 2.55  59 2.56  37 2.56  19 2.58  64 2.63  26 2.65  18 2.65
                            67 2.67  80 2.69  31 2.71   3 2.72
  69  0.875  0.456  0.127-  71 2.45  76 2.45  40 2.46  65 2.53  41 2.54  32 2.56  50 2.57  51 2.58
                            21 2.59  42 2.62  70 2.62  54 2.64
  70  0.128  0.208  0.128-  45 2.50  31 2.53  40 2.58  23 2.58  65 2.59  24 2.59  21 2.61  57 2.61
                            69 2.62  41 2.63  38 2.65  55 2.72
  71  0.792  0.622  0.039-  50 2.43  69 2.45  54 2.46  40 2.51  34 2.53  46 2.55  76 2.57  63 2.58
                            36 2.69
  72  0.298  0.625  0.041-  74 2.44  58 2.47  73 2.49  35 2.53  56 2.57  53 2.58  47 2.58  46 2.61
                            36 2.62
  73  0.386  0.710  0.128-  46 2.40  53 2.42  72 2.49  26 2.49  38 2.54  54 2.55  78 2.55  51 2.57
                            24 2.63  79 2.64  58 2.65  74 2.73
  74  0.382  0.452  0.125-  47 2.43  72 2.44  37 2.49  56 2.50  26 2.54  68 2.55  51 2.60  57 2.60
                            58 2.62  21 2.69  64 2.69  73 2.73
  75  0.793  0.378  0.321-  29 2.54  22 2.57  39 2.57  18 2.58  60 2.61  65 2.63  67 2.64  44 2.64
                             9 2.69  32 2.70  15 2.70   7 2.87
  76  0.791  0.377  0.038-  51 2.45  69 2.45  41 2.46  40 2.55  46 2.57  71 2.57  56 2.58  23 2.62
                            62 2.63
  77  0.956  0.052  0.221-  67 2.51  65 2.53  24 2.53  41 2.54  22 2.57  66 2.58  60 2.58   2 2.60
                            59 2.63  79 2.67  55 2.69  28 2.73
  78  0.458  0.797  0.224-  55 2.44  80 2.47  61 2.49  52 2.52  38 2.53  73 2.55  79 2.57  49 2.59
                            32 2.60  54 2.62  44 2.64  26 2.65
  79  0.212  0.798  0.224-  55 2.48  24 2.51  52 2.53   2 2.54  78 2.57  30 2.58  58 2.58  26 2.59
                            73 2.64  77 2.67  64 2.70  28 2.72
  80  0.462  0.031  0.222-  78 2.47  48 2.48  38 2.48  49 2.51  55 2.51  57 2.54  61 2.55  19 2.55
                            59 2.64  43 2.67  31 2.67  68 2.69
  81  0.795  0.625  0.478-   7 1.81  12 1.82  27 1.92
 
  LATTYP: Found a hexagonal cell.
 ALAT       =    10.4600000381
 C/A-ratio  =     2.1032504704
  
  Lattice vectors:
  
 A1 = (   5.2300000190,  -9.0586257566,   0.0000000000)
 A2 = ( -10.4600000381,   0.0000000000,   0.0000000000)
 A3 = (   0.0000000000,   0.0000000000, -22.0000000000)


Analysis of symmetry for initial positions (statically):
=====================================================================
 Subroutine PRICEL returns:
 Original cell was already a primitive cell.
 

 Routine SETGRP: Setting up the symmetry group for a 
 hexagonal supercell.


 Subroutine GETGRP returns: Found  1 space group operations
 (whereof  1 operations were pure point group operations)
 out of a pool of 24 trial point group operations.


The static configuration has the point symmetry C_1 .


Analysis of symmetry for dynamics (positions and initial velocities):
=====================================================================
 Subroutine PRICEL returns:
 Original cell was already a primitive cell.
 

 Routine SETGRP: Setting up the symmetry group for a 
 hexagonal supercell.


 Subroutine GETGRP returns: Found  1 space group operations
 (whereof  1 operations were pure point group operations)
 out of a pool of 24 trial point group operations.


The dynamic configuration has the point symmetry C_1 .


Analysis of constrained symmetry for selective dynamics:
=====================================================================
 Subroutine PRICEL returns:
 Original cell was already a primitive cell.
 

 Routine SETGRP: Setting up the symmetry group for a 
 hexagonal supercell.


 Subroutine GETGRP returns: Found  1 space group operations
 (whereof  1 operations were pure point group operations)
 out of a pool of 24 trial point group operations.


The constrained configuration has the point symmetry C_1 .


Analysis of structural, dynamic, and magnetic symmetry:
=====================================================================
 Subroutine PRICEL returns:
 Original cell was already a primitive cell.
 

 Routine SETGRP: Setting up the symmetry group for a 
 hexagonal supercell.


 Subroutine GETGRP returns: Found  1 space group operations
 (whereof  1 operations were pure point group operations)
 out of a pool of 24 trial point group operations.


The magnetic configuration has the point symmetry C_1 .


 Subroutine INISYM returns: Found  1 space group operations
 (whereof  1 operations are pure point group operations),
 and found     1 'primitive' translations

 
 
 KPOINTS: mesh auto                               

Automatic generation of k-mesh.
Space group operators:
 irot       det(A)        alpha          n_x          n_y          n_z        tau_x        tau_y        tau_z
    1     1.000000     0.000000     1.000000     0.000000     0.000000     0.000000     0.000000     0.000000
 
 Subroutine IBZKPT returns following result:
 ===========================================
 
 Found      4 irreducible k-points:
 
 Following reciprocal coordinates:
            Coordinates               Weight
  0.000000  0.000000  0.000000      1.000000
  0.500000 -0.000000  0.000000      1.000000
  0.000000  0.500000  0.000000      1.000000
  0.500000  0.500000  0.000000      1.000000
 
 Following cartesian coordinates:
            Coordinates               Weight
  0.000000  0.000000  0.000000      1.000000
  0.047801 -0.027598  0.000000      1.000000
  0.000000  0.055196  0.000000      1.000000
  0.047801  0.027598  0.000000      1.000000
 
 TETIRR: Found     12 inequivalent tetrahedra from       24
 
 Subroutine IBZKPT_HF returns following result:
 ==============================================
 
 Found      4 k-points in 1st BZ
 the following      4 k-points will be used (e.g. in the exchange kernel)
 Following reciprocal coordinates:   # in IRBZ
  0.000000  0.000000  0.000000    0.25000000   1 t-inv F
  0.500000 -0.000000  0.000000    0.25000000   2 t-inv F
  0.000000  0.500000  0.000000    0.25000000   3 t-inv F
  0.500000  0.500000  0.000000    0.25000000   4 t-inv F


--------------------------------------------------------------------------------------------------------




 Dimension of arrays:
   k-points           NKPTS =      4   k-points in BZ     NKDIM =      4   number of bands    NBANDS=    624
   number of dos      NEDOS =    301   number of ions     NIONS =     81
   non local maximal  LDIM  =      6   non local SUM 2l+1 LMDIM =     18
   total plane-waves  NPLWV = ******
   max r-space proj   IRMAX =   7217   max aug-charges    IRDMAX=  31436
   dimension x,y,z NGX =    80 NGY =   80 NGZ =  168
   dimension x,y,z NGXF=   160 NGYF=  160 NGZF=  336
   support grid    NGXF=   160 NGYF=  160 NGZF=  336
   ions per type =              32  13  10  13  12   1
   NGX,Y,Z   is equivalent  to a cutoff of  12.71, 12.71, 12.70 a.u.
   NGXF,Y,Z  is equivalent  to a cutoff of  25.43, 25.43, 25.39 a.u.

 SYSTEM =  Pt111                                   
 POSCAR =  10.46                                   

 Startparameter for this run:
   NWRITE =      2    write-flag & timer
   PREC   = accura    normal or accurate (medium, high low for compatibility)
   ISTART =      0    job   : 0-new  1-cont  2-samecut
   ICHARG =      2    charge: 1-file 2-atom 10-const
   ISPIN  =      2    spin polarized calculation?
   LNONCOLLINEAR =      F non collinear calculations
   LSORBIT =      F    spin-orbit coupling
   INIWAV =      1    electr: 0-lowe 1-rand  2-diag
   LASPH  =      F    aspherical Exc in radial PAW
   METAGGA=      F    non-selfconsistent MetaGGA calc.

 Electronic Relaxation 1
   ENCUT  =  550.0 eV  40.42 Ry    6.36 a.u.  20.00 20.00 42.07*2*pi/ulx,y,z
   ENINI  =  550.0     initial cutoff
   ENAUG  =  587.0 eV  augmentation charge cutoff
   NELM   =    200;   NELMIN=  2; NELMDL= -5     # of ELM steps 
   EDIFF  = 0.1E-04   stopping-criterion for ELM
   LREAL  =      T    real-space projection
   NLSPLINE    = F    spline interpolate recip. space projectors
   LCOMPAT=      F    compatible to vasp.4.4
   GGA_COMPAT  = T    GGA compatible to vasp.4.4-vasp.4.6
   LMAXPAW     = -100 max onsite density
   LMAXMIX     =    2 max onsite mixed and CHGCAR
   VOSKOWN=      0    Vosko Wilk Nusair interpolation
   ROPT   =   -0.00025  -0.00025  -0.00025  -0.00025
   ROPT   =   -0.00025  -0.00025
 Ionic relaxation
   EDIFFG = -.5E-01   stopping-criterion for IOM
   NSW    =   1009    number of steps for IOM
   NBLOCK =      1;   KBLOCK =   1009    inner block; outer block 
   IBRION =      5    ionic relax: 0-MD 1-quasi-New 2-CG
   NFREE  =      2    steps in history (QN), initial steepest desc. (CG)
   ISIF   =      2    stress and relaxation
   IWAVPR =     11    prediction:  0-non 1-charg 2-wave 3-comb
   ISYM   =      2    0-nonsym 1-usesym 2-fastsym
   LCORR  =      T    Harris-Foulkes like correction to forces

   POTIM  = 0.5000    time-step for ionic-motion
   TEIN   =    0.0    initial temperature
   TEBEG  =    0.0;   TEEND  =   0.0 temperature during run
   SMASS  =  -3.00    Nose mass-parameter (am)
   estimated Nose-frequenzy (Omega)   =  0.10E-29 period in steps =****** mass=  -0.250E-26a.u.
   SCALEE = 1.0000    scale energy and forces
   NPACO  =    256;   APACO  = 16.0  distance and # of slots for P.C.
   PSTRESS=    0.0 pullay stress

  Mass of Ions in am
   POMASS = 195.08 55.85 58.93 63.55 58.69  1.00
  Ionic Valenz
   ZVAL   =  10.00  8.00  9.00 11.00 10.00  1.00
  Atomic Wigner-Seitz radii
   RWIGS  =  -1.00 -1.00 -1.00 -1.00 -1.00 -1.00
  virtual crystal weights 
   VCA    =   1.00  1.00  1.00  1.00  1.00  1.00
   NELECT =     778.0000    total number of electrons
   NUPDOWN=      -1.0000    fix difference up-down

 DOS related values:
   EMIN   =  10.00;   EMAX   =-10.00  energy-range for DOS
   EFERMI =   0.00
   ISMEAR =    -5;   SIGMA  =   0.10  broadening in eV -4-tet -1-fermi 0-gaus

 Electronic relaxation 2 (details)
   IALGO  =     68    algorithm
   LDIAG  =      T    sub-space diagonalisation (order eigenvalues)
   LSUBROT=      F    optimize rotation matrix (better conditioning)
   TURBO    =      0    0=normal 1=particle mesh
   IRESTART =      0    0=no restart 2=restart with 2 vectors
   NREBOOT  =      0    no. of reboots
   NMIN     =      0    reboot dimension
   EREF     =   0.00    reference energy to select bands
   IMIX   =      4    mixing-type and parameters
     AMIX     =   0.40;   BMIX     =  1.00
     AMIX_MAG =   1.60;   BMIX_MAG =  1.00
     AMIN     =   0.10
     WC   =   100.;   INIMIX=   1;  MIXPRE=   1;  MAXMIX= -45

 Intra band minimization:
   WEIMIN = 0.0010     energy-eigenvalue tresh-hold
   EBREAK =  0.40E-08  absolut break condition
   DEPER  =   0.30     relativ break condition  

   TIME   =   0.40     timestep for ELM

  volume/ion in A,a.u.               =      25.74       173.67
  Fermi-wavevector in a.u.,A,eV,Ry     =   1.178680  2.227382 18.902381  1.389286
  Thomas-Fermi vector in A             =   2.315004
 
 Write flags
   LWAVE        =      F    write WAVECAR
   LDOWNSAMPLE  =      F    k-point downsampling of WAVECAR
   LCHARG       =      F    write CHGCAR
   LVTOT        =      F    write LOCPOT, total local potential
   LVHAR        =      F    write LOCPOT, Hartree potential only
   LELF         =      F    write electronic localiz. function (ELF)
   LORBIT       =      0    0 simple, 1 ext, 2 COOP (PROOUT), +10 PAW based schemes


 Dipole corrections
   LMONO  =      F    monopole corrections only (constant potential shift)
   LDIPOL =      F    correct potential (dipole corrections)
   IDIPOL =      0    1-x, 2-y, 3-z, 4-all directions 
   EPSILON=  1.0000000 bulk dielectric constant

 Exchange correlation treatment:
   GGA     =    --    GGA type
   LEXCH   =     8    internal setting for exchange type
   VOSKOWN=      0    Vosko Wilk Nusair interpolation
   LHFCALC =     F    Hartree Fock is set to
   LHFONE  =     F    Hartree Fock one center treatment
   AEXX    =    0.0000 exact exchange contribution

 Linear response parameters
   LEPSILON=     F    determine dielectric tensor
   LRPA    =     F    only Hartree local field effects (RPA)
   LNABLA  =     F    use nabla operator in PAW spheres
   LVEL    =     F    velocity operator in full k-point grid
   LINTERFAST=   F  fast interpolation
   KINTER  =     0    interpolate to denser k-point grid
   CSHIFT  =0.1000    complex shift for real part using Kramers Kronig
   OMEGAMAX=  -1.0    maximum frequency
   DEG_THRESHOLD= 0.2000000E-02 threshold for treating states as degnerate
   RTIME   =   -0.100 relaxation time in fs
  (WPLASMAI=    0.000 imaginary part of plasma frequency in eV, 0.658/RTIME)
   DFIELD  = 0.0000000 0.0000000 0.0000000 field for delta impulse in time
 
 Orbital magnetization related:
   ORBITALMAG=     F  switch on orbital magnetization
   LCHIMAG   =     F  perturbation theory with respect to B field
   DQ        =  0.001000  dq finite difference perturbation B field
   LLRAUG    =     F  two centre corrections for induced B field



--------------------------------------------------------------------------------------------------------


 finite differences
   using selective dynamics as specified on POSCAR
   WARNING: If single coordinates had been selected the selection of coordinates
            is made according to the corresponding   d i r e c t   coordinates!
            Don't support selection of single cartesian coordinates -- sorry ...
  !
 charge density and potential will be updated during run
 spin polarized calculation
 RMM-DIIS sequential band-by-band and
  variant of blocked Davidson during initial phase
 perform sub-space diagonalisation
    before iterative eigenvector-optimisation
 modified Broyden-mixing scheme, WC =      100.0
 initial mixing is a Kerker type mixing with AMIX =  0.4000 and BMIX =      1.0000
 Hartree-type preconditioning will be used
 using additional bands          235
 real space projection scheme for non local part
 use partial core corrections
 calculate Harris-corrections to forces 
   (improved forces if not selfconsistent)
 use gradient corrections 
 use of overlap-Matrix (Vanderbilt PP)
 Fermi weights with tetrahedron method with Bloechl corrections


--------------------------------------------------------------------------------------------------------


  energy-cutoff  :      550.00
  volume of cell :     2084.57
      direct lattice vectors                 reciprocal lattice vectors
    10.460000038  0.000000000  0.000000000     0.095602294 -0.055196010  0.000000000
     5.230000019  9.058625757  0.000000000     0.000000000  0.110392020  0.000000000
     0.000000000  0.000000000 22.000000000     0.000000000  0.000000000  0.045454545

  length of vectors
    10.460000038 10.460000038 22.000000000     0.110392020  0.110392020  0.045454545


 
 k-points in units of 2pi/SCALE and weight: mesh auto                               
   0.00000000  0.00000000  0.00000000       0.250
   0.04780115 -0.02759801  0.00000000       0.250
   0.00000000  0.05519601  0.00000000       0.250
   0.04780115  0.02759801  0.00000000       0.250
 
 k-points in reciprocal lattice and weights: mesh auto                               
   0.00000000  0.00000000  0.00000000       0.250
   0.50000000 -0.00000000  0.00000000       0.250
   0.00000000  0.50000000  0.00000000       0.250
   0.50000000  0.50000000  0.00000000       0.250
 
 position of ions in fractional coordinates (direct lattice) 
   0.78879301  0.87595474  0.31894354
   0.04216231  0.88263536  0.31651821
   0.28041372  0.37956743  0.32045408
   0.87454162  0.96192024  0.42690402
   0.12434556  0.46104655  0.42908608
   0.12468668  0.96132256  0.42226424
   0.87519769  0.45694284  0.43351592
   0.37478912  0.96027997  0.42175377
   0.87432335  0.21074964  0.42199885
   0.12578667  0.21050163  0.42394325
   0.62370937  0.96263060  0.42497140
   0.87465307  0.71347160  0.43281819
   0.37449935  0.20950812  0.42737503
   0.37560090  0.71184607  0.42507861
   0.62505199  0.46043485  0.42228258
   0.12466885  0.71087021  0.42802161
   0.62460646  0.21081595  0.42365090
   0.54826633  0.37472728  0.31731876
   0.53582799  0.12320089  0.31566845
   0.54635554  0.12346440  0.03801974
   0.12124064  0.46039479  0.12715021
   0.04239420  0.13751523  0.31421662
   0.04283891  0.12981457  0.03173287
   0.13019387  0.95827841  0.13124685
   0.37450639  0.46165106  0.42996678
   0.45403289  0.54545091  0.21870836
   0.62072004  0.71277707  0.42863676
   0.95636135  0.79046790  0.22127113
   0.79397454  0.62081298  0.32049331
   0.29218757  0.63056302  0.31907128
   0.20299264  0.28191601  0.22537426
   0.70728990  0.54862033  0.22052174
   0.04080630  0.62956911  0.32702289
   0.79775823  0.86189876  0.04039458
   0.05564464  0.86654624  0.03604956
   0.04678687  0.62731106  0.03496113
   0.62680793  0.22051446  0.12798747
   0.38242997  0.95507716  0.12934307
   0.03584848  0.38330896  0.32611716
   0.03228695  0.38241898  0.03570727
   0.87180834  0.21550419  0.12750532
   0.95519237  0.54505519  0.22370187
   0.29620852  0.11582067  0.32179006
   0.54029255  0.63029117  0.32229327
   0.29501736  0.12008867  0.03750641
   0.54755980  0.62539500  0.04218165
   0.29450307  0.37991063  0.03693883
   0.62547323  0.95120890  0.13146718
   0.70629551  0.79479816  0.21965480
   0.86639037  0.70660939  0.12805709
   0.62604680  0.46066035  0.12631648
   0.29814303  0.87599568  0.31771481
   0.30524438  0.86778677  0.03913090
   0.62727034  0.71381420  0.12769253
   0.22342560  0.02895889  0.22713189
   0.54327421  0.38045200  0.03307323
   0.37859094  0.20515622  0.13147005
   0.13501613  0.70531698  0.13067687
   0.70508973  0.04998780  0.22044003
   0.79289118  0.12900075  0.31760218
   0.53880725  0.87215385  0.31744097
   0.79612970  0.12318704  0.03281809
   0.54606913  0.87006807  0.03477158
   0.20705462  0.54237546  0.22432821
   0.95183918  0.29572597  0.22078627
   0.87174178  0.96317289  0.12820031
   0.71391943  0.28911011  0.22288637
   0.45746385  0.29078742  0.22068324
   0.87522322  0.45648295  0.12682467
   0.12758453  0.20753202  0.12806114
   0.79233835  0.62247135  0.03901829
   0.29812102  0.62506428  0.04053259
   0.38563452  0.71042955  0.12826607
   0.38240893  0.45157229  0.12544734
   0.79342461  0.37799252  0.32093139
   0.79084340  0.37728899  0.03790948
   0.95584833  0.05187198  0.22132157
   0.45788199  0.79706057  0.22411927
   0.21215454  0.79805172  0.22448805
   0.46238740  0.03124127  0.22181689
   0.79475362  0.62500132  0.47826672
 
 position of ions in cartesian coordinates  (Angst):
  12.83201827  7.93494617  7.01675782
   5.05720067  7.99546339  6.96340052
   4.91826520  3.43835930  7.04998978
  14.17854827  8.71367546  9.39188844
   3.71192805  4.17644817  9.43989371
   6.33193972  8.70826132  9.28981320
  11.54437890  4.13927419  9.53735034
   8.94255846  8.69881682  9.27858287
  10.24764287  1.90910208  9.28397473
   2.41665210  1.90685552  9.32675151
  11.55855804  8.72011031  9.34937074
  12.88032765  6.46307218  9.52200013
   5.01299067  1.89785565  9.40225061
   7.65174042  6.44834715  9.35172934
   8.94611808  4.17090701  9.29021670
   5.02188746  6.43950723  9.41647535
   7.63595099  1.90970280  9.32031983
   7.69468953  3.39451422  6.98101276
   6.24910145  1.11603077  6.94470601
   6.36059777  1.11841783  0.83643430
   3.67604182  4.17054411  2.79730458
   1.16264805  1.24569905  6.91276560
   1.12702522  1.17594162  0.69812310
   6.37362399  8.68068553  2.88743074
   6.33177190  4.18192421  9.45926924
   7.60189228  4.94103567  4.81158384
  10.22055572  6.45678077  9.43000864
  14.13768686  7.16055290  4.86796493
  11.55182565  5.62371246  7.05085293
   6.35412659  5.71203445  7.01956824
   3.59772373  2.55377166  4.95823367
  10.26753667  4.96974625  4.85147823
   3.71948034  5.70303095  7.19450359
  12.85228162  7.80761834  0.88868079
   5.11407977  7.84971811  0.79309028
   3.77022748  5.68257614  0.76914493
   7.70970158  1.99755794  2.81572435
   8.99527104  8.65168656  2.84554761
   2.37968095  3.47225238  7.17457755
   2.33777282  3.46419046  0.78556002
  10.24620218  1.95217182  2.80511704
  12.84195085  4.93745094  4.92144108
   3.70408321  1.04917615  7.07938126
   8.94788293  5.70957186  7.09045189
   3.71394535  1.08783833  0.82514106
   8.99829143  5.66521924  0.92799621
   5.06743477  3.44146824  0.81265419
  11.51727260  8.61664542  2.89227791
  11.54464544  7.19977908  4.83240552
  12.75801039  6.40091003  2.81725595
   8.95770316  4.17294967  2.77896252
   7.70003356  7.93531703  6.98972591
   7.73138105  7.86095560  0.86087976
  10.29449606  6.46617565  2.80923565
   2.48848679  0.26232775  4.99690168
   7.67241216  3.44637226  0.72761104
   5.03302831  1.85843343  2.89234121
   5.10107653  6.38920253  2.87489115
   7.63667477  0.45282080  4.84968064
   8.96831568  1.16856949  6.98724796
  10.19728849  7.90051531  6.98370125
   8.97178491  1.11590525  0.72199805
  10.26233915  7.88162099  0.76497477
   5.00241504  4.91317635  4.93522055
  11.50288465  2.67887089  4.85729792
  14.15581328  8.72502274  2.82040678
   8.97964314  2.61894028  4.90350016
   6.30589003  2.63413437  4.85503126
  11.54224082  4.13510824  2.79014274
   2.41992666  1.87995489  2.81734516
  11.54338437  5.63873500  0.85840246
   6.38743212  5.66222338  0.89171700
   7.74928366  6.43551543  2.82185349
   6.36172048  4.09062433  2.75984157
  10.27612233  3.42409282  7.06049068
  10.24544346  3.41771980  0.83400850
  10.26946403  0.46988889  4.86907455
   8.95807246  7.22027342  4.93062403
   6.39294697  7.22925187  4.93873718
   4.99996406  0.28300299  4.87997169
  11.58187978  5.66165301 10.52186781
 


--------------------------------------------------------------------------------------------------------


 k-point  1 :   0.0000 0.0000 0.0000  plane waves:   60991
 k-point  2 :   0.5000-0.0000 0.0000  plane waves:   60974
 k-point  3 :   0.0000 0.5000 0.0000  plane waves:   60974
 k-point  4 :   0.5000 0.5000 0.0000  plane waves:   60974

 maximum and minimum number of plane-waves per node :     60991    60974

 maximum number of plane-waves:     60991
 maximum index in each direction: 
   IXMAX=   20   IYMAX=   20   IZMAX=   42
   IXMIN=  -20   IYMIN=  -20   IZMIN=  -42


 serial   3D FFT for wavefunctions
 parallel 3D FFT for charge:
    minimum data exchange during FFTs selected (reduces bandwidth)


 total amount of memory used by VASP MPI-rank0   349215. kBytes
=======================================================================

   base      :      30000. kBytes
   nonlr-proj:      90970. kBytes
   fftplans  :      11305. kBytes
   grid      :     110428. kBytes
   one-center:       2519. kBytes
   wavefun   :     103993. kBytes
 
     INWAV:  cpu time    0.0000: real time    0.0000
 Broyden mixing: mesh for mixing (old mesh)
   NGX = 41   NGY = 41   NGZ = 85
  (NGX  =160   NGY  =160   NGZ  =336)
  gives a total of 142885 points

 initial charge density was supplied:
 charge density of overlapping atoms calculated
 number of electron     778.0000000 magnetization     231.0000000
 keeping initial charge density in first step


--------------------------------------------------------------------------------------------------------


 Maximum index for non-local projection operator         6972
 Maximum index for augmentation-charges         1830 (set IRDMAX)


--------------------------------------------------------------------------------------------------------


 First call to EWALD:  gamma=   0.139
 Maximum number of real-space cells 4x 4x 2
 Maximum number of reciprocal cells 2x 2x 4

    FEWALD:  cpu time    0.0051: real time    0.0053


--------------------------------------- Iteration      1(   1)  ---------------------------------------


    POTLOK:  cpu time    0.4197: real time    0.4331
    SETDIJ:  cpu time    0.0366: real time    0.0472
     EDDAV:  cpu time   55.7838: real time   55.9438
 BZINTS: Fermi energy: 18.042935;778.000000 electrons
         Band energy:8066.425939;  BLOECHL correction: -0.001036
       DOS:  cpu time    0.0269: real time    0.0477
    --------------------------------------------
      LOOP:  cpu time   56.2671: real time   56.4718

 eigenvalue-minimisations  :  9984
 total energy-change (2. order) : 0.7676477E+04  (-0.3353508E+05)
 number of electron     778.0000000 magnetization     231.0000000
 augmentation part      778.0000000 magnetization     231.0000000

 Free energy of the ion-electron system (eV)
  ---------------------------------------------------
  alpha Z        PSCENC =      2281.97981454
  Ewald energy   TEWEN  =    224515.34528742
  -Hartree energ DENC   =   -296895.11193555
  -exchange      EXHF   =         0.00000000
  -V(xc)+E(xc)   XCENC  =      1391.09247868
  PAW double counting   =     64136.80006862   -66038.70876209
  entropy T*S    EENTRO =         0.00000000
  eigenvalues    EBANDS =      8066.42593881
  atomic energy  EATOM  =     70218.65458108
  Solvation  Ediel_sol  =         0.00000000
  ---------------------------------------------------
  free energy    TOTEN  =      7676.47747150 eV

  energy without entropy =     7676.47747150  energy(sigma->0) =     7676.47747150


--------------------------------------------------------------------------------------------------------




--------------------------------------- Iteration      1(   2)  ---------------------------------------


     EDDAV:  cpu time   55.8136: real time   57.4693
 BZINTS: Fermi energy:  6.139903;778.000000 electrons
         Band energy:1069.068571;  BLOECHL correction: -0.005505
       DOS:  cpu time    0.0291: real time    0.0304
    --------------------------------------------
      LOOP:  cpu time   55.8427: real time   57.4997

 eigenvalue-minimisations  :  9984
 total energy-change (2. order) :-0.6997357E+04  (-0.6213087E+04)
 number of electron     778.0000000 magnetization     231.0000000
 augmentation part      778.0000000 magnetization     231.0000000

 Free energy of the ion-electron system (eV)
  ---------------------------------------------------
  alpha Z        PSCENC =      2281.97981454
  Ewald energy   TEWEN  =    224515.34528742
  -Hartree energ DENC   =   -296895.11193555
  -exchange      EXHF   =         0.00000000
  -V(xc)+E(xc)   XCENC  =      1391.09247868
  PAW double counting   =     64136.80006862   -66038.70876209
  entropy T*S    EENTRO =         0.00000000
  eigenvalues    EBANDS =      1069.06857149
  atomic energy  EATOM  =     70218.65458108
  Solvation  Ediel_sol  =         0.00000000
  ---------------------------------------------------
  free energy    TOTEN  =       679.12010419 eV

  energy without entropy =      679.12010419  energy(sigma->0) =      679.12010419


--------------------------------------------------------------------------------------------------------




--------------------------------------- Iteration      1(   3)  ---------------------------------------


     EDDAV:  cpu time   56.1022: real time   56.2642
 BZINTS: Fermi energy:  3.695912;778.000000 electrons
         Band energy: -33.583658;  BLOECHL correction: -0.088016
       DOS:  cpu time    0.0273: real time    0.0320
    --------------------------------------------
      LOOP:  cpu time   56.1295: real time   56.2961

 eigenvalue-minimisations  : 10080
 total energy-change (2. order) :-0.1102652E+04  (-0.9210365E+03)
 number of electron     778.0000000 magnetization     231.0000000
 augmentation part      778.0000000 magnetization     231.0000000

 Free energy of the ion-electron system (eV)
  ---------------------------------------------------
  alpha Z        PSCENC =      2281.97981454
  Ewald energy   TEWEN  =    224515.34528742
  -Hartree energ DENC   =   -296895.11193555
  -exchange      EXHF   =         0.00000000
  -V(xc)+E(xc)   XCENC  =      1391.09247868
  PAW double counting   =     64136.80006862   -66038.70876209
  entropy T*S    EENTRO =         0.00000000
  eigenvalues    EBANDS =       -33.58365846
  atomic energy  EATOM  =     70218.65458108
  Solvation  Ediel_sol  =         0.00000000
  ---------------------------------------------------
  free energy    TOTEN  =      -423.53212576 eV

  energy without entropy =     -423.53212576  energy(sigma->0) =     -423.53212576


--------------------------------------------------------------------------------------------------------




--------------------------------------- Iteration      1(   4)  ---------------------------------------


     EDDAV:  cpu time   66.0386: real time   66.3754
 BZINTS: Fermi energy:  3.571199;778.000000 electrons
         Band energy:-103.639579;  BLOECHL correction: -0.106444
       DOS:  cpu time    0.0268: real time    0.0302
    --------------------------------------------
      LOOP:  cpu time   66.0654: real time   66.4056

 eigenvalue-minimisations  : 12336
 total energy-change (2. order) :-0.7005592E+02  (-0.6720397E+02)
 number of electron     778.0000000 magnetization     231.0000000
 augmentation part      778.0000000 magnetization     231.0000000

 Free energy of the ion-electron system (eV)
  ---------------------------------------------------
  alpha Z        PSCENC =      2281.97981454
  Ewald energy   TEWEN  =    224515.34528742
  -Hartree energ DENC   =   -296895.11193555
  -exchange      EXHF   =         0.00000000
  -V(xc)+E(xc)   XCENC  =      1391.09247868
  PAW double counting   =     64136.80006862   -66038.70876209
  entropy T*S    EENTRO =         0.00000000
  eigenvalues    EBANDS =      -103.63957852
  atomic energy  EATOM  =     70218.65458108
  Solvation  Ediel_sol  =         0.00000000
  ---------------------------------------------------
  free energy    TOTEN  =      -493.58804583 eV

  energy without entropy =     -493.58804583  energy(sigma->0) =     -493.58804583


--------------------------------------------------------------------------------------------------------




--------------------------------------- Iteration      1(   5)  ---------------------------------------


     EDDAV:  cpu time   66.3429: real time   66.5343
 BZINTS: Fermi energy:  3.567176;778.000000 electrons
         Band energy:-105.933849;  BLOECHL correction: -0.107142
       DOS:  cpu time    0.0292: real time    0.0361
    CHARGE:  cpu time    2.5386: real time    2.5554
    MIXING:  cpu time    0.0108: real time    0.0159
    --------------------------------------------
      LOOP:  cpu time   68.9216: real time   69.1417

 eigenvalue-minimisations  : 12384
 total energy-change (2. order) :-0.2294270E+01  (-0.2288764E+01)
 number of electron     778.0000077 magnetization     216.2833514
 augmentation part      334.8224943 magnetization     184.7508889

 Broyden mixing:
  rms(total) = 0.12058E+02    rms(broyden)= 0.12058E+02
  rms(prec ) = 0.12343E+02
  weight for this iteration     100.00

 Free energy of the ion-electron system (eV)
  ---------------------------------------------------
  alpha Z        PSCENC =      2281.97981454
  Ewald energy   TEWEN  =    224515.34528742
  -Hartree energ DENC   =   -296895.11193555
  -exchange      EXHF   =         0.00000000
  -V(xc)+E(xc)   XCENC  =      1391.09247868
  PAW double counting   =     64136.80006862   -66038.70876209
  entropy T*S    EENTRO =         0.00000000
  eigenvalues    EBANDS =      -105.93384857
  atomic energy  EATOM  =     70218.65458108
  Solvation  Ediel_sol  =         0.00000000
  ---------------------------------------------------
  free energy    TOTEN  =      -495.88231588 eV

  energy without entropy =     -495.88231588  energy(sigma->0) =     -495.88231588


--------------------------------------------------------------------------------------------------------




--------------------------------------- Iteration      1(   6)  ---------------------------------------


    POTLOK:  cpu time    0.3745: real time    0.3765
    SETDIJ:  cpu time    0.0300: real time    0.0300
    EDDIAG:  cpu time    9.6403: real time    9.6764
  RMM-DIIS:  cpu time   35.1286: real time   35.2366
    ORTHCH:  cpu time    1.5740: real time    1.5781
 BZINTS: Fermi energy:  1.669681;778.000000 electrons
         Band energy:***********;  BLOECHL correction: -0.025655
       DOS:  cpu time    0.0326: real time    0.0328
    CHARGE:  cpu time    2.5091: real time    2.5156
    MIXING:  cpu time    0.0106: real time    0.0131
    --------------------------------------------
      LOOP:  cpu time   49.2998: real time   49.4591

 eigenvalue-minimisations  : 10017
 total energy-change (2. order) :-0.1105121E+03  (-0.7908353E+02)
 number of electron     778.0000101 magnetization     211.8597483
 augmentation part      405.2656014 magnetization     179.4069929

 Broyden mixing:
  rms(total) = 0.18683E+02    rms(broyden)= 0.18683E+02
  rms(prec ) = 0.24065E+02
  weight for this iteration     100.00

 eigenvalues of (default mixing * dielectric matrix)
  average eigenvalue GAMMA=   0.2502
  0.2502

 Free energy of the ion-electron system (eV)
  ---------------------------------------------------
  alpha Z        PSCENC =      2281.97981454
  Ewald energy   TEWEN  =    224515.34528742
  -Hartree energ DENC   =   -295273.43440343
  -exchange      EXHF   =         0.00000000
  -V(xc)+E(xc)   XCENC  =      1346.23762077
  PAW double counting   =     69423.69298220   -71125.53598185
  entropy T*S    EENTRO =         0.00000000
  eigenvalues    EBANDS =     -1993.33436333
  atomic energy  EATOM  =     70218.65458108
  Solvation  Ediel_sol  =         0.00000000
  ---------------------------------------------------
  free energy    TOTEN  =      -606.39446260 eV

  energy without entropy =     -606.39446260  energy(sigma->0) =     -606.39446260


--------------------------------------------------------------------------------------------------------




--------------------------------------- Iteration      1(   7)  ---------------------------------------


    POTLOK:  cpu time    0.3755: real time    0.3959
    SETDIJ:  cpu time    0.0297: real time    0.0299
    EDDIAG:  cpu time    9.5906: real time    9.6220
  RMM-DIIS:  cpu time   34.9634: real time   35.1141
    ORTHCH:  cpu time    1.5740: real time    1.5786
 BZINTS: Fermi energy:  3.640788;778.000000 electrons
         Band energy:***********;  BLOECHL correction: -0.033570
       DOS:  cpu time    0.0300: real time    0.0301
    CHARGE:  cpu time    2.5227: real time    2.5302
    MIXING:  cpu time    0.0106: real time    0.0108
    --------------------------------------------
      LOOP:  cpu time   49.0965: real time   49.3115

 eigenvalue-minimisations  :  9998
 total energy-change (2. order) : 0.3085977E+02  (-0.1532294E+02)
 number of electron     778.0000088 magnetization     207.2810385
 augmentation part      361.4356017 magnetization     165.3000745

 Broyden mixing:
  rms(total) = 0.16858E+02    rms(broyden)= 0.16858E+02
  rms(prec ) = 0.23086E+02
  weight for this iteration     100.00

 eigenvalues of (default mixing * dielectric matrix)
  average eigenvalue GAMMA=   0.2731
  0.3901  0.1561

 Free energy of the ion-electron system (eV)
  ---------------------------------------------------
  alpha Z        PSCENC =      2281.97981454
  Ewald energy   TEWEN  =    224515.34528742
  -Hartree energ DENC   =   -296011.25985313
  -exchange      EXHF   =         0.00000000
  -V(xc)+E(xc)   XCENC  =      1367.33859823
  PAW double counting   =     70590.22196819   -72461.53535383
  entropy T*S    EENTRO =         0.00000000
  eigenvalues    EBANDS =     -1076.27973711
  atomic energy  EATOM  =     70218.65458108
  Solvation  Ediel_sol  =         0.00000000
  ---------------------------------------------------
  free energy    TOTEN  =      -575.53469462 eV

  energy without entropy =     -575.53469462  energy(sigma->0) =     -575.53469462


--------------------------------------------------------------------------------------------------------




--------------------------------------- Iteration      1(   8)  ---------------------------------------


    POTLOK:  cpu time    0.3789: real time    0.3812
    SETDIJ:  cpu time    0.0300: real time    0.0302
    EDDIAG:  cpu time    9.6087: real time    9.6350
  RMM-DIIS:  cpu time   34.8112: real time   34.9027
    ORTHCH:  cpu time    1.5721: real time    1.5762
 BZINTS: Fermi energy:  3.113769;778.000000 electrons
         Band energy:-602.978606;  BLOECHL correction: -0.018554
       DOS:  cpu time    0.0301: real time    0.0302
    CHARGE:  cpu time    2.5118: real time    2.5186
    MIXING:  cpu time    0.0100: real time    0.0104
    --------------------------------------------
      LOOP:  cpu time   48.9528: real time   49.0844

 eigenvalue-minimisations  :  9998
[...]
      8.947883  5.709572  7.090452            0           0           0  
      3.713945  1.087838  0.825141            0           0           0  
      8.998291  5.665219  0.927996            0           0           0  
      5.067435  3.441468  0.812654            0           0           0  
     11.517273  8.616645  2.892278            0           0           0  
     11.544645  7.199779  4.832406            0           0           0  
     12.758010  6.400910  2.817256            0           0           0  
      8.957703  4.172950  2.778963            0           0           0  
      7.700034  7.935317  6.989726            0           0           0  
      7.731381  7.860956  0.860880            0           0           0  
     10.294496  6.466176  2.809236            0           0           0  
      2.488487  0.262328  4.996902            0           0           0  
      7.672412  3.446372  0.727611            0           0           0  
      5.033028  1.858433  2.892341            0           0           0  
      5.101077  6.389203  2.874891            0           0           0  
      7.636675  0.452821  4.849681            0           0           0  
      8.968316  1.168569  6.987248            0           0           0  
     10.197288  7.900515  6.983701            0           0           0  
      8.971785  1.115905  0.721998            0           0           0  
     10.262339  7.881621  0.764975            0           0           0  
      5.002415  4.913176  4.935221            0           0           0  
     11.502885  2.678871  4.857298            0           0           0  
     14.155813  8.725023  2.820407            0           0           0  
      8.979643  2.618940  4.903500            0           0           0  
      6.305890  2.634134  4.855031            0           0           0  
     11.542241  4.135108  2.790143            0           0           0  
      2.419927  1.879955  2.817345            0           0           0  
     11.543384  5.638735  0.858402            0           0           0  
      6.387432  5.662223  0.891717            0           0           0  
      7.749284  6.435515  2.821853            0           0           0  
      6.361720  4.090624  2.759842            0           0           0  
     10.276122  3.424093  7.060491            0           0           0  
     10.245443  3.417720  0.834008            0           0           0  
     10.269464  0.469889  4.869075            0           0           0  
      8.958072  7.220273  4.930624            0           0           0  
      6.392947  7.229252  4.938737            0           0           0  
      4.999964  0.283003  4.879972            0           0           0  
     11.581880  5.661653 10.521868    -0.154603    0.121580    0.980467  
 
   2 f  =   21.213610 THz   133.289040 2PiTHz  707.609826 cm-1    87.732469 meV
             X         Y         Z           dx          dy          dz
     12.832018  7.934946  7.016758            0           0           0  
      5.057201  7.995463  6.963401            0           0           0  
      4.918265  3.438359  7.049990            0           0           0  
     14.178548  8.713675  9.391888            0           0           0  
      3.711928  4.176448  9.439894            0           0           0  
      6.331940  8.708261  9.289813            0           0           0  
     11.544379  4.139274  9.537350            0           0           0  
      8.942558  8.698817  9.278583            0           0           0  
     10.247643  1.909102  9.283975            0           0           0  
      2.416652  1.906856  9.326752            0           0           0  
     11.558558  8.720110  9.349371            0           0           0  
     12.880328  6.463072  9.522000            0           0           0  
      5.012991  1.897856  9.402251            0           0           0  
      7.651740  6.448347  9.351729            0           0           0  
      8.946118  4.170907  9.290217            0           0           0  
      5.021887  6.439507  9.416475            0           0           0  
      7.635951  1.909703  9.320320            0           0           0  
      7.694690  3.394514  6.981013            0           0           0  
      6.249101  1.116031  6.944706            0           0           0  
      6.360598  1.118418  0.836434            0           0           0  
      3.676042  4.170544  2.797305            0           0           0  
      1.162648  1.245699  6.912766            0           0           0  
      1.127025  1.175942  0.698123            0           0           0  
      6.373624  8.680686  2.887431            0           0           0  
      6.331772  4.181924  9.459269            0           0           0  
      7.601892  4.941036  4.811584            0           0           0  
     10.220556  6.456781  9.430009            0           0           0  
     14.137687  7.160553  4.867965            0           0           0  
     11.551826  5.623712  7.050853            0           0           0  
      6.354127  5.712034  7.019568            0           0           0  
      3.597724  2.553772  4.958234            0           0           0  
     10.267537  4.969746  4.851478            0           0           0  
      3.719480  5.703031  7.194504            0           0           0  
     12.852282  7.807618  0.888681            0           0           0  
      5.114080  7.849718  0.793090            0           0           0  
      3.770227  5.682576  0.769145            0           0           0  
      7.709702  1.997558  2.815724            0           0           0  
      8.995271  8.651687  2.845548            0           0           0  
      2.379681  3.472252  7.174578            0           0           0  
      2.337773  3.464190  0.785560            0           0           0  
     10.246202  1.952172  2.805117            0           0           0  
     12.841951  4.937451  4.921441            0           0           0  
      3.704083  1.049176  7.079381            0           0           0  
      8.947883  5.709572  7.090452            0           0           0  
      3.713945  1.087838  0.825141            0           0           0  
      8.998291  5.665219  0.927996            0           0           0  
      5.067435  3.441468  0.812654            0           0           0  
     11.517273  8.616645  2.892278            0           0           0  
     11.544645  7.199779  4.832406            0           0           0  
     12.758010  6.400910  2.817256            0           0           0  
      8.957703  4.172950  2.778963            0           0           0  
      7.700034  7.935317  6.989726            0           0           0  
      7.731381  7.860956  0.860880            0           0           0  
     10.294496  6.466176  2.809236            0           0           0  
      2.488487  0.262328  4.996902            0           0           0  
      7.672412  3.446372  0.727611            0           0           0  
      5.033028  1.858433  2.892341            0           0           0  
      5.101077  6.389203  2.874891            0           0           0  
      7.636675  0.452821  4.849681            0           0           0  
      8.968316  1.168569  6.987248            0           0           0  
     10.197288  7.900515  6.983701            0           0           0  
      8.971785  1.115905  0.721998            0           0           0  
     10.262339  7.881621  0.764975            0           0           0  
      5.002415  4.913176  4.935221            0           0           0  
     11.502885  2.678871  4.857298            0           0           0  
     14.155813  8.725023  2.820407            0           0           0  
      8.979643  2.618940  4.903500            0           0           0  
      6.305890  2.634134  4.855031            0           0           0  
     11.542241  4.135108  2.790143            0           0           0  
      2.419927  1.879955  2.817345            0           0           0  
     11.543384  5.638735  0.858402            0           0           0  
      6.387432  5.662223  0.891717            0           0           0  
      7.749284  6.435515  2.821853            0           0           0  
      6.361720  4.090624  2.759842            0           0           0  
     10.276122  3.424093  7.060491            0           0           0  
     10.245443  3.417720  0.834008            0           0           0  
     10.269464  0.469889  4.869075            0           0           0  
      8.958072  7.220273  4.930624            0           0           0  
      6.392947  7.229252  4.938737            0           0           0  
      4.999964  0.283003  4.879972            0           0           0  
     11.581880  5.661653 10.521868     0.421702    0.905577   -0.045798  
 
   3 f  =   12.242009 THz    76.918810 2PiTHz  408.349447 cm-1    50.628897 meV
             X         Y         Z           dx          dy          dz
     12.832018  7.934946  7.016758            0           0           0  
      5.057201  7.995463  6.963401            0           0           0  
      4.918265  3.438359  7.049990            0           0           0  
     14.178548  8.713675  9.391888            0           0           0  
      3.711928  4.176448  9.439894            0           0           0  
      6.331940  8.708261  9.289813            0           0           0  
     11.544379  4.139274  9.537350            0           0           0  
      8.942558  8.698817  9.278583            0           0           0  
     10.247643  1.909102  9.283975            0           0           0  
      2.416652  1.906856  9.326752            0           0           0  
     11.558558  8.720110  9.349371            0           0           0  
     12.880328  6.463072  9.522000            0           0           0  
      5.012991  1.897856  9.402251            0           0           0  
      7.651740  6.448347  9.351729            0           0           0  
      8.946118  4.170907  9.290217            0           0           0  
      5.021887  6.439507  9.416475            0           0           0  
      7.635951  1.909703  9.320320            0           0           0  
      7.694690  3.394514  6.981013            0           0           0  
      6.249101  1.116031  6.944706            0           0           0  
      6.360598  1.118418  0.836434            0           0           0  
      3.676042  4.170544  2.797305            0           0           0  
      1.162648  1.245699  6.912766            0           0           0  
      1.127025  1.175942  0.698123            0           0           0  
      6.373624  8.680686  2.887431            0           0           0  
      6.331772  4.181924  9.459269            0           0           0  
      7.601892  4.941036  4.811584            0           0           0  
     10.220556  6.456781  9.430009            0           0           0  
     14.137687  7.160553  4.867965            0           0           0  
     11.551826  5.623712  7.050853            0           0           0  
      6.354127  5.712034  7.019568            0           0           0  
      3.597724  2.553772  4.958234            0           0           0  
     10.267537  4.969746  4.851478            0           0           0  
      3.719480  5.703031  7.194504            0           0           0  
     12.852282  7.807618  0.888681            0           0           0  
      5.114080  7.849718  0.793090            0           0           0  
      3.770227  5.682576  0.769145            0           0           0  
      7.709702  1.997558  2.815724            0           0           0  
      8.995271  8.651687  2.845548            0           0           0  
      2.379681  3.472252  7.174578            0           0           0  
      2.337773  3.464190  0.785560            0           0           0  
     10.246202  1.952172  2.805117            0           0           0  
     12.841951  4.937451  4.921441            0           0           0  
      3.704083  1.049176  7.079381            0           0           0  
      8.947883  5.709572  7.090452            0           0           0  
      3.713945  1.087838  0.825141            0           0           0  
      8.998291  5.665219  0.927996            0           0           0  
      5.067435  3.441468  0.812654            0           0           0  
     11.517273  8.616645  2.892278            0           0           0  
     11.544645  7.199779  4.832406            0           0           0  
     12.758010  6.400910  2.817256            0           0           0  
      8.957703  4.172950  2.778963            0           0           0  
      7.700034  7.935317  6.989726            0           0           0  
      7.731381  7.860956  0.860880            0           0           0  
     10.294496  6.466176  2.809236            0           0           0  
      2.488487  0.262328  4.996902            0           0           0  
      7.672412  3.446372  0.727611            0           0           0  
      5.033028  1.858433  2.892341            0           0           0  
      5.101077  6.389203  2.874891            0           0           0  
      7.636675  0.452821  4.849681            0           0           0  
      8.968316  1.168569  6.987248            0           0           0  
     10.197288  7.900515  6.983701            0           0           0  
      8.971785  1.115905  0.721998            0           0           0  
     10.262339  7.881621  0.764975            0           0           0  
      5.002415  4.913176  4.935221            0           0           0  
     11.502885  2.678871  4.857298            0           0           0  
     14.155813  8.725023  2.820407            0           0           0  
      8.979643  2.618940  4.903500            0           0           0  
      6.305890  2.634134  4.855031            0           0           0  
     11.542241  4.135108  2.790143            0           0           0  
      2.419927  1.879955  2.817345            0           0           0  
     11.543384  5.638735  0.858402            0           0           0  
      6.387432  5.662223  0.891717            0           0           0  
      7.749284  6.435515  2.821853            0           0           0  
      6.361720  4.090624  2.759842            0           0           0  
     10.276122  3.424093  7.060491            0           0           0  
     10.245443  3.417720  0.834008            0           0           0  
     10.269464  0.469889  4.869075            0           0           0  
      8.958072  7.220273  4.930624            0           0           0  
      6.392947  7.229252  4.938737            0           0           0  
      4.999964  0.283003  4.879972            0           0           0  
     11.581880  5.661653 10.521868    -0.893457    0.406385   -0.191275  
 
 Finite differences POTIM=  1.500000000000000E-002
  LATTYP: Found a hexagonal cell.
 ALAT       =    10.4600000381
 C/A-ratio  =     2.1032504704
  
  Lattice vectors:
  
 A1 = (   5.2300000190,  -9.0586257566,   0.0000000000)
 A2 = ( -10.4600000381,   0.0000000000,   0.0000000000)
 A3 = (   0.0000000000,   0.0000000000, -22.0000000000)


Analysis of symmetry for initial positions (statically):
=====================================================================
 Subroutine PRICEL returns:
 Original cell was already a primitive cell.
 

 Routine SETGRP: Setting up the symmetry group for a 
 hexagonal supercell.


 Subroutine GETGRP returns: Found  1 space group operations
 (whereof  1 operations were pure point group operations)
 out of a pool of 24 trial point group operations.


The static configuration has the point symmetry C_1 .


Analysis of symmetry for dynamics (positions and initial velocities):
=====================================================================
 Subroutine PRICEL returns:
 Original cell was already a primitive cell.
 

 Routine SETGRP: Setting up the symmetry group for a 
 hexagonal supercell.


 Subroutine GETGRP returns: Found  1 space group operations
 (whereof  1 operations were pure point group operations)
 out of a pool of 24 trial point group operations.


The dynamic configuration has the point symmetry C_1 .


Analysis of constrained symmetry for selective dynamics:
=====================================================================
 Subroutine PRICEL returns:
 Original cell was already a primitive cell.
 

 Routine SETGRP: Setting up the symmetry group for a 
 hexagonal supercell.


 Subroutine GETGRP returns: Found  1 space group operations
 (whereof  1 operations were pure point group operations)
 out of a pool of 24 trial point group operations.


The constrained configuration has the point symmetry C_1 .


Analysis of structural, dynamic, and magnetic symmetry:
=====================================================================
 Subroutine PRICEL returns:
 Original cell was already a primitive cell.
 

 Routine SETGRP: Setting up the symmetry group for a 
 hexagonal supercell.


 Subroutine GETGRP returns: Found  1 space group operations
 (whereof  1 operations were pure point group operations)
 out of a pool of 24 trial point group operations.


The magnetic configuration has the point symmetry C_1 .


 Subroutine INISYM returns: Found  1 space group operations
 (whereof  1 operations are pure point group operations),
 and found     1 'primitive' translations

 
 KPOINTS: mesh auto                               

Automatic generation of k-mesh.
Space group operators:
 irot       det(A)        alpha          n_x          n_y          n_z        tau_x        tau_y        tau_z
    1     1.000000     0.000000     1.000000     0.000000     0.000000     0.000000     0.000000     0.000000
 
 Subroutine IBZKPT returns following result:
 ===========================================
 
 Found      4 irreducible k-points:
 
 Following reciprocal coordinates:
            Coordinates               Weight
  0.000000  0.000000  0.000000      1.000000
  0.500000 -0.000000  0.000000      1.000000
  0.000000  0.500000  0.000000      1.000000
  0.500000  0.500000  0.000000      1.000000
 
 Following cartesian coordinates:
            Coordinates               Weight
  0.000000  0.000000  0.000000      1.000000
  0.047801 -0.027598  0.000000      1.000000
  0.000000  0.055196  0.000000      1.000000
  0.047801  0.027598  0.000000      1.000000
 
 TETIRR: Found     12 inequivalent tetrahedra from       24
     LOOP+:  cpu time  451.1247: real time  452.9816
    4ORBIT:  cpu time    0.0000: real time    0.0000
 BZINTS: Fermi energy:  2.180625;778.000000 electrons
         Band energy:-613.431237;  BLOECHL correction: -0.228523

 total amount of memory used by VASP MPI-rank0   349215. kBytes
=======================================================================

   base      :      30000. kBytes
   nonlr-proj:      90970. kBytes
   fftplans  :      11305. kBytes
   grid      :     110428. kBytes
   one-center:       2519. kBytes
   wavefun   :     103993. kBytes
 
  
  
 General timing and accounting informations for this job:
 ========================================================
  
                  Total CPU time used (sec):     7319.365
                            User time (sec):     7290.493
                          System time (sec):       28.872
                         Elapsed time (sec):     7368.843
  
                   Maximum memory used (kb):      667172.
                   Average memory used (kb):           0.
  
                          Minor page faults:      2065265
                          Major page faults:          178
                 Voluntary context switches:         7665
