 vasp.5.4.4.18Apr17-6-g9f103f2a35 (build Oct 25 2019 11:13:22) complex          
  
 executed on             LinuxIFC date 2021.10.14  16:00:23
 running on   48 total cores
 distrk:  each k-point on   48 cores,    1 groups
 distr:  one band on NCORES_PER_BAND=   4 cores,   12 groups


--------------------------------------------------------------------------------------------------------


 INCAR:
 POTCAR:    PAW_PBE Pt 04Feb2005                  
 POTCAR:    PAW_PBE Fe 06Sep2000                  
 POTCAR:    PAW_PBE Co 02Aug2007                  
 POTCAR:    PAW_PBE Cu 22Jun2005                  
 POTCAR:    PAW_PBE Ni 02Aug2007                  
 POTCAR:    PAW_PBE H 15Jun2001                   
 POTCAR:    PAW_PBE Pt 04Feb2005                  
   VRHFIN =Pt: s1d9                                                             
   LEXCH  = PE                                                                  
   EATOM  =   729.1176 eV,   53.5886 Ry                                         
                                                                                
   TITEL  = PAW_PBE Pt 04Feb2005                                                
   LULTRA =        F    use ultrasoft PP ?                                      
   IUNSCR =        1    unscreen: 0-lin 1-nonlin 2-no                           
   RPACOR =    2.330    partial core radius                                     
   POMASS =  195.080; ZVAL   =   10.000    mass and valenz                      
   RCORE  =    2.600    outmost cutoff radius                                   
   RWIGS  =    2.750; RWIGS  =    1.455    wigner-seitz radius (au A)           
   ENMAX  =  230.283; ENMIN  =  172.712 eV                                      
   ICORE  =        3    local potential                                         
   LCOR   =        T    correct aug charges                                     
   LPAW   =        T    paw PP                                                  
   EAUG   =  358.966                                                            
   DEXC   =    0.000                                                            
   RMAX   =    2.658    core radius for proj-oper                               
   RAUG   =    1.300    factor for augmentation sphere                          
   RDEP   =    2.761    radius for radial grids                                 
   RDEPT  =    2.203    core radius for aug-charge                              
                                                                                
   Atomic configuration                                                         
   16 entries                                                                   
     n  l   j            E        occ.                                          
     1  0  0.50    -78401.1885   2.0000                                         
     2  0  0.50    -13770.7750   2.0000                                         
     2  1  1.50    -11931.0468   6.0000                                         
     3  0  0.50     -3234.7234   2.0000                                         
     3  1  1.50     -2699.2216   6.0000                                         
     3  2  2.50     -2119.5714  10.0000                                         
     4  0  0.50      -695.1528   2.0000                                         
     4  1  1.50      -519.6034   6.0000                                         
     4  2  2.50      -306.6786  10.0000                                         
     4  3  3.50       -70.1041  14.0000                                         
     5  0  0.50      -101.7747   2.0000                                         
     5  1  1.50       -55.9873   6.0000                                         
     5  2  2.50        -6.1423   9.0000                                         
     6  0  0.50        -5.6573   1.0000                                         
     6  1  1.50        -6.8029   0.0000                                         
     5  3  2.50        -1.3606   0.0000                                         
   Description                                                                  
     l       E           TYP  RCUT    TYP  RCUT                                 
     2     -6.1423404     23  2.500                                             
     2     -7.5029230     23  2.500                                             
     0     -5.6573207     23  2.500                                             
     0      0.7416693     23  2.500                                             
     1     -2.7211652     23  2.600                                             
     1     20.4087390     23  2.600                                             
     3     -1.3605826     23  2.500                                             
  local pseudopotential read in
  partial core-charges read in
  partial kinetic energy density read in
  atomic valenz-charges read in
  non local Contribution for L=           2  read in
    real space projection operators read in
  non local Contribution for L=           2  read in
    real space projection operators read in
  non local Contribution for L=           0  read in
    real space projection operators read in
  non local Contribution for L=           0  read in
    real space projection operators read in
  non local Contribution for L=           1  read in
    real space projection operators read in
  non local Contribution for L=           1  read in
    real space projection operators read in
    PAW grid and wavefunctions read in
 
   number of l-projection  operators is LMAX  =           6
   number of lm-projection operators is LMMAX =          18
 
 POTCAR:    PAW_PBE Fe 06Sep2000                  
   VRHFIN =Fe:  d7 s1                                                           
   LEXCH  = PE                                                                  
   EATOM  =   594.3153 eV,   43.6809 Ry                                         
                                                                                
   TITEL  = PAW_PBE Fe 06Sep2000                                                
   LULTRA =        F    use ultrasoft PP ?                                      
   IUNSCR =        1    unscreen: 0-lin 1-nonlin 2-no                           
   RPACOR =    2.000    partial core radius                                     
   POMASS =   55.847; ZVAL   =    8.000    mass and valenz                      
   RCORE  =    2.300    outmost cutoff radius                                   
   RWIGS  =    2.460; RWIGS  =    1.302    wigner-seitz radius (au A)           
   ENMAX  =  267.882; ENMIN  =  200.911 eV                                      
   RCLOC  =    1.701    cutoff for local pot                                    
   LCOR   =        T    correct aug charges                                     
   LPAW   =        T    paw PP                                                  
   EAUG   =  511.368                                                            
   DEXC   =    0.000                                                            
   RMAX   =    2.356    core radius for proj-oper                               
   RAUG   =    1.300    factor for augmentation sphere                          
   RDEP   =    2.442    radius for radial grids                                 
   RDEPT  =    1.890    core radius for aug-charge                              
                                                                                
   Atomic configuration                                                         
    9 entries                                                                   
     n  l   j            E        occ.                                          
     1  0  0.50     -6993.8440   2.0000                                         
     2  0  0.50      -814.6047   2.0000                                         
     2  1  1.50      -693.3689   6.0000                                         
     3  0  0.50       -89.4732   2.0000                                         
     3  1  1.50       -55.6373   6.0000                                         
     3  2  2.50        -3.8151   7.0000                                         
     4  0  0.50        -4.2551   1.0000                                         
     4  1  1.50        -3.4015   0.0000                                         
     4  3  2.50        -1.3606   0.0000                                         
   Description                                                                  
     l       E           TYP  RCUT    TYP  RCUT                                 
     2     -3.8151135     23  2.300                                             
     2     -5.1756961     23  2.300                                             
     0     -4.2550963     23  2.300                                             
     0      7.2035603     23  2.300                                             
     1     -2.7211652     23  2.300                                             
     1     18.4316424     23  2.300                                             
  local pseudopotential read in
  partial core-charges read in
  partial kinetic energy density read in
  atomic valenz-charges read in
  non local Contribution for L=           2  read in
    real space projection operators read in
  non local Contribution for L=           2  read in
    real space projection operators read in
  non local Contribution for L=           0  read in
    real space projection operators read in
  non local Contribution for L=           0  read in
    real space projection operators read in
  non local Contribution for L=           1  read in
    real space projection operators read in
  non local Contribution for L=           1  read in
    real space projection operators read in
    PAW grid and wavefunctions read in
 
   number of l-projection  operators is LMAX  =           6
   number of lm-projection operators is LMMAX =          18
 
 POTCAR:    PAW_PBE Co 02Aug2007                  
   VRHFIN =Co: d8 s1                                                            
   LEXCH  = PE                                                                  
   EATOM  =   813.3670 eV,   59.7808 Ry                                         
                                                                                
   TITEL  = PAW_PBE Co 02Aug2007                                                
   LULTRA =        F    use ultrasoft PP ?                                      
   IUNSCR =        1    unscreen: 0-lin 1-nonlin 2-no                           
   RPACOR =    2.000    partial core radius                                     
   POMASS =   58.933; ZVAL   =    9.000    mass and valenz                      
   RCORE  =    2.300    outmost cutoff radius                                   
   RWIGS  =    2.460; RWIGS  =    1.302    wigner-seitz radius (au A)           
   ENMAX  =  267.968; ENMIN  =  200.976 eV                                      
   RCLOC  =    1.203    cutoff for local pot                                    
   LCOR   =        T    correct aug charges                                     
   LPAW   =        T    paw PP                                                  
   EAUG   =  477.818                                                            
   DEXC   =    0.000                                                            
   RMAX   =    2.360    core radius for proj-oper                               
   RAUG   =    1.300    factor for augmentation sphere                          
   RDEP   =    2.393    radius for radial grids                                 
   RDEPT  =    1.864    core radius for aug-charge                              
                                                                                
   Atomic configuration                                                         
    9 entries                                                                   
     n  l   j            E        occ.                                          
     1  0  0.50     -7587.6674   2.0000                                         
     2  0  0.50      -893.6084   2.0000                                         
     2  1  1.50      -764.5805   6.0000                                         
     3  0  0.50       -97.5973   2.0000                                         
     3  1  1.50       -60.9648   6.0000                                         
     3  2  2.50        -4.2382   8.0000                                         
     4  0  0.50        -4.3746   1.0000                                         
     4  1  1.50        -4.0817   0.0000                                         
     4  3  2.50        -1.3606   0.0000                                         
   Description                                                                  
     l       E           TYP  RCUT    TYP  RCUT                                 
     2     -4.2382362     23  2.300                                             
     2     -5.5988188     23  2.300                                             
     0     -4.3745797     23  2.300                                             
     0      5.7660125     23  2.300                                             
     1     -2.7211652     23  2.300                                             
     1     16.9860234     23  2.300                                             
  local pseudopotential read in
  partial core-charges read in
  partial kinetic energy density read in
  atomic valenz-charges read in
  non local Contribution for L=           2  read in
    real space projection operators read in
  non local Contribution for L=           2  read in
    real space projection operators read in
  non local Contribution for L=           0  read in
    real space projection operators read in
  non local Contribution for L=           0  read in
    real space projection operators read in
  non local Contribution for L=           1  read in
    real space projection operators read in
  non local Contribution for L=           1  read in
    real space projection operators read in
    PAW grid and wavefunctions read in
 
   number of l-projection  operators is LMAX  =           6
   number of lm-projection operators is LMMAX =          18
 
 POTCAR:    PAW_PBE Cu 22Jun2005                  
   VRHFIN =Cu: d10 p1                                                           
   LEXCH  = PE                                                                  
   EATOM  =  1390.9808 eV,  102.2342 Ry                                         
                                                                                
   TITEL  = PAW_PBE Cu 22Jun2005                                                
   LULTRA =        F    use ultrasoft PP ?                                      
   IUNSCR =        1    unscreen: 0-lin 1-nonlin 2-no                           
   RPACOR =    2.000    partial core radius                                     
   POMASS =   63.546; ZVAL   =   11.000    mass and valenz                      
   RCORE  =    2.300    outmost cutoff radius                                   
   RWIGS  =    2.200; RWIGS  =    1.164    wigner-seitz radius (au A)           
   ENMAX  =  295.446; ENMIN  =  221.585 eV                                      
   ICORE  =        3    local potential                                         
   LCOR   =        T    correct aug charges                                     
   LPAW   =        T    paw PP                                                  
   EAUG   =  586.980                                                            
   DEXC   =    0.000                                                            
   RMAX   =    2.344    core radius for proj-oper                               
   RAUG   =    1.300    factor for augmentation sphere                          
   RDEP   =    2.302    radius for radial grids                                 
   RDEPT  =    1.771    core radius for aug-charge                              
                                                                                
   Atomic configuration                                                         
    9 entries                                                                   
     n  l   j            E        occ.                                          
     1  0  0.50     -8850.2468   2.0000                                         
     2  0  0.50     -1062.3498   2.0000                                         
     2  1  1.50      -916.8226   6.0000                                         
     3  0  0.50      -114.6929   2.0000                                         
     3  1  1.50       -72.1325   6.0000                                         
     3  2  2.50        -5.0394  10.0000                                         
     4  0  0.50        -4.6097   1.0000                                         
     4  1  0.50        -4.0817   0.0000                                         
     4  3  2.50        -1.3606   0.0000                                         
   Description                                                                  
     l       E           TYP  RCUT    TYP  RCUT                                 
     2     -5.0393973     23  2.200                                             
     2     10.8846608     23  2.200                                             
     0     -4.6097109     23  2.200                                             
     0      8.2520465     23  2.200                                             
     1     -2.7211652     23  2.200                                             
     1     21.7055443     23  2.200                                             
     3      2.7211652     23  2.300                                             
  local pseudopotential read in
  partial core-charges read in
  partial kinetic energy density read in
  atomic valenz-charges read in
  non local Contribution for L=           2  read in
    real space projection operators read in
  non local Contribution for L=           2  read in
    real space projection operators read in
  non local Contribution for L=           0  read in
    real space projection operators read in
  non local Contribution for L=           0  read in
    real space projection operators read in
  non local Contribution for L=           1  read in
    real space projection operators read in
  non local Contribution for L=           1  read in
    real space projection operators read in
    PAW grid and wavefunctions read in
 
   number of l-projection  operators is LMAX  =           6
   number of lm-projection operators is LMMAX =          18
 
 POTCAR:    PAW_PBE Ni 02Aug2007                  
   VRHFIN =Ni:                                                                  
   LEXCH  = PE                                                                  
   EATOM  =  1077.6739 eV,   79.2068 Ry                                         
                                                                                
   TITEL  = PAW_PBE Ni 02Aug2007                                                
   LULTRA =        F    use ultrasoft PP ?                                      
   IUNSCR =        1    unscreen: 0-lin 1-nonlin 2-no                           
   RPACOR =    2.000    partial core radius                                     
   POMASS =   58.690; ZVAL   =   10.000    mass and valenz                      
   RCORE  =    2.300    outmost cutoff radius                                   
   RWIGS  =    2.430; RWIGS  =    1.286    wigner-seitz radius (au A)           
   ENMAX  =  269.532; ENMIN  =  202.149 eV                                      
   RCLOC  =    1.201    cutoff for local pot                                    
   LCOR   =        T    correct aug charges                                     
   LPAW   =        T    paw PP                                                  
   EAUG   =  544.565                                                            
   DEXC   =    0.000                                                            
   RMAX   =    2.357    core radius for proj-oper                               
   RAUG   =    1.300    factor for augmentation sphere                          
   RDEP   =    2.390    radius for radial grids                                 
   RDEPT  =    1.838    core radius for aug-charge                              
                                                                                
   Atomic configuration                                                         
    9 entries                                                                   
     n  l   j            E        occ.                                          
     1  0  0.50     -8206.4253   2.0000                                         
     2  0  0.50      -976.1748   2.0000                                         
     2  1  1.50      -839.0571   6.0000                                         
     3  0  0.50      -105.9991   2.0000                                         
     3  1  1.50       -66.4603   6.0000                                         
     3  2  2.50        -4.6458   9.0000                                         
     4  0  0.50        -4.4926   1.0000                                         
     4  1  1.50        -4.0817   0.0000                                         
     4  3  2.50        -1.3606   0.0000                                         
   Description                                                                  
     l       E           TYP  RCUT    TYP  RCUT                                 
     2     -4.6457903     23  2.300                                             
     2     -6.0063729     23  2.300                                             
     0     -4.4925590     23  2.300                                             
     0      5.0102601     23  2.300                                             
     1     -2.7211652     23  2.300                                             
     1     16.5183231     23  2.300                                             
  local pseudopotential read in
  partial core-charges read in
  partial kinetic energy density read in
  atomic valenz-charges read in
  non local Contribution for L=           2  read in
    real space projection operators read in
  non local Contribution for L=           2  read in
    real space projection operators read in
  non local Contribution for L=           0  read in
    real space projection operators read in
  non local Contribution for L=           0  read in
    real space projection operators read in
  non local Contribution for L=           1  read in
    real space projection operators read in
  non local Contribution for L=           1  read in
    real space projection operators read in
    PAW grid and wavefunctions read in
 
   number of l-projection  operators is LMAX  =           6
   number of lm-projection operators is LMMAX =          18
 
 POTCAR:    PAW_PBE H 15Jun2001                   
   VRHFIN =H: ultrasoft test                                                    
   LEXCH  = PE                                                                  
   EATOM  =    12.4884 eV,    0.9179 Ry                                         
                                                                                
   TITEL  = PAW_PBE H 15Jun2001                                                 
   LULTRA =        F    use ultrasoft PP ?                                      
   IUNSCR =        0    unscreen: 0-lin 1-nonlin 2-no                           
   RPACOR =    0.000    partial core radius                                     
   POMASS =    1.000; ZVAL   =    1.000    mass and valenz                      
   RCORE  =    1.100    outmost cutoff radius                                   
   RWIGS  =    0.700; RWIGS  =    0.370    wigner-seitz radius (au A)           
   ENMAX  =  250.000; ENMIN  =  200.000 eV                                      
   RCLOC  =    0.701    cutoff for local pot                                    
   LCOR   =        T    correct aug charges                                     
   LPAW   =        T    paw PP                                                  
   EAUG   =  400.000                                                            
   RMAX   =    1.123    core radius for proj-oper                               
   RAUG   =    1.200    factor for augmentation sphere                          
   RDEP   =    1.112    radius for radial grids                                 
   RDEPT  =    0.926    core radius for aug-charge                              
                                                                                
   Atomic configuration                                                         
    2 entries                                                                   
     n  l   j            E        occ.                                          
     1  0  0.50        -6.4927   1.0000                                         
     2  1  0.50        -3.4015   0.0000                                         
   Description                                                                  
     l       E           TYP  RCUT    TYP  RCUT                                 
     0     -6.4927494     23  1.100                                             
     0      6.8029130     23  1.100                                             
     1     -4.0817478     23  1.100                                             
  local pseudopotential read in
  atomic valenz-charges read in
  non local Contribution for L=           0  read in
    real space projection operators read in
  non local Contribution for L=           0  read in
    real space projection operators read in
  non local Contribution for L=           1  read in
    real space projection operators read in
    PAW grid and wavefunctions read in
 
   number of l-projection  operators is LMAX  =           3
   number of lm-projection operators is LMMAX =           5
 
 Optimization of the real space projectors (new method)

 maximal supplied QI-value         = 14.36
 optimisation between [QCUT,QGAM] = [ 11.92, 23.98] = [ 39.79,161.09] Ry 
 Optimized for a Real-space Cutoff    1.49 Angstroem

   l    n(q)    QCUT    max X(q) W(low)/X(q) W(high)/X(q)  e(spline) 
   2     10    11.920    66.195    0.79E-04    0.18E-03    0.24E-06
   2     10    11.920    64.643    0.81E-04    0.19E-03    0.24E-06
   0     11    11.920    95.520    0.28E-04    0.54E-04    0.18E-06
   0     11    11.920    63.403    0.27E-04    0.52E-04    0.17E-06
   1     10    11.920    19.961    0.18E-04    0.11E-03    0.23E-06
   1     10    11.920    13.289    0.25E-04    0.87E-04    0.19E-06
 Optimization of the real space projectors (new method)

 maximal supplied QI-value         = 16.25
 optimisation between [QCUT,QGAM] = [ 11.86, 23.89] = [ 39.41,159.82] Ry 
 Optimized for a Real-space Cutoff    1.49 Angstroem

   l    n(q)    QCUT    max X(q) W(low)/X(q) W(high)/X(q)  e(spline) 
   2     10    11.864    80.901    0.13E-03    0.23E-03    0.37E-06
   2     10    11.864    75.754    0.13E-03    0.23E-03    0.38E-06
   0     11    11.864    58.752    0.44E-04    0.11E-04    0.20E-06
   0     11    11.864    30.679    0.36E-04    0.10E-04    0.18E-06
   1     10    11.864    17.977    0.31E-04    0.45E-04    0.10E-06
   1     10    11.864    13.559    0.25E-04    0.37E-04    0.89E-07
 Optimization of the real space projectors (new method)

 maximal supplied QI-value         = 16.25
 optimisation between [QCUT,QGAM] = [ 11.86, 23.89] = [ 39.41,159.82] Ry 
 Optimized for a Real-space Cutoff    1.33 Angstroem

   l    n(q)    QCUT    max X(q) W(low)/X(q) W(high)/X(q)  e(spline) 
   2      9    11.864    65.824    0.22E-03    0.53E-03    0.26E-06
   2      9    11.864    61.429    0.22E-03    0.53E-03    0.26E-06
   0      9    11.864    56.174    0.21E-03    0.32E-04    0.15E-06
   0      9    11.864    31.263    0.19E-03    0.30E-04    0.14E-06
   1      9    11.864    19.828    0.63E-04    0.30E-03    0.16E-06
   1      9    11.864    15.139    0.49E-04    0.25E-03    0.13E-06
 Optimization of the real space projectors (new method)

 maximal supplied QI-value         = 16.25
 optimisation between [QCUT,QGAM] = [ 11.86, 23.89] = [ 39.41,159.82] Ry 
 Optimized for a Real-space Cutoff    1.49 Angstroem

   l    n(q)    QCUT    max X(q) W(low)/X(q) W(high)/X(q)  e(spline) 
   2     10    11.864     4.610    0.10E-03    0.20E-03    0.29E-06
   2     10    11.864     8.522    0.17E-03    0.33E-03    0.50E-06
   0     11    11.864    51.609    0.52E-04    0.55E-04    0.33E-06
   0     11    11.864    27.747    0.46E-04    0.52E-04    0.31E-06
   1     10    11.864    20.408    0.54E-04    0.25E-04    0.21E-06
   1     10    11.864    13.425    0.48E-04    0.22E-04    0.18E-06
 Optimization of the real space projectors (new method)

 maximal supplied QI-value         = 16.25
 optimisation between [QCUT,QGAM] = [ 11.86, 23.89] = [ 39.41,159.82] Ry 
 Optimized for a Real-space Cutoff    1.33 Angstroem

   l    n(q)    QCUT    max X(q) W(low)/X(q) W(high)/X(q)  e(spline) 
   2      9    11.864    60.317    0.21E-03    0.51E-03    0.25E-06
   2      9    11.864    55.921    0.21E-03    0.51E-03    0.26E-06
   0      9    11.864    51.690    0.22E-03    0.30E-04    0.17E-06
   0      9    11.864    30.015    0.20E-03    0.28E-04    0.15E-06
   1      9    11.864    18.849    0.76E-04    0.33E-03    0.17E-06
   1      9    11.864    14.624    0.60E-04    0.28E-03    0.15E-06
 Optimization of the real space projectors (new method)

 maximal supplied QI-value         = 34.20
 optimisation between [QCUT,QGAM] = [ 11.97, 23.94] = [ 40.13,160.53] Ry 
 Optimized for a Real-space Cutoff    1.18 Angstroem

   l    n(q)    QCUT    max X(q) W(low)/X(q) W(high)/X(q)  e(spline) 
   0      8    11.971    19.460    0.15E-03    0.31E-03    0.25E-06
   0      8    11.971    12.209    0.13E-03    0.29E-03    0.25E-06
   1      8    11.971     4.655    0.22E-03    0.24E-03    0.21E-06
  PAW_PBE Pt 04Feb2005                  :
 energy of atom  1       EATOM= -729.1176
 kinetic energy error for atom=    0.0021 (will be added to EATOM!!)
  PAW_PBE Fe 06Sep2000                  :
 energy of atom  2       EATOM= -594.3153
 kinetic energy error for atom=    0.0024 (will be added to EATOM!!)
  PAW_PBE Co 02Aug2007                  :
 energy of atom  3       EATOM= -813.3670
 kinetic energy error for atom=    0.0026 (will be added to EATOM!!)
  PAW_PBE Cu 22Jun2005                  :
 energy of atom  4       EATOM=-1390.9808
 kinetic energy error for atom=    0.0036 (will be added to EATOM!!)
  PAW_PBE Ni 02Aug2007                  :
 energy of atom  5       EATOM=-1077.6739
 kinetic energy error for atom=    0.0027 (will be added to EATOM!!)
  PAW_PBE H 15Jun2001                   :
 energy of atom  6       EATOM=  -12.4884
 kinetic energy error for atom=    0.0008 (will be added to EATOM!!)
 
 
 POSCAR: 10.56                                   
  positions in direct lattice
  velocities in cartesian coordinates
 exchange correlation table for  LEXCH =        8
   RHO(1)=    0.500       N(1)  =     2000
   RHO(2)=  100.500       N(2)  =     4000
 


--------------------------------------------------------------------------------------------------------


 ion  position               nearest neighbor table
   1  0.788  0.879  0.318-  28 2.62  49 2.63  19 2.64  33 2.65  59 2.65  61 2.66  60 2.67  29 2.68
                             2 2.71  11 2.77  12 2.84   4 2.86
   2  0.042  0.883  0.317-  79 2.56  77 2.61  60 2.62  30 2.64  28 2.66  52 2.67  33 2.67  22 2.68
                             1 2.71   6 2.80   4 2.89  16 2.96
   3  0.279  0.381  0.320-  39 2.56  64 2.57  33 2.59  31 2.63  19 2.70  43 2.70  30 2.71  68 2.72
                             5 2.78  13 2.80  18 2.82  25 2.84
   4  0.871  0.964  0.427-  81 1.87  17 2.61  11 2.62   9 2.65  12 2.67   6 2.69  16 2.71   1 2.86
                            60 2.86   2 2.89
   5  0.122  0.462  0.428-  16 2.62  12 2.62  10 2.62   7 2.63  13 2.67  25 2.67  39 2.73  33 2.73
                             3 2.78
   6  0.125  0.964  0.424-  81 1.88   8 2.61  10 2.62   9 2.66  14 2.66   4 2.69  16 2.70   2 2.80
                            52 2.82  22 2.88
   7  0.874  0.460  0.427-  15 2.62   9 2.62   5 2.63  12 2.63  10 2.64  27 2.66  39 2.70  75 2.78
                            29 2.81
   8  0.374  0.960  0.420-  43 2.60  14 2.61   6 2.61  27 2.63  13 2.63  11 2.64  10 2.65  52 2.69
                            61 2.72
   9  0.873  0.213  0.420-  81 1.86  15 2.62   7 2.62  17 2.63   4 2.65   6 2.66  10 2.66  75 2.66
                            60 2.71  22 2.80
  10  0.125  0.212  0.423-  13 2.62   6 2.62   5 2.62   7 2.64   8 2.65   9 2.66  39 2.67  43 2.73
                            22 2.79
  11  0.624  0.961  0.424-   4 2.62  13 2.63  27 2.64   8 2.64  12 2.64  17 2.65   1 2.77  19 2.82
                            61 2.83
  12  0.873  0.710  0.426-   5 2.62   7 2.63  27 2.64  11 2.64  16 2.66   4 2.67  33 2.68  29 2.80
                             1 2.84
  13  0.374  0.209  0.425-  10 2.62  11 2.63   8 2.63  17 2.65  25 2.66   5 2.67  43 2.77   3 2.80
                            19 2.83
  14  0.377  0.712  0.423-  27 2.59   8 2.61  15 2.63  25 2.65   6 2.66  16 2.67  44 2.68  30 2.76
                            52 2.76
  15  0.626  0.462  0.423-   9 2.62   7 2.62  27 2.62  14 2.63  25 2.65  17 2.65  44 2.70  75 2.73
                            18 2.76
  16  0.127  0.707  0.430-  25 2.61   5 2.62  12 2.66  14 2.67   6 2.70   4 2.71  33 2.73  30 2.87
                             2 2.96
  17  0.624  0.211  0.422-   4 2.61   9 2.63  25 2.64  11 2.65  13 2.65  15 2.65  18 2.76  60 2.78
                            19 2.86
  18  0.548  0.376  0.317-  67 2.56  60 2.59  75 2.60  44 2.64  68 2.65  26 2.66  30 2.71  19 2.73
                            17 2.76  15 2.76   3 2.82  25 2.88
  19  0.534  0.125  0.315-  80 2.55  43 2.57  68 2.57  59 2.60  61 2.63   1 2.64   3 2.70  18 2.73
                            60 2.75  11 2.82  13 2.83  17 2.86
  20  0.547  0.124  0.040-  37 2.55  57 2.56  48 2.58  62 2.64  63 2.68  47 2.68  45 2.68  56 2.70
                            34 2.71
  21  0.121  0.460  0.128-  40 2.52  36 2.53  47 2.53  42 2.60  69 2.61  64 2.62  70 2.64  50 2.64
                            58 2.67  31 2.70  57 2.71  74 2.72
  22  0.044  0.136  0.314-  65 2.52  55 2.53  77 2.57  43 2.57  39 2.58  75 2.61   2 2.68  60 2.68
                            52 2.73  10 2.79   9 2.80   6 2.88  31 3.40
  23  0.042  0.130  0.033-  70 2.58  40 2.60  41 2.61  45 2.62  62 2.64  76 2.64  24 2.69  35 2.73
                            53 2.78
  24  0.130  0.958  0.132-  79 2.51  77 2.54  35 2.57  53 2.57  55 2.58  70 2.62  38 2.64  58 2.64
                            73 2.65  23 2.69  66 2.70  41 2.72
  25  0.375  0.461  0.426-  16 2.61  17 2.64  15 2.65  14 2.65  13 2.66   5 2.67  30 2.83   3 2.84
                            18 2.88
  26  0.455  0.546  0.219-  73 2.50  74 2.54  51 2.56  79 2.61  64 2.63  30 2.66  18 2.66  68 2.67
                            78 2.67  32 2.68  67 2.72  44 2.75
  27  0.623  0.712  0.424-  14 2.59  15 2.62   8 2.63  11 2.64  12 2.64   7 2.66  44 2.71  61 2.79
                            29 2.79
  28  0.956  0.790  0.221-  58 2.57  66 2.57  50 2.58  42 2.59  49 2.61   1 2.62  64 2.63   2 2.66
                            59 2.70  33 2.72  79 2.76  77 2.77
  29  0.794  0.622  0.319-  39 2.54  42 2.56  75 2.57  32 2.62  44 2.64  33 2.66  61 2.67   1 2.68
                            49 2.69  27 2.79  12 2.80   7 2.81
  30  0.290  0.631  0.319-  79 2.57  64 2.60  52 2.61  44 2.63   2 2.64  33 2.65  26 2.66   3 2.71
                            18 2.71  14 2.76  25 2.83  16 2.87
  31  0.203  0.281  0.225-  70 2.52  55 2.56  65 2.57  43 2.59  57 2.60   3 2.63  39 2.67  80 2.70
                            21 2.70  42 2.71  68 2.75  64 2.79  22 3.40
  32  0.706  0.549  0.221-  54 2.53  69 2.56  51 2.58  49 2.59  42 2.60  29 2.62  78 2.62  65 2.63
                            26 2.68  75 2.69  44 2.69  67 2.70
  33  0.040  0.631  0.326-   3 2.59  39 2.64  30 2.65   1 2.65  29 2.66   2 2.67  12 2.68  64 2.70
                            28 2.72  16 2.73  42 2.73   5 2.73
  34  0.797  0.862  0.042-  50 2.38  66 2.51  48 2.53  36 2.55  71 2.56  63 2.61  20 2.71  35 2.76
                            62 2.76
  35  0.056  0.866  0.038-  58 2.54  72 2.55  36 2.56  24 2.57  66 2.62  53 2.65  23 2.73  62 2.73
                            34 2.76
  36  0.046  0.628  0.037-  21 2.53  34 2.55  35 2.56  58 2.58  50 2.61  47 2.63  72 2.64  40 2.69
                            71 2.72
  37  0.627  0.222  0.129-  51 2.51  74 2.51  67 2.52  56 2.53  41 2.55  20 2.55  68 2.56  59 2.56
                            62 2.59  66 2.66  57 2.73  48 2.89
  38  0.382  0.955  0.130-  53 2.47  80 2.48  45 2.49  78 2.53  48 2.54  73 2.55  63 2.55  54 2.56
                            55 2.59  57 2.62  24 2.64  70 2.67
  39  0.035  0.384  0.325-  29 2.54   3 2.56  75 2.58  22 2.58  33 2.64  42 2.66  10 2.67  31 2.67
                             7 2.70   5 2.73  65 2.76  43 2.79
  40  0.031  0.382  0.038-  69 2.44  21 2.52  71 2.53  76 2.56  70 2.57  23 2.60  36 2.69  45 2.78
                            47 2.78
  41  0.872  0.215  0.128-  76 2.45  65 2.52  77 2.53  67 2.54  37 2.55  69 2.57  62 2.57  51 2.59
                            23 2.61  70 2.65  66 2.66  24 2.72
  42  0.955  0.545  0.224-  50 2.56  29 2.56  28 2.59  21 2.60  32 2.60  69 2.61  49 2.63  65 2.64
                            64 2.65  39 2.66  31 2.71  33 2.73
  43  0.296  0.116  0.321-  55 2.53  52 2.54  61 2.57  19 2.57  22 2.57  31 2.59   8 2.60  80 2.66
                             3 2.70  10 2.73  13 2.77  39 2.79
  44  0.541  0.630  0.322-  61 2.56  52 2.57  78 2.63  30 2.63  29 2.64  18 2.64  75 2.66  14 2.68
                            32 2.69  15 2.70  27 2.71  26 2.75
  45  0.295  0.119  0.039-  70 2.49  38 2.49  57 2.57  53 2.60  23 2.62  63 2.64  20 2.68  47 2.75
                            40 2.78
  46  0.548  0.625  0.044-  51 2.38  73 2.39  54 2.41  71 2.56  53 2.56  63 2.58  76 2.59  56 2.62
                            72 2.64
  47  0.296  0.379  0.039-  74 2.41  21 2.53  57 2.61  72 2.61  56 2.62  36 2.63  20 2.68  45 2.75
                            40 2.78
  48  0.625  0.950  0.132-  49 2.40  80 2.48  54 2.48  34 2.53  38 2.54  59 2.55  50 2.56  63 2.57
                            20 2.58  57 2.65  66 2.68  37 2.89
  49  0.706  0.794  0.220-  48 2.40  50 2.48  54 2.49  80 2.53  32 2.59  28 2.61  78 2.61  61 2.62
                             1 2.63  42 2.63  29 2.69  59 2.69
  50  0.866  0.706  0.129-  34 2.38  71 2.42  54 2.48  49 2.48  42 2.56  48 2.56  69 2.58  28 2.58
                            36 2.61  21 2.64  66 2.76  58 2.85
  51  0.626  0.460  0.127-  46 2.38  76 2.45  37 2.51  56 2.52  26 2.56  32 2.58  41 2.59  73 2.60
                            69 2.62  74 2.62  67 2.63  54 2.69
  52  0.299  0.875  0.318-  55 2.43  78 2.51  61 2.53  79 2.53  43 2.54  44 2.57  30 2.61   2 2.67
                             8 2.69  22 2.73  14 2.76   6 2.82
  53  0.306  0.868  0.040-  73 2.42  38 2.47  63 2.55  46 2.56  24 2.57  45 2.60  72 2.61  35 2.65
                            23 2.78
  54  0.627  0.715  0.128-  46 2.41  71 2.46  50 2.48  48 2.48  63 2.48  49 2.49  32 2.53  38 2.56
                            73 2.56  78 2.62  69 2.68  51 2.69
  55  0.224  0.028  0.227-  52 2.43  78 2.45  79 2.49  80 2.53  22 2.53  43 2.53  31 2.56  24 2.58
                            38 2.59  77 2.72  70 2.72  65 2.86
  56  0.543  0.381  0.035-  74 2.50  51 2.52  37 2.53  72 2.59  76 2.60  46 2.62  47 2.62  20 2.70
                            62 2.70
  57  0.378  0.205  0.133-  68 2.46  80 2.54  20 2.56  45 2.57  31 2.60  47 2.61  38 2.62  74 2.62
                            70 2.64  48 2.65  21 2.71  37 2.73
  58  0.136  0.705  0.132-  72 2.47  64 2.52  35 2.54  79 2.57  28 2.57  36 2.58  74 2.64  24 2.64
                            73 2.67  21 2.67  66 2.76  50 2.85
  59  0.705  0.050  0.220-  66 2.52  48 2.55  37 2.56  68 2.58  67 2.58  19 2.60  60 2.62   1 2.65
                            77 2.66  80 2.67  49 2.69  28 2.70
  60  0.793  0.129  0.317-  67 2.53  77 2.58  18 2.59   2 2.62  59 2.62  75 2.64   1 2.67  22 2.68
                             9 2.71  19 2.75  17 2.78   4 2.86
  61  0.538  0.873  0.317-  78 2.49  52 2.53  80 2.53  44 2.56  43 2.57  49 2.62  19 2.63   1 2.66
                            29 2.67   8 2.72  27 2.79  11 2.83
  62  0.797  0.123  0.035-  66 2.54  41 2.57  37 2.59  23 2.64  20 2.64  76 2.66  56 2.70  35 2.73
                            34 2.76
  63  0.546  0.870  0.036-  54 2.48  53 2.55  38 2.55  48 2.57  46 2.58  34 2.61  71 2.61  45 2.64
                            20 2.68
  64  0.207  0.543  0.224-  58 2.52   3 2.57  30 2.60  21 2.62  26 2.63  28 2.63  68 2.65  42 2.65
                            74 2.68  33 2.70  79 2.72  31 2.79
  65  0.952  0.297  0.221-  41 2.52  69 2.52  22 2.52  67 2.54  77 2.55  31 2.57  70 2.60  75 2.61
                            32 2.63  42 2.64  39 2.76  55 2.86
  66  0.872  0.964  0.129-  34 2.51  59 2.52  62 2.54  28 2.57  77 2.58  35 2.62  37 2.66  41 2.66
                            48 2.68  24 2.70  50 2.76  58 2.76
  67  0.714  0.290  0.223-  37 2.52  77 2.53  60 2.53  65 2.54  41 2.54  18 2.56  59 2.58  51 2.63
                            75 2.63  32 2.70  68 2.70  26 2.72
  68  0.458  0.291  0.221-  57 2.46  74 2.54  37 2.56  19 2.57  59 2.58  64 2.65  18 2.65  26 2.67
                            67 2.70   3 2.72  80 2.73  31 2.75
  69  0.876  0.457  0.128-  40 2.44  71 2.45  76 2.46  65 2.52  32 2.56  41 2.57  50 2.58  21 2.61
                            42 2.61  51 2.62  70 2.65  54 2.68
  70  0.128  0.207  0.129-  45 2.49  31 2.52  40 2.57  23 2.58  65 2.60  24 2.62  57 2.64  21 2.64
                            69 2.65  41 2.65  38 2.67  55 2.72
  71  0.792  0.622  0.040-  50 2.42  69 2.45  54 2.46  40 2.53  46 2.56  34 2.56  76 2.59  63 2.61
                            36 2.72
  72  0.298  0.625  0.042-  74 2.44  58 2.47  73 2.49  35 2.55  56 2.59  53 2.61  47 2.61  36 2.64
                            46 2.64
  73  0.386  0.711  0.129-  46 2.39  53 2.42  72 2.49  26 2.50  78 2.55  38 2.55  54 2.56  51 2.60
                            79 2.63  24 2.65  58 2.67  74 2.76
  74  0.382  0.452  0.126-  47 2.41  72 2.44  56 2.50  37 2.51  68 2.54  26 2.54  51 2.62  57 2.62
                            58 2.64  64 2.68  21 2.72  73 2.76
  75  0.793  0.379  0.320-  29 2.57  39 2.58  18 2.60  22 2.61  65 2.61  67 2.63  60 2.64  44 2.66
                             9 2.66  32 2.69  15 2.73   7 2.78
  76  0.791  0.377  0.039-  51 2.45  41 2.45  69 2.46  40 2.56  71 2.59  46 2.59  56 2.60  23 2.64
                            62 2.66
  77  0.956  0.053  0.221-  67 2.53  41 2.53  24 2.54  65 2.55  22 2.57  66 2.58  60 2.58   2 2.61
                            59 2.66  79 2.71  55 2.72  28 2.77
  78  0.458  0.797  0.224-  55 2.45  80 2.49  61 2.49  52 2.51  38 2.53  73 2.55  79 2.58  49 2.61
                            54 2.62  32 2.62  44 2.63  26 2.67
  79  0.213  0.798  0.225-  55 2.49  24 2.51  52 2.53   2 2.56  58 2.57  30 2.57  78 2.58  26 2.61
                            73 2.63  77 2.71  64 2.72  28 2.76
  80  0.462  0.030  0.222-  38 2.48  48 2.48  78 2.49  61 2.53  55 2.53  49 2.53  57 2.54  19 2.55
                            43 2.66  59 2.67  31 2.70  68 2.73
  81  0.955  0.053  0.472-   9 1.86   4 1.87   6 1.88
 
  LATTYP: Found a hexagonal cell.
 ALAT       =    10.5600004196
 C/A-ratio  =     2.0833332505
  
  Lattice vectors:
  
 A1 = (   5.2800002098,  -9.1452286274,   0.0000000000)
 A2 = ( -10.5600004196,   0.0000000000,   0.0000000000)
 A3 = (   0.0000000000,   0.0000000000, -22.0000000000)


Analysis of symmetry for initial positions (statically):
=====================================================================
 Subroutine PRICEL returns:
 Original cell was already a primitive cell.
 

 Routine SETGRP: Setting up the symmetry group for a 
 hexagonal supercell.


 Subroutine GETGRP returns: Found  1 space group operations
 (whereof  1 operations were pure point group operations)
 out of a pool of 24 trial point group operations.


The static configuration has the point symmetry C_1 .


Analysis of symmetry for dynamics (positions and initial velocities):
=====================================================================
 Subroutine PRICEL returns:
 Original cell was already a primitive cell.
 

 Routine SETGRP: Setting up the symmetry group for a 
 hexagonal supercell.


 Subroutine GETGRP returns: Found  1 space group operations
 (whereof  1 operations were pure point group operations)
 out of a pool of 24 trial point group operations.


The dynamic configuration has the point symmetry C_1 .


Analysis of constrained symmetry for selective dynamics:
=====================================================================
 Subroutine PRICEL returns:
 Original cell was already a primitive cell.
 

 Routine SETGRP: Setting up the symmetry group for a 
 hexagonal supercell.


 Subroutine GETGRP returns: Found  1 space group operations
 (whereof  1 operations were pure point group operations)
 out of a pool of 24 trial point group operations.


The constrained configuration has the point symmetry C_1 .


Analysis of structural, dynamic, and magnetic symmetry:
=====================================================================
 Subroutine PRICEL returns:
 Original cell was already a primitive cell.
 

 Routine SETGRP: Setting up the symmetry group for a 
 hexagonal supercell.


 Subroutine GETGRP returns: Found  1 space group operations
 (whereof  1 operations were pure point group operations)
 out of a pool of 24 trial point group operations.


The magnetic configuration has the point symmetry C_1 .


 Subroutine INISYM returns: Found  1 space group operations
 (whereof  1 operations are pure point group operations),
 and found     1 'primitive' translations

 
 
 KPOINTS: mesh auto                               

Automatic generation of k-mesh.
Space group operators:
 irot       det(A)        alpha          n_x          n_y          n_z        tau_x        tau_y        tau_z
    1     1.000000     0.000001     1.000000     0.000000     0.000000     0.000000     0.000000     0.000000
 
 Subroutine IBZKPT returns following result:
 ===========================================
 
 Found      4 irreducible k-points:
 
 Following reciprocal coordinates:
            Coordinates               Weight
  0.000000  0.000000  0.000000      1.000000
  0.500000  0.000000  0.000000      1.000000
  0.000000  0.500000  0.000000      1.000000
  0.500000  0.500000  0.000000      1.000000
 
 Following cartesian coordinates:
            Coordinates               Weight
  0.000000  0.000000  0.000000      1.000000
  0.047348 -0.027337  0.000000      1.000000
  0.000000  0.054673  0.000000      1.000000
  0.047348  0.027337  0.000000      1.000000
 


--------------------------------------------------------------------------------------------------------




 Dimension of arrays:
   k-points           NKPTS =      4   k-points in BZ     NKDIM =      4   number of bands    NBANDS=    588
   number of dos      NEDOS =    301   number of ions     NIONS =     81
   non local maximal  LDIM  =      6   non local SUM 2l+1 LMDIM =     18
   total plane-waves  NPLWV = ******
   max r-space proj   IRMAX =   7802   max aug-charges    IRDMAX=  33988
   dimension x,y,z NGX =    84 NGY =   84 NGZ =  168
   dimension x,y,z NGXF=   168 NGYF=  168 NGZF=  336
   support grid    NGXF=   168 NGYF=  168 NGZF=  336
   ions per type =              32  13  10  13  12   1
   NGX,Y,Z   is equivalent  to a cutoff of  13.22, 13.22, 12.70 a.u.
   NGXF,Y,Z  is equivalent  to a cutoff of  26.45, 26.45, 25.39 a.u.

 SYSTEM =  Pt111                                   
 POSCAR =  10.56                                   

 Startparameter for this run:
   NWRITE =      2    write-flag & timer
   PREC   = accura    normal or accurate (medium, high low for compatibility)
   ISTART =      0    job   : 0-new  1-cont  2-samecut
   ICHARG =      2    charge: 1-file 2-atom 10-const
   ISPIN  =      2    spin polarized calculation?
   LNONCOLLINEAR =      F non collinear calculations
   LSORBIT =      F    spin-orbit coupling
   INIWAV =      1    electr: 0-lowe 1-rand  2-diag
   LASPH  =      F    aspherical Exc in radial PAW
   METAGGA=      F    non-selfconsistent MetaGGA calc.

 Electronic Relaxation 1
   ENCUT  =  550.0 eV  40.42 Ry    6.36 a.u.  20.19 20.19 42.07*2*pi/ulx,y,z
   ENINI  =  550.0     initial cutoff
   ENAUG  =  587.0 eV  augmentation charge cutoff
   NELM   =    200;   NELMIN=  2; NELMDL= -5     # of ELM steps 
   EDIFF  = 0.1E-04   stopping-criterion for ELM
   LREAL  =      T    real-space projection
   NLSPLINE    = F    spline interpolate recip. space projectors
   LCOMPAT=      F    compatible to vasp.4.4
   GGA_COMPAT  = T    GGA compatible to vasp.4.4-vasp.4.6
   LMAXPAW     = -100 max onsite density
   LMAXMIX     =    2 max onsite mixed and CHGCAR
   VOSKOWN=      0    Vosko Wilk Nusair interpolation
   ROPT   =   -0.00025  -0.00025  -0.00025  -0.00025
   ROPT   =   -0.00025  -0.00025
 Ionic relaxation
   EDIFFG = -.5E-01   stopping-criterion for IOM
   NSW    =    300    number of steps for IOM
   NBLOCK =      1;   KBLOCK =    300    inner block; outer block 
   IBRION =      2    ionic relax: 0-MD 1-quasi-New 2-CG
   NFREE  =      1    steps in history (QN), initial steepest desc. (CG)
   ISIF   =      2    stress and relaxation
   IWAVPR =     11    prediction:  0-non 1-charg 2-wave 3-comb
   ISYM   =      2    0-nonsym 1-usesym 2-fastsym
   LCORR  =      T    Harris-Foulkes like correction to forces

   POTIM  = 0.5000    time-step for ionic-motion
   TEIN   =    0.0    initial temperature
   TEBEG  =    0.0;   TEEND  =   0.0 temperature during run
   SMASS  =  -3.00    Nose mass-parameter (am)
   estimated Nose-frequenzy (Omega)   =  0.10E-29 period in steps =****** mass=  -0.255E-26a.u.
   SCALEE = 1.0000    scale energy and forces
   NPACO  =    256;   APACO  = 16.0  distance and # of slots for P.C.
   PSTRESS=    0.0 pullay stress

  Mass of Ions in am
   POMASS = 195.08 55.85 58.93 63.55 58.69  1.00
  Ionic Valenz
   ZVAL   =  10.00  8.00  9.00 11.00 10.00  1.00
  Atomic Wigner-Seitz radii
   RWIGS  =  -1.00 -1.00 -1.00 -1.00 -1.00 -1.00
  virtual crystal weights 
   VCA    =   1.00  1.00  1.00  1.00  1.00  1.00
   NELECT =     778.0000    total number of electrons
   NUPDOWN=      -1.0000    fix difference up-down

 DOS related values:
   EMIN   =  10.00;   EMAX   =-10.00  energy-range for DOS
   EFERMI =   0.00
   ISMEAR =     1;   SIGMA  =   0.10  broadening in eV -4-tet -1-fermi 0-gaus

 Electronic relaxation 2 (details)
   IALGO  =     68    algorithm
   LDIAG  =      T    sub-space diagonalisation (order eigenvalues)
   LSUBROT=      F    optimize rotation matrix (better conditioning)
   TURBO    =      0    0=normal 1=particle mesh
   IRESTART =      0    0=no restart 2=restart with 2 vectors
   NREBOOT  =      0    no. of reboots
   NMIN     =      0    reboot dimension
   EREF     =   0.00    reference energy to select bands
   IMIX   =      4    mixing-type and parameters
     AMIX     =   0.40;   BMIX     =  1.00
     AMIX_MAG =   1.60;   BMIX_MAG =  1.00
     AMIN     =   0.10
     WC   =   100.;   INIMIX=   1;  MIXPRE=   1;  MAXMIX= -45

 Intra band minimization:
   WEIMIN = 0.0010     energy-eigenvalue tresh-hold
   EBREAK =  0.43E-08  absolut break condition
   DEPER  =   0.30     relativ break condition  

   TIME   =   0.40     timestep for ELM

  volume/ion in A,a.u.               =      26.23       177.01
  Fermi-wavevector in a.u.,A,eV,Ry     =   1.171227  2.213298 18.664091  1.371772
  Thomas-Fermi vector in A             =   2.307674
 
 Write flags
   LWAVE        =      F    write WAVECAR
   LDOWNSAMPLE  =      F    k-point downsampling of WAVECAR
   LCHARG       =      F    write CHGCAR
   LVTOT        =      F    write LOCPOT, total local potential
   LVHAR        =      F    write LOCPOT, Hartree potential only
   LELF         =      F    write electronic localiz. function (ELF)
   LORBIT       =      0    0 simple, 1 ext, 2 COOP (PROOUT), +10 PAW based schemes


 Dipole corrections
   LMONO  =      F    monopole corrections only (constant potential shift)
   LDIPOL =      F    correct potential (dipole corrections)
   IDIPOL =      0    1-x, 2-y, 3-z, 4-all directions 
   EPSILON=  1.0000000 bulk dielectric constant

 Exchange correlation treatment:
   GGA     =    --    GGA type
   LEXCH   =     8    internal setting for exchange type
   VOSKOWN=      0    Vosko Wilk Nusair interpolation
   LHFCALC =     F    Hartree Fock is set to
   LHFONE  =     F    Hartree Fock one center treatment
   AEXX    =    0.0000 exact exchange contribution

 Linear response parameters
   LEPSILON=     F    determine dielectric tensor
   LRPA    =     F    only Hartree local field effects (RPA)
   LNABLA  =     F    use nabla operator in PAW spheres
   LVEL    =     F    velocity operator in full k-point grid
   LINTERFAST=   F  fast interpolation
   KINTER  =     0    interpolate to denser k-point grid
   CSHIFT  =0.1000    complex shift for real part using Kramers Kronig
   OMEGAMAX=  -1.0    maximum frequency
   DEG_THRESHOLD= 0.2000000E-02 threshold for treating states as degnerate
   RTIME   =   -0.100 relaxation time in fs
  (WPLASMAI=    0.000 imaginary part of plasma frequency in eV, 0.658/RTIME)
   DFIELD  = 0.0000000 0.0000000 0.0000000 field for delta impulse in time
 
 Orbital magnetization related:
   ORBITALMAG=     F  switch on orbital magnetization
   LCHIMAG   =     F  perturbation theory with respect to B field
   DQ        =  0.001000  dq finite difference perturbation B field
   LLRAUG    =     F  two centre corrections for induced B field



--------------------------------------------------------------------------------------------------------


 conjugate gradient relaxation of ions
   using selective dynamics as specified on POSCAR
 charge density and potential will be updated during run
 spin polarized calculation
 RMM-DIIS sequential band-by-band and
  variant of blocked Davidson during initial phase
 perform sub-space diagonalisation
    before iterative eigenvector-optimisation
 modified Broyden-mixing scheme, WC =      100.0
 initial mixing is a Kerker type mixing with AMIX =  0.4000 and BMIX =      1.0000
 Hartree-type preconditioning will be used
 using additional bands          199
 real space projection scheme for non local part
 use partial core corrections
 calculate Harris-corrections to forces 
   (improved forces if not selfconsistent)
 use gradient corrections 
 use of overlap-Matrix (Vanderbilt PP)
 Methfessel and Paxton  Order N= 1 SIGMA  =   0.10


--------------------------------------------------------------------------------------------------------


  energy-cutoff  :      550.00
  volume of cell :     2124.62
      direct lattice vectors                 reciprocal lattice vectors
    10.560000420  0.000000000  0.000000000     0.094696966 -0.054673319  0.000000000
     5.280000210  9.145228627  0.000000000     0.000000000  0.109346638  0.000000000
     0.000000000  0.000000000 22.000000000     0.000000000  0.000000000  0.045454545

  length of vectors
    10.560000420 10.560000420 22.000000000     0.109346638  0.109346638  0.045454545


 
 k-points in units of 2pi/SCALE and weight: mesh auto                               
   0.00000000  0.00000000  0.00000000       0.250
   0.04734848 -0.02733666  0.00000000       0.250
   0.00000000  0.05467332  0.00000000       0.250
   0.04734848  0.02733666  0.00000000       0.250
 
 k-points in reciprocal lattice and weights: mesh auto                               
   0.00000000  0.00000000  0.00000000       0.250
   0.50000000  0.00000000  0.00000000       0.250
   0.00000000  0.50000000  0.00000000       0.250
   0.50000000  0.50000000  0.00000000       0.250
 
 position of ions in fractional coordinates (direct lattice) 
   0.78750895  0.87901605  0.31766201
   0.04205571  0.88254567  0.31662543
   0.27918164  0.38057440  0.31970885
   0.87051351  0.96356644  0.42717718
   0.12203156  0.46177458  0.42805299
   0.12536717  0.96353978  0.42375483
   0.87404258  0.45995676  0.42742531
   0.37434312  0.96022829  0.41971922
   0.87251610  0.21334489  0.41984649
   0.12493728  0.21210563  0.42264131
   0.62383071  0.96075842  0.42371543
   0.87327881  0.70980566  0.42573116
   0.37427715  0.20945036  0.42492690
   0.37704708  0.71153466  0.42286320
   0.62552435  0.46168786  0.42267972
   0.12661487  0.70718359  0.42980872
   0.62428194  0.21110707  0.42220110
   0.54824577  0.37580531  0.31712213
   0.53440438  0.12476594  0.31507984
   0.54700026  0.12353325  0.03994180
   0.12080895  0.46017830  0.12803950
   0.04364646  0.13585154  0.31425746
   0.04244149  0.13021000  0.03298030
   0.13048322  0.95798537  0.13183245
   0.37475555  0.46136522  0.42614318
   0.45454095  0.54571928  0.21885182
   0.62265296  0.71161740  0.42429299
   0.95571501  0.79013093  0.22104486
   0.79367503  0.62248975  0.31922221
   0.29049701  0.63126059  0.31858432
   0.20263023  0.28057175  0.22546492
   0.70645161  0.54939058  0.22075077
   0.04043112  0.63096110  0.32562532
   0.79731809  0.86162656  0.04207609
   0.05609859  0.86571859  0.03774080
   0.04641287  0.62819901  0.03699114
   0.62737558  0.22224168  0.12875060
   0.38211413  0.95500403  0.12988305
   0.03522836  0.38366605  0.32452357
   0.03114053  0.38167600  0.03750461
   0.87224044  0.21539432  0.12829500
   0.95471211  0.54518808  0.22389055
   0.29607680  0.11646670  0.32115892
   0.54051582  0.62980180  0.32182031
   0.29525378  0.11938697  0.03940923
   0.54825113  0.62531765  0.04365578
   0.29553136  0.37948250  0.03889216
   0.62548736  0.94995762  0.13208615
   0.70634189  0.79434825  0.22010408
   0.86572308  0.70559157  0.12880862
   0.62619676  0.46010837  0.12710353
   0.29859077  0.87457088  0.31751308
   0.30581838  0.86812735  0.04029659
   0.62671135  0.71465279  0.12827184
   0.22389857  0.02823957  0.22731031
   0.54269301  0.38102257  0.03461701
   0.37824999  0.20530955  0.13259126
   0.13618402  0.70497383  0.13178299
   0.70486941  0.05028396  0.22036332
   0.79276653  0.12940599  0.31709636
   0.53840135  0.87332109  0.31679303
   0.79655062  0.12311547  0.03453465
   0.54614634  0.87048754  0.03589640
   0.20722235  0.54282065  0.22417055
   0.95151324  0.29672189  0.22129229
   0.87185770  0.96385702  0.12897658
   0.71421099  0.29004436  0.22334568
   0.45764413  0.29147175  0.22083053
   0.87581008  0.45650690  0.12794668
   0.12769165  0.20692390  0.12876336
   0.79229095  0.62176839  0.04024823
   0.29784859  0.62540744  0.04208964
   0.38567508  0.71146547  0.12891873
   0.38207648  0.45160905  0.12649526
   0.79319707  0.37894701  0.32024232
   0.79092480  0.37725959  0.03945628
   0.95559961  0.05293444  0.22143250
   0.45755740  0.79715593  0.22440887
   0.21315004  0.79768722  0.22457904
   0.46239859  0.03021630  0.22200270
   0.95549337  0.05264147  0.47195662
 
 position of ions in cartesian coordinates  (Angst):
  12.95729981  8.03880277  6.98856417
   5.10394961  8.07108195  6.96575944
   4.95759111  3.48043992  7.03359479
  14.28025402  8.81203538  9.39789803
   3.72682315  4.22303409  9.41716579
   6.41136760  8.81179159  9.32260619
  11.65846177  4.20640974  9.40335688
   9.02306912  8.78150724  9.23382283
  10.34023149  1.95108780  9.23662275
   2.43925546  1.93975445  9.29810889
  11.66045717  8.78635539  9.32173941
  12.96959865  6.49133508  9.36608555
   5.05826478  1.91547141  9.34839175
   7.73852043  6.50714712  9.30299039
   9.04324938  4.22224104  9.29895379
   5.07098260  6.46735559  9.45579175
   7.70706293  1.93062240  9.28842429
   7.77372763  3.43682546  6.97668677
   6.30207469  1.14101300  6.93175655
   6.42857854  1.12973983  0.87871960
   3.70548407  4.20843578  2.81686897
   1.17820287  1.24239344  6.91366420
   1.13569097  1.19080020  0.72556650
   6.43606578  8.76099519  2.90031393
   6.39342727  4.21929045  9.37514995
   7.68135056  4.99072754  4.81474005
  10.33255556  6.50790378  9.33444579
  14.26424239  7.22592798  4.86298700
  11.66795464  5.69281112  7.02288867
   6.40070462  5.77302243  7.00885514
   3.62119418  2.56589278  4.96022829
  10.36091172  5.02430245  4.85651690
   3.75842739  5.77028348  7.16375696
  12.96906778  7.87977186  0.92567400
   5.16339550  7.91719447  0.83029765
   3.80701088  5.74502359  0.81380505
   7.79852245  2.03245096  2.83251312
   9.07754686  8.73373018  2.85742705
   2.39776831  3.50871371  7.13951851
   2.34409331  3.49051425  0.82510140
  10.34814148  1.96983035  2.82248993
  12.96035349  4.98586960  4.92559202
   3.74151535  1.06511464  7.06549623
   9.03320088  5.75968142  7.08004681
   3.74824325  1.09182115  0.86700304
   9.09120953  5.71867289  0.96042722
   5.12447898  3.47045423  0.85562744
  11.62092318  8.68757958  2.90589533
  11.65312961  7.26449633  4.84228978
  12.86755974  6.45279623  2.83378953
   9.04201027  4.20779619  2.79627770
   7.77085308  7.99815062  6.98528785
   7.81315482  7.93922313  0.88652503
  10.39143898  6.53566319  2.82198042
   2.51347389  0.25825733  5.00082675
   7.74263770  3.48453850  0.76157429
   5.07835445  1.87760273  2.91700770
   5.16036530  6.44714688  2.89922570
   7.70892058  0.45985829  4.84799308
   9.05487850  1.18344734  6.97612002
  10.29665402  7.98672108  6.96944671
   9.06162455  1.12591908  0.75976228
  10.36347996  7.96080760  0.78972076
   5.05436124  4.96421897  4.93175206
  11.61467189  2.71358951  4.86843040
  14.29598293  8.81469279  2.83748465
   9.07350258  2.65252196  4.91360499
   6.37169315  2.66557579  4.85827162
  11.65891135  4.17485993  2.81482702
   2.44098212  1.89236634  2.83279397
  11.64953004  5.68621407  0.88546096
   6.44743266  5.71949403  0.92597203
   7.82926683  6.50651440  2.83621200
   6.41922371  4.13006800  2.78289578
  10.37700171  3.46555707  7.04533098
  10.34409694  3.45012521  0.86803825
  10.37062613  0.48409754  4.87151493
   9.04078979  7.29017323  4.93699507
   6.46265315  7.29503196  4.94073890
   5.04247138  0.27633499  4.88405930
  10.36795739  0.48141827 10.38304564
 


--------------------------------------------------------------------------------------------------------


 k-point  1 :   0.0000 0.0000 0.0000  plane waves:   62167
 k-point  2 :   0.5000 0.0000 0.0000  plane waves:   62242
 k-point  3 :   0.0000 0.5000 0.0000  plane waves:   62242
 k-point  4 :   0.5000 0.5000 0.0000  plane waves:   62242

 maximum and minimum number of plane-waves per node :     15586    15521

 maximum number of plane-waves:     62242
 maximum index in each direction: 
   IXMAX=   20   IYMAX=   20   IZMAX=   42
   IXMIN=  -20   IYMIN=  -20   IZMIN=  -42


 real space projection operators:
  total allocation   :      77804.24 KBytes
  max/ min on nodes  :      19476.85      19432.07


 parallel 3D FFT for wavefunctions:
    minimum data exchange during FFTs selected (reduces bandwidth)
 parallel 3D FFT for charge:
    minimum data exchange during FFTs selected (reduces bandwidth)


 total amount of memory used by VASP MPI-rank0   230614. kBytes
=======================================================================

   base      :      30000. kBytes
   nonlr-proj:      34700. kBytes
   fftplans  :      16129. kBytes
   grid      :      49182. kBytes
   one-center:        653. kBytes
   wavefun   :      99950. kBytes
 
     INWAV:  cpu time    0.0000: real time    0.0003
 Broyden mixing: mesh for mixing (old mesh)
   NGX = 41   NGY = 41   NGZ = 85
  (NGX  =168   NGY  =168   NGZ  =336)
  gives a total of 142885 points

 initial charge density was supplied:
 charge density of overlapping atoms calculated
 number of electron     778.0000000 magnetization     231.0000000
 keeping initial charge density in first step


--------------------------------------------------------------------------------------------------------


 Maximum index for non-local projection operator         1902
 Maximum index for augmentation-charges         1469 (set IRDMAX)


--------------------------------------------------------------------------------------------------------


 First call to EWALD:  gamma=   0.138
 Maximum number of real-space cells 4x 4x 2
 Maximum number of reciprocal cells 2x 2x 4

    FEWALD:  cpu time    0.0046: real time    0.0046


--------------------------------------- Iteration      1(   1)  ---------------------------------------


    POTLOK:  cpu time    0.3658: real time    0.3731
    SETDIJ:  cpu time    0.0327: real time    0.0328
     EDDAV:  cpu time   59.6769: real time   59.8872
       DOS:  cpu time    0.0021: real time    0.1203
    --------------------------------------------
      LOOP:  cpu time   60.0779: real time   60.4136

 eigenvalue-minimisations  :  9408
 total energy-change (2. order) : 0.7901246E+04  (-0.3296627E+05)
 number of electron     778.0000000 magnetization     231.0000000
 augmentation part      778.0000000 magnetization     231.0000000

 Free energy of the ion-electron system (eV)
  ---------------------------------------------------
  alpha Z        PSCENC =      2238.96497515
  Ewald energy   TEWEN  =    223867.62915188
  -Hartree energ DENC   =   -296127.67469858
  -exchange      EXHF   =         0.00000000
  -V(xc)+E(xc)   XCENC  =      1387.85357367
  PAW double counting   =     64136.80006862   -66038.70876209
  entropy T*S    EENTRO =        -0.00057293
  eigenvalues    EBANDS =      8217.72765450
  atomic energy  EATOM  =     70218.65458108
  Solvation  Ediel_sol  =         0.00000000
  ---------------------------------------------------
  free energy    TOTEN  =      7901.24597129 eV

  energy without entropy =     7901.24654422  energy(sigma->0) =     7901.24616227


--------------------------------------------------------------------------------------------------------




--------------------------------------- Iteration      1(   2)  ---------------------------------------


     EDDAV:  cpu time   59.6880: real time   59.8707
       DOS:  cpu time    0.0029: real time    0.0030
    --------------------------------------------
      LOOP:  cpu time   59.6909: real time   59.8737

 eigenvalue-minimisations  :  9408
 total energy-change (2. order) :-0.7043905E+04  (-0.6295600E+04)
 number of electron     778.0000000 magnetization     231.0000000
 augmentation part      778.0000000 magnetization     231.0000000

 Free energy of the ion-electron system (eV)
  ---------------------------------------------------
  alpha Z        PSCENC =      2238.96497515
  Ewald energy   TEWEN  =    223867.62915188
  -Hartree energ DENC   =   -296127.67469858
  -exchange      EXHF   =         0.00000000
  -V(xc)+E(xc)   XCENC  =      1387.85357367
  PAW double counting   =     64136.80006862   -66038.70876209
  entropy T*S    EENTRO =         0.00288594
  eigenvalues    EBANDS =      1173.81947326
  atomic energy  EATOM  =     70218.65458108
  Solvation  Ediel_sol  =         0.00000000
  ---------------------------------------------------
  free energy    TOTEN  =       857.34124892 eV

  energy without entropy =      857.33836298  energy(sigma->0) =      857.34028694


--------------------------------------------------------------------------------------------------------




--------------------------------------- Iteration      1(   3)  ---------------------------------------


     EDDAV:  cpu time   59.9117: real time   60.1273
       DOS:  cpu time    0.0030: real time    0.0032
    --------------------------------------------
      LOOP:  cpu time   59.9147: real time   60.1304

 eigenvalue-minimisations  :  9408
 total energy-change (2. order) :-0.1230216E+04  (-0.9971584E+03)
 number of electron     778.0000000 magnetization     231.0000000
 augmentation part      778.0000000 magnetization     231.0000000

 Free energy of the ion-electron system (eV)
  ---------------------------------------------------
  alpha Z        PSCENC =      2238.96497515
  Ewald energy   TEWEN  =    223867.62915188
  -Hartree energ DENC   =   -296127.67469858
  -exchange      EXHF   =         0.00000000
  -V(xc)+E(xc)   XCENC  =      1387.85357367
  PAW double counting   =     64136.80006862   -66038.70876209
  entropy T*S    EENTRO =        -0.00297764
  eigenvalues    EBANDS =       -56.39030564
  atomic energy  EATOM  =     70218.65458108
  Solvation  Ediel_sol  =         0.00000000
  ---------------------------------------------------
  free energy    TOTEN  =      -372.87439356 eV

  energy without entropy =     -372.87141592  energy(sigma->0) =     -372.87340102


--------------------------------------------------------------------------------------------------------




--------------------------------------- Iteration      1(   4)  ---------------------------------------


     EDDAV:  cpu time   70.6883: real time   70.9111
       DOS:  cpu time    0.0029: real time    0.0064
    --------------------------------------------
      LOOP:  cpu time   70.6913: real time   70.9176

 eigenvalue-minimisations  : 11724
 total energy-change (2. order) :-0.1193674E+03  (-0.1096041E+03)
 number of electron     778.0000000 magnetization     231.0000000
 augmentation part      778.0000000 magnetization     231.0000000

 Free energy of the ion-electron system (eV)
  ---------------------------------------------------
  alpha Z        PSCENC =      2238.96497515
  Ewald energy   TEWEN  =    223867.62915188
  -Hartree energ DENC   =   -296127.67469858
  -exchange      EXHF   =         0.00000000
  -V(xc)+E(xc)   XCENC  =      1387.85357367
  PAW double counting   =     64136.80006862   -66038.70876209
  entropy T*S    EENTRO =         0.00597105
  eigenvalues    EBANDS =      -175.76660670
  atomic energy  EATOM  =     70218.65458108
  Solvation  Ediel_sol  =         0.00000000
  ---------------------------------------------------
  free energy    TOTEN  =      -492.24174593 eV

  energy without entropy =     -492.24771698  energy(sigma->0) =     -492.24373628


--------------------------------------------------------------------------------------------------------




--------------------------------------- Iteration      1(   5)  ---------------------------------------


     EDDAV:  cpu time   68.8421: real time   69.6939
       DOS:  cpu time    0.0047: real time    0.3176
    CHARGE:  cpu time    3.6831: real time    3.7065
    MIXING:  cpu time    0.0098: real time    0.0100
    --------------------------------------------
      LOOP:  cpu time   72.5398: real time   73.7281

 eigenvalue-minimisations  : 11160
 total energy-change (2. order) :-0.4427861E+01  (-0.4394226E+01)
 number of electron     778.0000033 magnetization     216.3032784
 augmentation part      335.0339448 magnetization     184.7775380

 Broyden mixing:
  rms(total) = 0.11862E+02    rms(broyden)= 0.11862E+02
  rms(prec ) = 0.12157E+02
  weight for this iteration     100.00

 Free energy of the ion-electron system (eV)
  ---------------------------------------------------
  alpha Z        PSCENC =      2238.96497515
  Ewald energy   TEWEN  =    223867.62915188
  -Hartree energ DENC   =   -296127.67469858
  -exchange      EXHF   =         0.00000000
  -V(xc)+E(xc)   XCENC  =      1387.85357367
  PAW double counting   =     64136.80006862   -66038.70876209
  entropy T*S    EENTRO =         0.00518996
  eigenvalues    EBANDS =      -180.19368695
  atomic energy  EATOM  =     70218.65458108
  Solvation  Ediel_sol  =         0.00000000
  ---------------------------------------------------
  free energy    TOTEN  =      -496.66960728 eV

  energy without entropy =     -496.67479724  energy(sigma->0) =     -496.67133727


--------------------------------------------------------------------------------------------------------




--------------------------------------- Iteration      1(   6)  ---------------------------------------


    POTLOK:  cpu time    0.3423: real time    0.3611
    SETDIJ:  cpu time    0.0322: real time    0.0324
    EDDIAG:  cpu time   10.5193: real time   10.5696
  RMM-DIIS:  cpu time   36.8172: real time   36.9292
    ORTHCH:  cpu time    1.1894: real time    1.1948
       DOS:  cpu time    0.0025: real time    0.0026
    CHARGE:  cpu time    3.5582: real time    3.5681
    MIXING:  cpu time    0.0111: real time    0.0116
    --------------------------------------------
      LOOP:  cpu time   52.4723: real time   52.6693

 eigenvalue-minimisations  :  9518
 total energy-change (2. order) :-0.1245660E+03  (-0.8910423E+02)
 number of electron     778.0000039 magnetization     212.0149411
 augmentation part      405.4819754 magnetization     179.3854962

 Broyden mixing:
  rms(total) = 0.18939E+02    rms(broyden)= 0.18939E+02
  rms(prec ) = 0.24399E+02
  weight for this iteration     100.00

 eigenvalues of (default mixing * dielectric matrix)
  average eigenvalue GAMMA=   0.2401
  0.2401

 Free energy of the ion-electron system (eV)
  ---------------------------------------------------
  alpha Z        PSCENC =      2238.96497515
  Ewald energy   TEWEN  =    223867.62915188
  -Hartree energ DENC   =   -294522.60162995
  -exchange      EXHF   =         0.00000000
  -V(xc)+E(xc)   XCENC  =      1343.13261504
  PAW double counting   =     69296.68379576   -70995.27811003
  entropy T*S    EENTRO =         0.00914531
  eigenvalues    EBANDS =     -2068.43011181
  atomic energy  EATOM  =     70218.65458108
  Solvation  Ediel_sol  =         0.00000000
  ---------------------------------------------------
  free energy    TOTEN  =      -621.23558759 eV

  energy without entropy =     -621.24473290  energy(sigma->0) =     -621.23863602


--------------------------------------------------------------------------------------------------------




--------------------------------------- Iteration      1(   7)  ---------------------------------------


    POTLOK:  cpu time    0.3479: real time    0.3502
    SETDIJ:  cpu time    0.0322: real time    0.0323
    EDDIAG:  cpu time   10.5703: real time   10.6023
  RMM-DIIS:  cpu time   36.4349: real time   36.5474
    ORTHCH:  cpu time    1.1893: real time    1.1924
       DOS:  cpu time    0.0025: real time    0.0025
    CHARGE:  cpu time    3.6624: real time    3.6725
    MIXING:  cpu time    0.0121: real time    0.0123
    --------------------------------------------
      LOOP:  cpu time   52.2515: real time   52.4118

 eigenvalue-minimisations  :  9422
 total energy-change (2. order) : 0.6632754E+02  (-0.1688640E+02)
 number of electron     778.0000036 magnetization     207.3531478
 augmentation part      363.6317636 magnetization     164.9892524

 Broyden mixing:
  rms(total) = 0.16163E+02    rms(broyden)= 0.16163E+02
  rms(prec ) = 0.22036E+02
  weight for this iteration     100.00

 eigenvalues of (default mixing * dielectric matrix)
  average eigenvalue GAMMA=   0.2750
  0.3881  0.1619

 Free energy of the ion-electron system (eV)
  ---------------------------------------------------
  alpha Z        PSCENC =      2238.96497515
  Ewald energy   TEWEN  =    223867.62915188
  -Hartree energ DENC   =   -295224.81633821
  -exchange      EXHF   =         0.00000000
  -V(xc)+E(xc)   XCENC  =      1364.02561573
  PAW double counting   =     70413.14992992   -72276.78859903
  entropy T*S    EENTRO =         0.01533589
  eigenvalues    EBANDS =     -1155.74270206
  atomic energy  EATOM  =     70218.65458108
  Solvation  Ediel_sol  =         0.00000000
  ---------------------------------------------------
  free energy    TOTEN  =      -554.90804967 eV

  energy without entropy =     -554.92338556  energy(sigma->0) =     -554.91316163


--------------------------------------------------------------------------------------------------------




--------------------------------------- Iteration      1(   8)  ---------------------------------------


    POTLOK:  cpu time    0.3489: real time    0.3510
    SETDIJ:  cpu time    0.0323: real time    0.0324
    EDDIAG:  cpu time   10.5540: real time   10.5862
  RMM-DIIS:  cpu time   36.5329: real time   36.6441
    ORTHCH:  cpu time    1.1990: real time    1.2021
       DOS:  cpu time    0.0026: real time    0.0026
    CHARGE:  cpu time    3.5647: real time    3.5745
    MIXING:  cpu time    0.0118: real time    0.0120
    --------------------------------------------
      LOOP:  cpu time   52.2461: real time   52.4049

 eigenvalue-minimisations  :  9424
 total energy-change (2. order) : 0.7616310E+02  (-0.9400880E+01)
 number of electron     778.0000036 magnetization     200.2230568
 augmentation part      369.8517173 magnetization     162.2124186

 Broyden mixing:
  rms(total) = 0.16137E+02    rms(broyden)= 0.16137E+02
  rms(prec ) = 0.18920E+02
  weight for this iteration     100.00

 eigenvalues of (default mixing * dielectric matrix)
  average eigenvalue GAMMA=   0.3074
  0.5856  0.2556  0.0811

 Free energy of the ion-electron system (eV)
  ---------------------------------------------------
  alpha Z        PSCENC =      2238.96497515
  Ewald energy   TEWEN  =    223867.62915188
  -Hartree energ DENC   =   -295518.46633720
  -exchange      EXHF   =         0.00000000
  -V(xc)+E(xc)   XCENC  =      1368.73255322
  PAW double counting   =     71646.26114116   -73577.21985990
  entropy T*S    EENTRO =         0.01245433
  eigenvalues    EBANDS =      -723.31360445
  atomic energy  EATOM  =     70218.65458108
  Solvation  Ediel_sol  =         0.00000000
  ---------------------------------------------------
  free energy    TOTEN  =      -478.74494472 eV

  energy without entropy =     -478.75739906  energy(sigma->0) =     -478.74909617


--------------------------------------------------------------------------------------------------------




--------------------------------------- Iteration      1(   9)  ---------------------------------------


    POTLOK:  cpu time    0.3485: real time    0.3505
    SETDIJ:  cpu time    0.0323: real time    0.0324
    EDDIAG:  cpu time   10.5708: real time   10.6058
  RMM-DIIS:  cpu time   36.5965: real time   36.7089
    ORTHCH:  cpu time    1.1928: real time    1.1966
       DOS:  cpu time    0.0025: real time    0.0025
    CHARGE:  cpu time    3.5841: real time    3.5999
    MIXING:  cpu time    0.0115: real time    0.0115
    --------------------------------------------
      LOOP:  cpu time   52.3389: real time   52.5081

 eigenvalue-minimisations  :  9441
 total energy-change (2. order) : 0.1124925E+03  (-0.1443855E+02)
 number of electron     778.0000035 magnetization     191.5760091
 augmentation part      371.6690691 magnetization     145.6456876

 Broyden mixing:
  rms(total) = 0.11867E+02    rms(broyden)= 0.11867E+02
  rms(prec ) = 0.13741E+02
  weight for this iteration     100.00

 eigenvalues of (default mixing * dielectric matrix)
  average eigenvalue GAMMA=   0.3722
  0.9038  0.3432  0.1540  0.0880

 Free energy of the ion-electron system (eV)
  ---------------------------------------------------
  alpha Z        PSCENC =      2238.96497515
  Ewald energy   TEWEN  =    223867.62915188
  -Hartree energ DENC   =   -295230.30245872
  -exchange      EXHF   =         0.00000000
  -V(xc)+E(xc)   XCENC  =      1384.79617843
  PAW double counting   =     73137.78255117   -75119.68901559
  entropy T*S    EENTRO =        -0.00372870
  eigenvalues    EBANDS =      -864.08472428
  atomic energy  EATOM  =     70218.65458108
  Solvation  Ediel_sol  =         0.00000000
  ---------------------------------------------------
  free energy    TOTEN  =      -366.25248960 eV

[...]
   0.864E+01 0.306E+02 -.293E+04   -.902E+01 -.307E+02 0.293E+04   0.324E+00 0.153E+00 -.257E+00   0.485E-01 -.321E-01 -.617E-02
   -.114E+02 0.645E+01 -.293E+04   0.110E+02 -.616E+01 0.293E+04   0.437E+00 -.321E+00 0.138E+01   -.387E-01 0.431E-01 -.960E-02
   -.107E+02 0.929E+01 -.290E+04   0.117E+02 -.100E+02 0.290E+04   -.890E+00 0.711E+00 0.706E+00   -.682E-01 0.583E-03 0.161E-01
   -.196E+02 -.915E+01 -.295E+04   0.197E+02 0.878E+01 0.295E+04   -.839E-01 0.363E+00 0.132E+01   0.134E-01 -.150E-01 -.366E-01
   0.870E+01 -.175E+02 -.292E+04   -.903E+01 0.176E+02 0.292E+04   0.384E+00 -.860E-01 0.178E+01   -.240E-01 -.896E-02 0.541E-01
   -.201E+02 -.394E+00 -.293E+04   0.201E+02 0.161E+01 0.293E+04   0.300E-01 -.120E+01 0.698E+00   0.242E-01 -.230E-01 -.422E-01
   -.101E+02 -.470E+00 -.289E+04   0.108E+02 0.861E+00 0.289E+04   -.590E+00 -.389E+00 0.158E+01   -.617E-01 0.205E-01 0.420E-02
   -.735E-01 -.424E+01 -.294E+04   0.330E+00 0.409E+01 0.294E+04   -.339E+00 0.163E+00 0.669E+00   0.472E-01 -.432E-01 0.191E-01
   -.764E+01 0.538E+01 -.292E+04   0.790E+01 -.560E+01 0.292E+04   -.277E+00 0.209E+00 0.100E+01   0.349E-01 -.177E-02 0.323E-02
   0.328E+01 -.196E+02 -.292E+04   -.356E+01 0.194E+02 0.292E+04   0.296E+00 0.245E+00 0.795E+00   -.161E-01 0.897E-02 0.163E-01
   0.190E+02 0.103E+02 -.293E+04   -.186E+02 -.102E+02 0.293E+04   -.423E+00 -.147E+00 0.133E+01   -.346E-01 0.153E-01 0.194E-01
   0.222E+02 -.151E+02 -.293E+04   -.220E+02 0.153E+02 0.293E+04   -.287E+00 -.189E+00 0.123E+01   0.504E-01 -.185E-01 -.371E-01
   -.216E+01 -.555E+00 -.290E+04   0.189E+01 -.225E+00 0.290E+04   0.292E+00 0.728E+00 0.108E+01   -.327E-01 0.496E-01 -.365E-02
   0.276E+02 -.935E+01 -.291E+04   -.278E+02 0.971E+01 0.291E+04   0.178E+00 -.360E+00 0.103E+01   0.566E-01 -.302E-01 -.107E-01
   0.699E+02 -.716E+02 -.153E+04   -.687E+02 0.718E+02 0.153E+04   -.126E+01 -.161E+00 0.175E+01   0.611E-01 -.460E-03 -.311E-01
   0.284E+02 -.416E+02 -.152E+04   -.296E+02 0.411E+02 0.152E+04   0.109E+01 0.437E+00 0.246E+01   0.458E-01 0.204E-01 -.230E-01
   0.332E+02 0.317E+02 0.304E+04   -.334E+02 -.319E+02 -.304E+04   0.121E+00 0.186E+00 -.239E+01   0.333E-01 -.950E-02 0.190E-01
   0.355E+02 -.839E+01 0.160E+04   -.364E+02 0.912E+01 -.160E+04   0.922E+00 -.658E+00 0.916E+00   0.404E-02 -.103E-01 0.165E-01
   -.667E+02 0.127E+02 -.149E+04   0.677E+02 -.122E+02 0.149E+04   -.806E+00 -.612E+00 0.265E+01   -.105E+00 0.672E-01 0.129E-01
   -.540E+02 0.512E+02 0.309E+04   0.547E+02 -.504E+02 -.309E+04   -.699E+00 -.865E+00 -.207E+01   -.328E-01 0.313E-01 0.896E-02
   0.333E+00 -.531E+02 0.159E+04   -.884E-02 0.526E+02 -.159E+04   -.318E+00 0.419E+00 -.776E+00   -.666E-01 0.315E-01 0.928E-02
   0.981E+01 0.317E+01 -.293E+04   -.997E+01 -.315E+01 0.293E+04   0.168E+00 -.955E-01 0.667E+00   -.149E-01 0.431E-01 -.818E-02
   -.230E+02 -.820E+01 0.973E+01   0.230E+02 0.850E+01 -.110E+02   0.412E-01 -.310E+00 0.122E+01   -.301E-01 -.445E-01 0.176E-01
   -.990E+01 0.894E+01 -.294E+04   0.941E+01 -.902E+01 0.293E+04   0.493E+00 0.124E+00 0.118E+01   0.318E-01 -.230E-01 0.105E-01
   0.195E+02 0.623E+02 0.260E+01   -.206E+02 -.635E+02 -.301E+01   0.113E+01 0.114E+01 0.373E+00   0.843E-01 0.170E-01 0.175E-01
   -.660E+02 0.779E+01 -.149E+04   0.664E+02 -.888E+01 0.149E+04   -.377E+00 0.126E+01 0.288E+01   0.118E-01 -.967E-01 0.550E-01
   0.280E+02 0.272E+02 -.154E+04   -.277E+02 -.264E+02 0.154E+04   -.309E+00 -.743E+00 0.233E+01   -.414E-01 -.623E-02 -.785E-02
   0.204E+02 -.630E+02 -.768E+02   -.213E+02 0.624E+02 0.772E+02   0.103E+01 0.525E+00 -.307E+00   -.686E-02 0.568E-01 -.204E-01
   -.233E+02 -.216E+02 0.500E+01   0.241E+02 0.224E+02 -.576E+01   -.818E+00 -.754E+00 0.685E+00   -.574E-02 -.126E+00 0.605E-01
   0.190E+02 0.135E+02 -.125E+04   -.192E+02 -.138E+02 0.125E+04   0.131E+00 0.423E+00 0.505E+00   0.233E-02 0.541E-03 0.378E-02
   -.599E+02 -.282E+01 0.244E+04   0.602E+02 0.149E+01 -.244E+04   -.386E+00 0.133E+01 -.272E+01   0.115E-01 0.235E-01 -.102E-01
   0.306E+02 -.142E+02 0.247E+04   -.305E+02 0.128E+02 -.247E+04   -.407E-01 0.148E+01 -.231E+01   -.211E-01 0.272E-02 0.153E-02
   0.229E+02 -.409E+01 0.247E+04   -.230E+02 0.467E+01 -.247E+04   0.155E+00 -.627E+00 -.284E+01   0.583E-02 0.888E-02 -.502E-02
   0.667E+01 0.524E+02 0.129E+04   -.581E+01 -.517E+02 -.129E+04   -.914E+00 -.704E+00 -.178E+00   0.577E-02 -.132E-01 0.975E-03
   0.336E+02 -.544E+02 0.128E+04   -.335E+02 0.541E+02 -.128E+04   -.132E+00 0.234E+00 -.408E+00   0.112E-01 0.464E-01 -.175E-01
   -.542E+02 -.244E+02 -.124E+04   0.544E+02 0.245E+02 0.124E+04   -.141E+00 -.197E+00 0.777E+00   -.481E-01 0.180E-01 -.251E-02
   -.933E+02 0.206E+02 0.248E+04   0.930E+02 -.203E+02 -.248E+04   0.256E+00 -.247E+00 -.266E+01   -.240E-01 -.148E-02 0.794E-02
   -.334E+02 0.465E+02 0.130E+04   0.326E+02 -.460E+02 -.130E+04   0.802E+00 -.542E+00 -.407E+00   -.606E-02 -.957E-02 0.938E-02
   -.428E+02 0.207E+01 -.437E+02   0.425E+02 -.161E+01 0.437E+02   0.203E+00 -.441E+00 -.113E+00   0.275E-01 -.625E-01 0.230E-01
   0.138E+02 -.802E+02 -.124E+04   -.140E+02 0.800E+02 0.124E+04   0.190E+00 0.205E+00 0.113E+01   -.180E-02 0.524E-01 0.954E-02
   0.127E+02 0.299E+02 -.123E+04   -.128E+02 -.298E+02 0.123E+04   0.114E+00 -.513E-01 0.407E+00   0.133E-01 -.701E-01 0.929E-02
   0.146E+02 -.465E+02 0.245E+04   -.153E+02 0.458E+02 -.245E+04   0.692E+00 0.702E+00 -.274E+01   0.827E-03 0.161E-01 0.261E-02
   0.436E+01 -.196E+02 0.276E+04   -.444E+01 0.199E+02 -.275E+04   0.885E-01 -.215E+00 -.230E+01   -.379E-02 -.420E-01 -.448E-01
   0.119E+03 0.292E+02 0.279E+04   -.120E+03 -.285E+02 -.279E+04   0.450E+00 -.692E+00 -.238E+01   0.121E-01 0.114E-01 0.157E-01
   -.369E+02 -.278E+02 0.142E+04   0.364E+02 0.266E+02 -.142E+04   0.450E+00 0.110E+01 -.437E+00   0.335E-01 0.870E-01 -.597E-01
   -.620E+02 0.655E+02 0.213E+02   0.620E+02 -.654E+02 -.222E+02   -.197E-01 -.202E+00 0.834E+00   0.381E-01 0.121E-01 0.894E-02
   -.886E+02 0.185E+02 0.141E+04   0.881E+02 -.181E+02 -.141E+04   0.509E+00 -.483E+00 -.109E+00   0.581E-01 -.118E-01 -.516E-01
   -.210E+02 0.990E+01 0.139E+04   0.211E+02 -.101E+02 -.139E+04   -.136E+00 0.269E+00 -.960E-01   -.473E-02 -.719E-01 -.438E-02
   0.483E+02 0.479E+01 -.140E+04   -.481E+02 -.494E+01 0.140E+04   -.230E+00 0.223E+00 0.150E+01   -.595E-01 -.241E-01 0.328E-01
   0.530E+02 -.808E+02 0.277E+04   -.527E+02 0.806E+02 -.276E+04   -.363E+00 0.215E+00 -.241E+01   -.264E-01 0.888E-02 -.187E-01
   -.140E+02 0.179E+01 0.138E+04   0.141E+02 -.155E+01 -.138E+04   -.862E-01 -.238E+00 -.411E+00   0.448E-02 -.129E-01 -.526E-01
   0.190E+02 -.680E+02 -.170E+02   -.181E+02 0.674E+02 0.173E+02   -.829E+00 0.633E+00 -.344E+00   -.555E-01 0.422E-01 -.377E-01
   0.307E+02 0.341E+02 0.344E+04   -.309E+02 -.333E+02 -.344E+04   0.104E+00 -.838E+00 -.360E+01   0.835E-02 -.240E-01 0.644E-02
   0.628E+02 0.885E+01 0.174E+04   -.630E+02 -.954E+01 -.174E+04   0.116E+00 0.703E+00 -.164E+00   0.304E-01 0.113E-01 0.735E-02
   0.102E+03 -.322E+02 0.172E+04   -.102E+03 0.322E+02 -.172E+04   -.201E+00 0.142E-01 -.288E-02   -.385E-02 -.852E-02 0.394E-02
   0.118E+02 0.712E+02 0.797E+02   -.125E+02 -.712E+02 -.805E+02   0.636E+00 -.169E+00 0.767E+00   0.714E-01 0.672E-01 -.272E-01
   0.102E+02 0.579E+02 -.172E+04   -.968E+01 -.576E+02 0.172E+04   -.637E+00 -.301E+00 0.157E+01   0.806E-01 0.139E-01 -.205E-01
   -.402E+02 0.305E+02 -.167E+04   0.393E+02 -.302E+02 0.167E+04   0.102E+01 -.284E+00 0.235E+01   0.358E-01 -.146E-01 0.561E-01
   -.723E+01 0.996E+02 0.339E+04   0.734E+01 -.100E+03 -.339E+04   -.139E+00 0.424E+00 -.288E+01   -.613E-03 0.838E-02 0.189E-01
   -.166E+02 -.780E+02 0.342E+04   0.156E+02 0.777E+02 -.342E+04   0.912E+00 0.321E+00 -.266E+01   0.500E-01 0.329E-01 -.288E-01
   0.107E+03 0.684E+01 -.702E+02   -.107E+03 -.663E+01 0.703E+02   0.267E-01 -.317E+00 -.268E+00   -.418E-02 -.115E-02 -.504E-02
   -.113E+03 -.409E+02 0.401E+02   0.113E+03 0.408E+02 -.402E+02   0.377E+00 0.159E+00 0.102E+00   -.491E-01 0.429E-02 0.317E-01
   -.133E+02 0.530E+02 0.181E+04   0.128E+02 -.525E+02 -.181E+04   0.434E+00 -.571E+00 -.620E+00   0.166E-01 0.453E-01 0.363E-02
   0.608E+01 -.720E+02 0.470E+02   -.575E+01 0.710E+02 -.478E+02   -.339E+00 0.123E+01 0.636E+00   0.400E-01 -.361E-01 0.267E-01
   0.553E+02 -.359E+02 0.346E+01   -.548E+02 0.354E+02 -.371E+01   -.636E+00 0.434E+00 0.346E+00   0.191E-01 0.135E-01 -.317E-01
   -.733E+02 0.136E+01 0.155E+04   0.729E+02 -.116E+01 -.155E+04   0.403E+00 -.733E-01 -.102E+00   0.133E-01 -.700E-01 -.112E-01
   -.123E+02 0.197E+02 0.162E+04   0.126E+02 -.199E+02 -.162E+04   -.349E+00 0.220E+00 -.452E+00   -.284E-01 0.348E-01 -.670E-02
   -.101E+03 -.431E+01 0.309E+04   0.101E+03 0.441E+01 -.308E+04   -.539E+00 -.339E-01 -.130E+01   0.227E-01 -.319E-01 -.384E-01
   0.702E+02 -.525E+02 0.309E+04   -.705E+02 0.531E+02 -.309E+04   0.369E+00 -.592E+00 -.868E+00   -.275E-01 -.183E-01 -.629E-02
   0.149E+02 -.406E+02 0.155E+04   -.145E+02 0.404E+02 -.155E+04   -.411E+00 0.243E+00 0.210E-02   -.668E-01 -.246E-01 -.211E-02
   0.511E+02 0.232E+01 0.159E+04   -.506E+02 -.230E+01 -.159E+04   -.483E+00 0.466E-01 -.108E+00   -.104E-01 -.144E-01 0.966E-02
   -.382E+02 -.672E+02 -.155E+04   0.381E+02 0.671E+02 0.155E+04   0.124E+00 0.661E-01 0.746E+00   0.212E-01 -.296E-01 0.621E-02
   -.540E+02 0.297E+02 0.307E+04   0.544E+02 -.291E+02 -.307E+04   -.424E+00 -.614E+00 -.193E+01   0.121E-01 -.330E-01 -.543E-02
   -.440E+02 0.731E+02 0.727E+02   0.444E+02 -.729E+02 -.727E+02   -.358E+00 -.322E+00 -.279E-01   -.335E-01 0.254E-01 0.677E-02
   -.367E+00 0.608E+02 -.140E+01   0.347E+00 -.600E+02 0.132E+01   0.103E+00 -.864E+00 -.366E-01   -.427E-01 -.305E-01 0.148E-02
   0.479E+02 0.339E+01 -.324E+02   -.474E+02 -.276E+01 0.323E+02   -.420E+00 -.612E+00 0.586E-01   -.842E-01 -.147E-01 -.108E-01
   0.238E+02 -.494E+02 0.345E+02   -.241E+02 0.489E+02 -.346E+02   0.294E+00 0.479E+00 0.136E+00   0.299E-01 0.818E-01 -.441E-01
   -.455E+01 -.151E+01 -.350E+03   0.486E+01 0.166E+01 0.351E+03   -.334E+00 -.162E+00 -.169E+01   0.122E-02 -.310E-02 -.524E-02
 -----------------------------------------------------------------------------------------------
   -.130E+01 -.460E+00 -.480E+01   -.691E-12 -.409E-12 -.203E-10   0.124E+01 0.472E+00 0.485E+01   0.674E-01 -.181E-01 -.828E-01
 
 
 POSITION                                       TOTAL-FORCE (eV/Angst)
 -----------------------------------------------------------------------------------
     12.96712      8.04192      7.00227         0.003353      0.009035     -0.004868
      5.11069      8.07784      6.95612         0.008610      0.003698      0.012396
      4.95996      3.48068      7.03426         0.002830      0.002232      0.005534
     14.28742      8.78194      9.41966        -0.017006     -0.003921      0.008783
      3.73155      4.22694      9.43436        -0.006990      0.000404     -0.020228
      6.41781      8.78147      9.32574        -0.001913      0.000027      0.000192
     11.66459      4.21113      9.37983        -0.011320      0.001460      0.002313
      9.02708      8.78184      9.24214         0.005026     -0.004060     -0.004463
     10.34881      1.95961      9.31212        -0.005514      0.009286      0.001270
      2.45546      1.94060      9.28366         0.004231     -0.003988     -0.001643
     11.66437      8.78509      9.33357         0.005014      0.008418     -0.009602
     12.98194      6.49539      9.39092         0.005931     -0.019887     -0.027472
      5.06260      1.91322      9.35436        -0.000083      0.006253      0.001942
      7.72769      6.51081      9.32659         0.005184     -0.018438     -0.012747
      9.04155      4.22416      9.29625         0.009529      0.000112      0.003872
      5.06621      6.48039      9.35911         0.000468      0.008456      0.016464
      7.69680      1.93281      9.26681         0.013451     -0.002172      0.016984
      7.77746      3.43376      6.97267         0.002061      0.011935      0.002421
      6.30197      1.13696      6.92970         0.009684     -0.016017      0.003077
      6.42858      1.12974      0.87872        -0.014356     -0.006835     -0.000326
      3.70548      4.20844      2.81687         0.017484      0.007352     -0.027811
      1.17150      1.25122      6.91625        -0.010499     -0.005893      0.013243
      1.13569      1.19080      0.72557        -0.006425      0.012615     -0.001790
      6.43607      8.76100      2.90031        -0.012758      0.010933      0.008497
      6.39604      4.22230      9.38737        -0.002168     -0.020551     -0.009053
      7.68135      4.99073      4.81474         0.022748     -0.005456     -0.043604
     10.33255      6.50855      9.31658         0.002324     -0.012373      0.011864
     14.26424      7.22593      4.86299         0.022859      0.015278      0.036095
     11.67718      5.69857      7.01952        -0.001112     -0.009632     -0.000908
      6.41589      5.77403      7.00056        -0.012197      0.005652      0.014446
      3.62119      2.56589      4.96023         0.026385      0.011367     -0.017023
     10.36091      5.02430      4.85652         0.031215     -0.007212     -0.024817
      3.75763      5.76606      7.15523         0.013037      0.002673      0.008249
     12.96907      7.87977      0.92567        -0.008547     -0.002381      0.002206
      5.16340      7.91719      0.83030         0.014797      0.017773      0.004837
      3.80701      5.74502      0.81381         0.010826     -0.008659     -0.011072
      7.79852      2.03245      2.83251        -0.028062     -0.006651     -0.002058
      9.07755      8.73373      2.85743        -0.007141      0.006099      0.012681
      2.40285      3.50755      7.13637        -0.004132     -0.000392      0.008841
      2.34409      3.49051      0.82510         0.010369      0.006657     -0.017896
     10.34814      1.96983      2.82249        -0.022509      0.005571      0.006410
     12.96035      4.98587      4.92559        -0.013880     -0.017180     -0.027813
      3.73849      1.06304      7.06650         0.008893      0.000921      0.005004
      9.03489      5.76240      7.08195        -0.004964     -0.001135      0.007911
      3.74824      1.09182      0.86700        -0.008812      0.008039     -0.009506
      9.09121      5.71867      0.96043        -0.013627      0.008534     -0.018620
      5.12448      3.47045      0.85563        -0.000690      0.028283      0.004305
     11.62092      8.68758      2.90590        -0.007481      0.006090      0.025017
     11.65313      7.26450      4.84229        -0.008129     -0.027064     -0.081204
     12.86756      6.45280      2.83379         0.024335      0.012959      0.008019
      9.04201      4.20780      2.79628         0.012038      0.006852     -0.010535
      7.77036      8.00740      6.99326        -0.004582      0.000593     -0.004523
      7.81315      7.93922      0.88653        -0.009959      0.002139      0.000406
     10.39144      6.53566      2.82198         0.027146      0.009069      0.047601
      2.51347      0.25826      5.00083        -0.002141      0.013319      0.024839
      7.74264      3.48454      0.76157         0.000952     -0.006093      0.004259
      5.07835      1.87760      2.91701        -0.004878     -0.007574     -0.007646
      5.16037      6.44715      2.89923        -0.013048     -0.005375     -0.014470
      7.70892      0.45986      4.84799         0.019467     -0.012835      0.060150
      9.06663      1.18794      6.99368         0.001504     -0.006147     -0.016295
     10.29969      7.98670      6.96936        -0.004263      0.005327     -0.000132
      9.06162      1.12592      0.75976        -0.012045     -0.005177     -0.003590
     10.36348      7.96081      0.78972        -0.020265     -0.003735      0.020522
      5.05436      4.96422      4.93175        -0.003939     -0.028270     -0.016068
     11.61467      2.71359      4.86843        -0.006909      0.001406      0.029519
     14.29598      8.81469      2.83748        -0.001042     -0.000349     -0.006566
      9.07350      2.65252      4.91360         0.031946     -0.045117     -0.004034
      6.37169      2.66558      4.85827        -0.012098      0.002917      0.006398
     11.65891      4.17486      2.81483        -0.017822     -0.000604     -0.023027
      2.44098      1.89237      2.83279        -0.004962      0.014699      0.004306
     11.64953      5.68621      0.88546         0.004551      0.031007     -0.003899
      6.44743      5.71949      0.92597        -0.003266      0.014602     -0.009215
      7.82927      6.50651      2.83621        -0.024255      0.014334     -0.010457
      6.41922      4.13007      2.78290        -0.005978      0.006148     -0.011020
     10.38032      3.47131      7.05407         0.006709     -0.007608      0.010981
     10.34410      3.45013      0.86804        -0.000443     -0.015377     -0.016135
     10.37063      0.48410      4.87151        -0.026969     -0.007278      0.036087
      9.04079      7.29017      4.93700         0.017731     -0.015043      0.001091
      6.46265      7.29503      4.94074         0.029459      0.027373      0.001918
      5.04247      0.27633      4.88406         0.000191      0.006627      0.011968
     10.29929      0.40367     10.37584        -0.023160     -0.018044      0.019224
 -----------------------------------------------------------------------------------
    total drift:                                0.003348     -0.005422     -0.028847


--------------------------------------------------------------------------------------------------------



  FREE ENERGIE OF THE ION-ELECTRON SYSTEM (eV)
  ---------------------------------------------------
  free  energy   TOTEN  =      -511.06784875 eV

  energy  without entropy=     -511.08529788  energy(sigma->0) =     -511.07366513
 
 d Force = 0.8672753E-03[ 0.393E-03, 0.134E-02]  d Energy = 0.9104757E-03-0.432E-04
 d Force =-0.7514167E+01[-0.752E+01,-0.751E+01]  d Ewald  =-0.7514169E+01 0.172E-05


--------------------------------------------------------------------------------------------------------


    POTLOK:  cpu time    0.3810: real time    0.3825


--------------------------------------------------------------------------------------------------------


 Conjugate gradient step on ions:
 trial-energy change:   -0.000910  1 .order   -0.000867   -0.001341   -0.000393
  (g-gl).g = 0.138E-02      g.g   = 0.123E-02  gl.gl    = 0.142E-02
 g(Force)  = 0.123E-02   g(Stress)= 0.000E+00 ortho     =-0.154E-03
 gamma     =   0.96970
 trial     =   1.23600
 opt step  =   1.61399  (harmonic =   1.74898) maximal distance =0.00915045
 next E    =  -511.067910   (d E  =  -0.00097)


--------------------------------------------------------------------------------------------------------


  
 reached required accuracy - stopping structural energy minimisation
     LOOP+:  cpu time  543.2260: real time  547.3477
    4ORBIT:  cpu time    0.0000: real time    0.0000

 total amount of memory used by VASP MPI-rank0   230614. kBytes
=======================================================================

   base      :      30000. kBytes
   nonlr-proj:      34700. kBytes
   fftplans  :      16129. kBytes
   grid      :      49182. kBytes
   one-center:        653. kBytes
   wavefun   :      99950. kBytes
 
  
  
 General timing and accounting informations for this job:
 ========================================================
  
                  Total CPU time used (sec):    12850.477
                            User time (sec):    12515.426
                          System time (sec):      335.050
                         Elapsed time (sec):    12921.442
  
                   Maximum memory used (kb):      418692.
                   Average memory used (kb):           0.
  
                          Minor page faults:      3070956
                          Major page faults:          248
                 Voluntary context switches:         8791
