 vasp.5.4.4.18Apr17-6-g9f103f2a35 (build Oct 25 2019 11:13:22) complex          
  
 executed on             LinuxIFC date 2022.02.12  05:50:24
 running on   48 total cores
 distrk:  each k-point on   48 cores,    1 groups
 distr:  one band on NCORES_PER_BAND=   4 cores,   12 groups


--------------------------------------------------------------------------------------------------------


 INCAR:
 POTCAR:    PAW_PBE Pt 04Feb2005                  
 POTCAR:    PAW_PBE Co 02Aug2007                  
 POTCAR:    PAW_PBE Ni 02Aug2007                  
 POTCAR:    PAW_PBE H 15Jun2001                   
 POTCAR:    PAW_PBE Pt 04Feb2005                  
   VRHFIN =Pt: s1d9                                                             
   LEXCH  = PE                                                                  
   EATOM  =   729.1176 eV,   53.5886 Ry                                         
                                                                                
   TITEL  = PAW_PBE Pt 04Feb2005                                                
   LULTRA =        F    use ultrasoft PP ?                                      
   IUNSCR =        1    unscreen: 0-lin 1-nonlin 2-no                           
   RPACOR =    2.330    partial core radius                                     
   POMASS =  195.080; ZVAL   =   10.000    mass and valenz                      
   RCORE  =    2.600    outmost cutoff radius                                   
   RWIGS  =    2.750; RWIGS  =    1.455    wigner-seitz radius (au A)           
   ENMAX  =  230.283; ENMIN  =  172.712 eV                                      
   ICORE  =        3    local potential                                         
   LCOR   =        T    correct aug charges                                     
   LPAW   =        T    paw PP                                                  
   EAUG   =  358.966                                                            
   DEXC   =    0.000                                                            
   RMAX   =    2.658    core radius for proj-oper                               
   RAUG   =    1.300    factor for augmentation sphere                          
   RDEP   =    2.761    radius for radial grids                                 
   RDEPT  =    2.203    core radius for aug-charge                              
                                                                                
   Atomic configuration                                                         
   16 entries                                                                   
     n  l   j            E        occ.                                          
     1  0  0.50    -78401.1885   2.0000                                         
     2  0  0.50    -13770.7750   2.0000                                         
     2  1  1.50    -11931.0468   6.0000                                         
     3  0  0.50     -3234.7234   2.0000                                         
     3  1  1.50     -2699.2216   6.0000                                         
     3  2  2.50     -2119.5714  10.0000                                         
     4  0  0.50      -695.1528   2.0000                                         
     4  1  1.50      -519.6034   6.0000                                         
     4  2  2.50      -306.6786  10.0000                                         
     4  3  3.50       -70.1041  14.0000                                         
     5  0  0.50      -101.7747   2.0000                                         
     5  1  1.50       -55.9873   6.0000                                         
     5  2  2.50        -6.1423   9.0000                                         
     6  0  0.50        -5.6573   1.0000                                         
     6  1  1.50        -6.8029   0.0000                                         
     5  3  2.50        -1.3606   0.0000                                         
   Description                                                                  
     l       E           TYP  RCUT    TYP  RCUT                                 
     2     -6.1423404     23  2.500                                             
     2     -7.5029230     23  2.500                                             
     0     -5.6573207     23  2.500                                             
     0      0.7416693     23  2.500                                             
     1     -2.7211652     23  2.600                                             
     1     20.4087390     23  2.600                                             
     3     -1.3605826     23  2.500                                             
  local pseudopotential read in
  partial core-charges read in
  partial kinetic energy density read in
  atomic valenz-charges read in
  non local Contribution for L=           2  read in
    real space projection operators read in
  non local Contribution for L=           2  read in
    real space projection operators read in
  non local Contribution for L=           0  read in
    real space projection operators read in
  non local Contribution for L=           0  read in
    real space projection operators read in
  non local Contribution for L=           1  read in
    real space projection operators read in
  non local Contribution for L=           1  read in
    real space projection operators read in
    PAW grid and wavefunctions read in
 
   number of l-projection  operators is LMAX  =           6
   number of lm-projection operators is LMMAX =          18
 
 POTCAR:    PAW_PBE Co 02Aug2007                  
   VRHFIN =Co: d8 s1                                                            
   LEXCH  = PE                                                                  
   EATOM  =   813.3670 eV,   59.7808 Ry                                         
                                                                                
   TITEL  = PAW_PBE Co 02Aug2007                                                
   LULTRA =        F    use ultrasoft PP ?                                      
   IUNSCR =        1    unscreen: 0-lin 1-nonlin 2-no                           
   RPACOR =    2.000    partial core radius                                     
   POMASS =   58.933; ZVAL   =    9.000    mass and valenz                      
   RCORE  =    2.300    outmost cutoff radius                                   
   RWIGS  =    2.460; RWIGS  =    1.302    wigner-seitz radius (au A)           
   ENMAX  =  267.968; ENMIN  =  200.976 eV                                      
   RCLOC  =    1.203    cutoff for local pot                                    
   LCOR   =        T    correct aug charges                                     
   LPAW   =        T    paw PP                                                  
   EAUG   =  477.818                                                            
   DEXC   =    0.000                                                            
   RMAX   =    2.360    core radius for proj-oper                               
   RAUG   =    1.300    factor for augmentation sphere                          
   RDEP   =    2.393    radius for radial grids                                 
   RDEPT  =    1.864    core radius for aug-charge                              
                                                                                
   Atomic configuration                                                         
    9 entries                                                                   
     n  l   j            E        occ.                                          
     1  0  0.50     -7587.6674   2.0000                                         
     2  0  0.50      -893.6084   2.0000                                         
     2  1  1.50      -764.5805   6.0000                                         
     3  0  0.50       -97.5973   2.0000                                         
     3  1  1.50       -60.9648   6.0000                                         
     3  2  2.50        -4.2382   8.0000                                         
     4  0  0.50        -4.3746   1.0000                                         
     4  1  1.50        -4.0817   0.0000                                         
     4  3  2.50        -1.3606   0.0000                                         
   Description                                                                  
     l       E           TYP  RCUT    TYP  RCUT                                 
     2     -4.2382362     23  2.300                                             
     2     -5.5988188     23  2.300                                             
     0     -4.3745797     23  2.300                                             
     0      5.7660125     23  2.300                                             
     1     -2.7211652     23  2.300                                             
     1     16.9860234     23  2.300                                             
  local pseudopotential read in
  partial core-charges read in
  partial kinetic energy density read in
  atomic valenz-charges read in
  non local Contribution for L=           2  read in
    real space projection operators read in
  non local Contribution for L=           2  read in
    real space projection operators read in
  non local Contribution for L=           0  read in
    real space projection operators read in
  non local Contribution for L=           0  read in
    real space projection operators read in
  non local Contribution for L=           1  read in
    real space projection operators read in
  non local Contribution for L=           1  read in
    real space projection operators read in
    PAW grid and wavefunctions read in
 
   number of l-projection  operators is LMAX  =           6
   number of lm-projection operators is LMMAX =          18
 
 POTCAR:    PAW_PBE Ni 02Aug2007                  
   VRHFIN =Ni:                                                                  
   LEXCH  = PE                                                                  
   EATOM  =  1077.6739 eV,   79.2068 Ry                                         
                                                                                
   TITEL  = PAW_PBE Ni 02Aug2007                                                
   LULTRA =        F    use ultrasoft PP ?                                      
   IUNSCR =        1    unscreen: 0-lin 1-nonlin 2-no                           
   RPACOR =    2.000    partial core radius                                     
   POMASS =   58.690; ZVAL   =   10.000    mass and valenz                      
   RCORE  =    2.300    outmost cutoff radius                                   
   RWIGS  =    2.430; RWIGS  =    1.286    wigner-seitz radius (au A)           
   ENMAX  =  269.532; ENMIN  =  202.149 eV                                      
   RCLOC  =    1.201    cutoff for local pot                                    
   LCOR   =        T    correct aug charges                                     
   LPAW   =        T    paw PP                                                  
   EAUG   =  544.565                                                            
   DEXC   =    0.000                                                            
   RMAX   =    2.357    core radius for proj-oper                               
   RAUG   =    1.300    factor for augmentation sphere                          
   RDEP   =    2.390    radius for radial grids                                 
   RDEPT  =    1.838    core radius for aug-charge                              
                                                                                
   Atomic configuration                                                         
    9 entries                                                                   
     n  l   j            E        occ.                                          
     1  0  0.50     -8206.4253   2.0000                                         
     2  0  0.50      -976.1748   2.0000                                         
     2  1  1.50      -839.0571   6.0000                                         
     3  0  0.50      -105.9991   2.0000                                         
     3  1  1.50       -66.4603   6.0000                                         
     3  2  2.50        -4.6458   9.0000                                         
     4  0  0.50        -4.4926   1.0000                                         
     4  1  1.50        -4.0817   0.0000                                         
     4  3  2.50        -1.3606   0.0000                                         
   Description                                                                  
     l       E           TYP  RCUT    TYP  RCUT                                 
     2     -4.6457903     23  2.300                                             
     2     -6.0063729     23  2.300                                             
     0     -4.4925590     23  2.300                                             
     0      5.0102601     23  2.300                                             
     1     -2.7211652     23  2.300                                             
     1     16.5183231     23  2.300                                             
  local pseudopotential read in
  partial core-charges read in
  partial kinetic energy density read in
  atomic valenz-charges read in
  non local Contribution for L=           2  read in
    real space projection operators read in
  non local Contribution for L=           2  read in
    real space projection operators read in
  non local Contribution for L=           0  read in
    real space projection operators read in
  non local Contribution for L=           0  read in
    real space projection operators read in
  non local Contribution for L=           1  read in
    real space projection operators read in
  non local Contribution for L=           1  read in
    real space projection operators read in
    PAW grid and wavefunctions read in
 
   number of l-projection  operators is LMAX  =           6
   number of lm-projection operators is LMMAX =          18
 
 POTCAR:    PAW_PBE H 15Jun2001                   
   VRHFIN =H: ultrasoft test                                                    
   LEXCH  = PE                                                                  
   EATOM  =    12.4884 eV,    0.9179 Ry                                         
                                                                                
   TITEL  = PAW_PBE H 15Jun2001                                                 
   LULTRA =        F    use ultrasoft PP ?                                      
   IUNSCR =        0    unscreen: 0-lin 1-nonlin 2-no                           
   RPACOR =    0.000    partial core radius                                     
   POMASS =    1.000; ZVAL   =    1.000    mass and valenz                      
   RCORE  =    1.100    outmost cutoff radius                                   
   RWIGS  =    0.700; RWIGS  =    0.370    wigner-seitz radius (au A)           
   ENMAX  =  250.000; ENMIN  =  200.000 eV                                      
   RCLOC  =    0.701    cutoff for local pot                                    
   LCOR   =        T    correct aug charges                                     
   LPAW   =        T    paw PP                                                  
   EAUG   =  400.000                                                            
   RMAX   =    1.123    core radius for proj-oper                               
   RAUG   =    1.200    factor for augmentation sphere                          
   RDEP   =    1.112    radius for radial grids                                 
   RDEPT  =    0.926    core radius for aug-charge                              
                                                                                
   Atomic configuration                                                         
    2 entries                                                                   
     n  l   j            E        occ.                                          
     1  0  0.50        -6.4927   1.0000                                         
     2  1  0.50        -3.4015   0.0000                                         
   Description                                                                  
     l       E           TYP  RCUT    TYP  RCUT                                 
     0     -6.4927494     23  1.100                                             
     0      6.8029130     23  1.100                                             
     1     -4.0817478     23  1.100                                             
  local pseudopotential read in
  atomic valenz-charges read in
  non local Contribution for L=           0  read in
    real space projection operators read in
  non local Contribution for L=           0  read in
    real space projection operators read in
  non local Contribution for L=           1  read in
    real space projection operators read in
    PAW grid and wavefunctions read in
 
   number of l-projection  operators is LMAX  =           3
   number of lm-projection operators is LMMAX =           5
 
 Optimization of the real space projectors (new method)

 maximal supplied QI-value         = 14.36
 optimisation between [QCUT,QGAM] = [ 11.92, 23.98] = [ 39.79,161.09] Ry 
 Optimized for a Real-space Cutoff    1.49 Angstroem

   l    n(q)    QCUT    max X(q) W(low)/X(q) W(high)/X(q)  e(spline) 
   2     10    11.920    66.195    0.79E-04    0.18E-03    0.24E-06
   2     10    11.920    64.643    0.81E-04    0.19E-03    0.24E-06
   0     11    11.920    95.520    0.28E-04    0.54E-04    0.18E-06
   0     11    11.920    63.403    0.27E-04    0.52E-04    0.17E-06
   1     10    11.920    19.961    0.18E-04    0.11E-03    0.23E-06
   1     10    11.920    13.289    0.25E-04    0.87E-04    0.19E-06
 Optimization of the real space projectors (new method)

 maximal supplied QI-value         = 16.25
 optimisation between [QCUT,QGAM] = [ 11.86, 23.89] = [ 39.41,159.82] Ry 
 Optimized for a Real-space Cutoff    1.33 Angstroem

   l    n(q)    QCUT    max X(q) W(low)/X(q) W(high)/X(q)  e(spline) 
   2      9    11.864    65.824    0.22E-03    0.53E-03    0.26E-06
   2      9    11.864    61.429    0.22E-03    0.53E-03    0.26E-06
   0      9    11.864    56.174    0.21E-03    0.32E-04    0.15E-06
   0      9    11.864    31.263    0.19E-03    0.30E-04    0.14E-06
   1      9    11.864    19.828    0.63E-04    0.30E-03    0.16E-06
   1      9    11.864    15.139    0.49E-04    0.25E-03    0.13E-06
 Optimization of the real space projectors (new method)

 maximal supplied QI-value         = 16.25
 optimisation between [QCUT,QGAM] = [ 11.86, 23.89] = [ 39.41,159.82] Ry 
 Optimized for a Real-space Cutoff    1.33 Angstroem

   l    n(q)    QCUT    max X(q) W(low)/X(q) W(high)/X(q)  e(spline) 
   2      9    11.864    60.317    0.21E-03    0.51E-03    0.25E-06
   2      9    11.864    55.921    0.21E-03    0.51E-03    0.26E-06
   0      9    11.864    51.690    0.22E-03    0.30E-04    0.17E-06
   0      9    11.864    30.015    0.20E-03    0.28E-04    0.15E-06
   1      9    11.864    18.849    0.76E-04    0.33E-03    0.17E-06
   1      9    11.864    14.624    0.60E-04    0.28E-03    0.15E-06
 Optimization of the real space projectors (new method)

 maximal supplied QI-value         = 34.20
 optimisation between [QCUT,QGAM] = [ 11.97, 23.94] = [ 40.13,160.53] Ry 
 Optimized for a Real-space Cutoff    1.18 Angstroem

   l    n(q)    QCUT    max X(q) W(low)/X(q) W(high)/X(q)  e(spline) 
   0      8    11.971    19.460    0.15E-03    0.31E-03    0.25E-06
   0      8    11.971    12.209    0.13E-03    0.29E-03    0.25E-06
   1      8    11.971     4.655    0.22E-03    0.24E-03    0.21E-06
  PAW_PBE Pt 04Feb2005                  :
 energy of atom  1       EATOM= -729.1176
 kinetic energy error for atom=    0.0021 (will be added to EATOM!!)
  PAW_PBE Co 02Aug2007                  :
 energy of atom  2       EATOM= -813.3670
 kinetic energy error for atom=    0.0026 (will be added to EATOM!!)
  PAW_PBE Ni 02Aug2007                  :
 energy of atom  3       EATOM=-1077.6739
 kinetic energy error for atom=    0.0027 (will be added to EATOM!!)
  PAW_PBE H 15Jun2001                   :
 energy of atom  4       EATOM=  -12.4884
 kinetic energy error for atom=    0.0008 (will be added to EATOM!!)
 
 
 POSCAR: 11.26                                   
  positions in direct lattice
  velocities in cartesian coordinates
 exchange correlation table for  LEXCH =        8
   RHO(1)=    0.500       N(1)  =     2000
   RHO(2)=  100.500       N(2)  =     4000
 


--------------------------------------------------------------------------------------------------------


 ion  position               nearest neighbor table
   1  0.789  0.879  0.301-  49 2.47  59 2.56  60 2.64  28 2.69   4 2.73   2 2.74  29 2.75  19 2.80
                            11 2.85  12 2.85  61 2.89  33 2.94
   2  0.033  0.879  0.293-  79 2.49  77 2.57  60 2.72   1 2.74  28 2.76   4 2.81   6 2.89  30 2.90
                            16 2.94  33 2.99  22 3.17  52 3.23
   3  0.276  0.362  0.311-  64 2.54  68 2.62  31 2.63  39 2.67  33 2.70   5 2.71  30 2.76  13 2.76
                            25 2.78  19 2.81  43 2.82  18 2.87
   4  0.875  0.964  0.400-  60 2.71   9 2.72  17 2.72   1 2.73   6 2.79  16 2.79  12 2.81   2 2.81
                            11 2.83
   5  0.113  0.467  0.410-  39 2.60  33 2.70   3 2.71  12 2.72  16 2.73  10 2.76   7 2.77  25 2.85
                            13 2.98
   6  0.125  0.959  0.400-  52 2.62  22 2.70   4 2.79   8 2.83  16 2.86   9 2.88   2 2.89  10 2.90
                            14 2.91
   7  0.873  0.455  0.412-  75 2.54  39 2.58   5 2.77  10 2.79  27 2.80   9 2.80  29 2.82  15 2.84
                            12 2.93
   8  0.377  0.956  0.415-  43 2.53  52 2.56  61 2.68  13 2.75  27 2.80  11 2.81   6 2.83  10 2.84
                            14 2.90
   9  0.864  0.211  0.396-  75 2.60  22 2.67   4 2.72  17 2.73  15 2.74  60 2.77   7 2.80   6 2.88
                            10 3.01
  10  0.129  0.214  0.413-  22 2.64  43 2.69  13 2.72   5 2.76  39 2.77   7 2.79   8 2.84   6 2.90
                             9 3.01
  11  0.629  0.952  0.410-  61 2.65  12 2.71  19 2.73  27 2.76  17 2.79  13 2.81   8 2.81   4 2.83
                             1 2.85
  12  0.875  0.714  0.408-  29 2.66  16 2.68  11 2.71   5 2.72   4 2.81  33 2.81  27 2.83   1 2.85
                             7 2.93
  13  0.378  0.200  0.413-  43 2.70  10 2.72  19 2.73   8 2.75   3 2.76  25 2.78  17 2.80  11 2.81
                             5 2.98
  14  0.381  0.696  0.403-  81 2.04  52 2.55  44 2.56  15 2.69  25 2.81  27 2.84  30 2.88  16 2.90
                             8 2.90   6 2.91
  15  0.620  0.456  0.399-  75 2.53  44 2.61  14 2.69   9 2.74  25 2.79  17 2.83   7 2.84  18 2.85
                            27 2.87
  16  0.116  0.709  0.404-  81 1.74  12 2.68  30 2.69   5 2.73  33 2.76   4 2.79   6 2.86  14 2.90
                            25 2.92   2 2.94
  17  0.627  0.201  0.404-  18 2.69   4 2.72   9 2.73  19 2.79  11 2.79  25 2.79  13 2.80  60 2.82
                            15 2.83
  18  0.538  0.348  0.301-  67 2.46  26 2.59  68 2.67  17 2.69  60 2.69  19 2.70  25 2.82  15 2.85
                             3 2.87  30 2.95  75 3.20
  19  0.527  0.113  0.308-  59 2.47  80 2.51  68 2.57  43 2.61  61 2.63  18 2.70  13 2.73  11 2.73
                            17 2.79   1 2.80   3 2.81  60 2.92
  20  0.546  0.126  0.067-  48 2.50  57 2.52  47 2.52  62 2.53  37 2.60  56 2.66  34 2.70  63 2.89

  21  0.118  0.408  0.119-  47 2.44  40 2.48  36 2.49  69 2.60  57 2.64  42 2.67  64 2.70  70 2.72
                            31 2.74  50 3.30
  22  0.055  0.148  0.310-  77 2.43  65 2.51  55 2.51  43 2.57  39 2.62  10 2.64   9 2.67   6 2.70
                            75 2.90  31 3.04  52 3.05   2 3.17  60 3.23
  23  0.009  0.102  0.049-  40 2.49  62 2.55  70 2.57  41 2.59  45 2.66  76 2.69  24 2.70  35 2.74
                            53 3.07
  24  0.138  0.927  0.142-  79 2.46  35 2.50  77 2.54  58 2.54  53 2.56  55 2.59  38 2.59  73 2.64
                            70 2.65  23 2.70  66 2.83
  25  0.376  0.448  0.407-  81 1.72  30 2.76  13 2.78   3 2.78  15 2.79  17 2.79  14 2.81  18 2.82
                             5 2.85  16 2.92
  26  0.480  0.554  0.230-  74 2.50  73 2.52  44 2.52  51 2.59  18 2.59  79 2.60  78 2.62  30 2.63
                            32 2.66  67 2.70
  27  0.627  0.707  0.413-  44 2.49  61 2.70  11 2.76   7 2.80   8 2.80  29 2.80  12 2.83  14 2.84
                            15 2.87
  28  0.953  0.759  0.204-  58 2.53  50 2.61  66 2.61  42 2.62  36 2.63  33 2.66   1 2.69   2 2.76
                            64 2.80  49 2.88  34 3.22  59 3.23  35 3.30
  29  0.797  0.631  0.311-  39 2.59  32 2.61  49 2.62  75 2.62  42 2.63  33 2.64  44 2.65  12 2.66
                             1 2.75  27 2.80   7 2.82  61 2.84
  30  0.274  0.608  0.304-  79 2.43  33 2.60  26 2.63  64 2.65  16 2.69  25 2.76   3 2.76  14 2.88
                             2 2.90  18 2.95  52 3.26
  31  0.187  0.262  0.225-  70 2.52  57 2.57  65 2.58  55 2.59  39 2.62   3 2.63  43 2.63  42 2.72
                            80 2.73  21 2.74  68 2.76  64 2.79  22 3.04
  32  0.711  0.561  0.214-  69 2.53  51 2.56  54 2.61  29 2.61  49 2.62  26 2.66  65 2.66  50 2.66
                            42 2.68  75 2.69  78 2.71  67 2.73  44 2.73
  33  0.042  0.609  0.305-  42 2.47  64 2.50  39 2.51  30 2.60  29 2.64  28 2.66   5 2.70   3 2.70
                            16 2.76  12 2.81   1 2.94   2 2.99
  34  0.782  0.884  0.080-  48 2.38  35 2.38  50 2.53  66 2.54  36 2.55  62 2.67  20 2.70  28 3.22

  35  0.002  0.866  0.072-  36 2.37  34 2.38  66 2.43  24 2.50  58 2.60  23 2.74  62 2.75  28 3.30

  36  0.006  0.657  0.094-  50 2.33  35 2.37  58 2.38  21 2.49  34 2.55  28 2.63
  37  0.628  0.234  0.150-  41 2.41  56 2.42  59 2.43  67 2.44  62 2.45  68 2.50  51 2.50  74 2.51
                            20 2.60  66 2.60
  38  0.361  0.942  0.135-  53 2.40  45 2.41  63 2.42  57 2.43  48 2.45  55 2.45  54 2.46  78 2.48
                            80 2.54  73 2.59  24 2.59  70 2.83
  39  0.024  0.396  0.316-  42 2.46  33 2.51   7 2.58  75 2.58  65 2.58  29 2.59   5 2.60  31 2.62
                            22 2.62   3 2.67  10 2.77
  40  0.013  0.321  0.044-  69 2.32  76 2.45  21 2.48  23 2.49  70 2.51  45 2.63  71 2.93
  41  0.844  0.228  0.139-  67 2.35  76 2.37  77 2.38  37 2.41  62 2.44  51 2.48  69 2.48  66 2.49
                            65 2.58  23 2.59  70 2.61
  42  0.967  0.520  0.219-  39 2.46  33 2.47  50 2.48  64 2.48  65 2.50  28 2.62  29 2.63  69 2.65
                            21 2.67  32 2.68  31 2.72
  43  0.303  0.099  0.319-  52 2.45  80 2.46  55 2.51   8 2.53  61 2.56  22 2.57  19 2.61  31 2.63
                            10 2.69  13 2.70   3 2.82
  44  0.553  0.648  0.317-  61 2.45  78 2.47  27 2.49  26 2.52  14 2.56  52 2.57  15 2.61  29 2.65
                            75 2.73  32 2.73
  45  0.251  0.091  0.049-  38 2.41  57 2.45  53 2.48  70 2.50  63 2.54  40 2.63  23 2.66
  46  0.529  0.612  0.047-  54 2.37  73 2.44  51 2.45  71 2.47  72 2.53  53 2.63  56 2.72  76 2.87
                            63 3.07
  47  0.334  0.361  0.072-  74 2.29  56 2.44  21 2.44  57 2.50  72 2.50  20 2.52
  48  0.581  0.937  0.137-  49 2.29  63 2.35  34 2.38  54 2.38  80 2.38  38 2.45  59 2.46  20 2.50
                            57 2.63  50 2.74
  49  0.677  0.809  0.223-  48 2.29  50 2.34  61 2.46  78 2.47   1 2.47  59 2.54  80 2.57  29 2.62
                            32 2.62  54 2.79  28 2.88
  50  0.810  0.679  0.140-  36 2.33  49 2.34  54 2.38  71 2.39  42 2.48  69 2.52  34 2.53  28 2.61
                            32 2.66  48 2.74  21 3.30
  51  0.629  0.454  0.133-  56 2.40  76 2.44  46 2.45  41 2.48  37 2.50  67 2.53  32 2.56  26 2.59
                            74 2.59  69 2.66  73 2.78  54 2.83
  52  0.320  0.872  0.317-  55 2.38  79 2.41  61 2.43  43 2.45  78 2.46  14 2.55   8 2.56  44 2.57
                             6 2.62  22 3.05   2 3.23  30 3.26
  53  0.299  0.850  0.050-  73 2.39  38 2.40  45 2.48  24 2.56  63 2.58  46 2.63  72 2.82  23 3.07

  54  0.581  0.726  0.124-  46 2.37  50 2.38  48 2.38  73 2.40  71 2.42  63 2.42  38 2.46  78 2.50
                            32 2.61  49 2.79  51 2.83
  55  0.229  0.013  0.230-  52 2.38  80 2.44  79 2.44  38 2.45  43 2.51  22 2.51  78 2.56  24 2.59
                            31 2.59  77 2.61  70 2.62
  56  0.549  0.361  0.055-  51 2.40  37 2.42  47 2.44  74 2.52  76 2.56  62 2.60  72 2.61  20 2.66
                            46 2.72
  57  0.344  0.167  0.132-  38 2.43  45 2.45  80 2.47  47 2.50  20 2.52  68 2.55  31 2.57  48 2.63
                            21 2.64  70 2.71
  58  0.176  0.684  0.148-  36 2.38  72 2.39  64 2.41  73 2.43  28 2.53  79 2.53  24 2.54  74 2.56
                            35 2.60
  59  0.661  0.042  0.213-  66 2.38  37 2.43  48 2.46  19 2.47  49 2.54  68 2.55   1 2.56  80 2.59
                            60 2.68  28 3.23
  60  0.785  0.116  0.297-  67 2.47  77 2.53   1 2.64  59 2.68  18 2.69   4 2.71   2 2.72   9 2.77
                            17 2.82  19 2.92  22 3.23
  61  0.536  0.875  0.316-  52 2.43  44 2.45  49 2.46  78 2.48  80 2.51  43 2.56  19 2.63  11 2.65
                             8 2.68  27 2.70  29 2.84   1 2.89
  62  0.773  0.123  0.060-  66 2.43  41 2.44  37 2.45  20 2.53  23 2.55  56 2.60  76 2.63  34 2.67
                            35 2.75
  63  0.500  0.898  0.045-  48 2.35  54 2.42  38 2.42  45 2.54  53 2.58  20 2.89  46 3.07
  64  0.196  0.505  0.214-  58 2.41  42 2.48  33 2.50  74 2.52   3 2.54  30 2.65  68 2.66  21 2.70
                            31 2.79  28 2.80
  65  0.935  0.315  0.226-  75 2.39  69 2.40  67 2.41  77 2.43  42 2.50  22 2.51  70 2.53  41 2.58
                            31 2.58  39 2.58  32 2.66
  66  0.858  0.002  0.156-  77 2.38  59 2.38  62 2.43  35 2.43  41 2.49  34 2.54  37 2.60  28 2.61
                            24 2.83
  67  0.721  0.315  0.230-  41 2.35  75 2.39  65 2.41  37 2.44  18 2.46  60 2.47  51 2.53  26 2.70
                            77 2.70  32 2.73
  68  0.430  0.266  0.214-  74 2.43  37 2.50  57 2.55  59 2.55  19 2.57   3 2.62  80 2.64  64 2.66
                            18 2.67  31 2.76
  69  0.877  0.430  0.129-  40 2.32  71 2.34  65 2.40  41 2.48  76 2.49  50 2.52  32 2.53  21 2.60
                            42 2.65  70 2.65  51 2.66
  70  0.096  0.181  0.140-  45 2.50  40 2.51  31 2.52  65 2.53  23 2.57  41 2.61  55 2.62  24 2.65
                            69 2.65  57 2.71  21 2.72  77 2.83  38 2.83
  71  0.760  0.589  0.052-  69 2.34  50 2.39  54 2.42  46 2.47  76 2.56  40 2.93
  72  0.315  0.592  0.059-  58 2.39  74 2.39  73 2.42  47 2.50  46 2.53  56 2.61  53 2.82
  73  0.382  0.701  0.136-  53 2.39  54 2.40  72 2.42  58 2.43  46 2.44  79 2.49  26 2.52  38 2.59
                            78 2.60  24 2.64  74 2.69  51 2.78
  74  0.400  0.454  0.149-  47 2.29  72 2.39  68 2.43  26 2.50  37 2.51  56 2.52  64 2.52  58 2.56
                            51 2.59  73 2.69
  75  0.792  0.401  0.314-  67 2.39  65 2.39  15 2.53   7 2.54  39 2.58   9 2.60  29 2.62  32 2.69
                            44 2.73  22 2.90  18 3.20
  76  0.781  0.351  0.046-  41 2.37  51 2.44  40 2.45  69 2.49  71 2.56  56 2.56  62 2.63  23 2.69
                            46 2.87
  77  0.970  0.084  0.222-  41 2.38  66 2.38  65 2.43  22 2.43  60 2.53  24 2.54   2 2.57  55 2.61
                            67 2.70  70 2.83
  78  0.465  0.795  0.225-  52 2.46  49 2.47  44 2.47  61 2.48  79 2.48  38 2.48  80 2.48  54 2.50
                            55 2.56  73 2.60  26 2.62  32 2.71
  79  0.249  0.786  0.233-  52 2.41  30 2.43  55 2.44  24 2.46  78 2.48  73 2.49   2 2.49  58 2.53
                            26 2.60
  80  0.439  0.028  0.225-  48 2.38  55 2.44  43 2.46  57 2.47  78 2.48  19 2.51  61 2.51  38 2.54
                            49 2.57  59 2.59  68 2.64  31 2.73
  81  0.275  0.609  0.438-  25 1.72  16 1.74  14 2.04
 
  LATTYP: Found a hexagonal cell.
 ALAT       =    11.2227001190
 C/A-ratio  =     1.9603125600
  
  Lattice vectors:
  
 A1 = (   5.6113500595,  -9.7191434021,   0.0000000000)
 A2 = ( -11.2227001190,   0.0000000000,   0.0000000000)
 A3 = (   0.0000000000,   0.0000000000, -22.0000000000)


Analysis of symmetry for initial positions (statically):
=====================================================================
 Subroutine PRICEL returns:
 Original cell was already a primitive cell.
 

 Routine SETGRP: Setting up the symmetry group for a 
 hexagonal supercell.


 Subroutine GETGRP returns: Found  1 space group operations
 (whereof  1 operations were pure point group operations)
 out of a pool of 24 trial point group operations.


The static configuration has the point symmetry C_1 .


Analysis of symmetry for dynamics (positions and initial velocities):
=====================================================================
 Subroutine PRICEL returns:
 Original cell was already a primitive cell.
 

 Routine SETGRP: Setting up the symmetry group for a 
 hexagonal supercell.


 Subroutine GETGRP returns: Found  1 space group operations
 (whereof  1 operations were pure point group operations)
 out of a pool of 24 trial point group operations.


The dynamic configuration has the point symmetry C_1 .


Analysis of constrained symmetry for selective dynamics:
=====================================================================
 Subroutine PRICEL returns:
 Original cell was already a primitive cell.
 

 Routine SETGRP: Setting up the symmetry group for a 
 hexagonal supercell.


 Subroutine GETGRP returns: Found  1 space group operations
 (whereof  1 operations were pure point group operations)
 out of a pool of 24 trial point group operations.


The constrained configuration has the point symmetry C_1 .


Analysis of structural, dynamic, and magnetic symmetry:
=====================================================================
 Subroutine PRICEL returns:
 Original cell was already a primitive cell.
 

 Routine SETGRP: Setting up the symmetry group for a 
 hexagonal supercell.


 Subroutine GETGRP returns: Found  1 space group operations
 (whereof  1 operations were pure point group operations)
 out of a pool of 24 trial point group operations.


The magnetic configuration has the point symmetry C_1 .


 Subroutine INISYM returns: Found  1 space group operations
 (whereof  1 operations are pure point group operations),
 and found     1 'primitive' translations

 
 
 KPOINTS: mesh auto                               

Automatic generation of k-mesh.
Space group operators:
 irot       det(A)        alpha          n_x          n_y          n_z        tau_x        tau_y        tau_z
    1     1.000000     0.000000     1.000000     0.000000     0.000000     0.000000     0.000000     0.000000
 
 Subroutine IBZKPT returns following result:
 ===========================================
 
 Found      4 irreducible k-points:
 
 Following reciprocal coordinates:
            Coordinates               Weight
  0.000000  0.000000  0.000000      1.000000
  0.500000  0.000000  0.000000      1.000000
  0.000000  0.500000  0.000000      1.000000
  0.500000  0.500000  0.000000      1.000000
 
 Following cartesian coordinates:
            Coordinates               Weight
  0.000000  0.000000  0.000000      1.000000
  0.044553 -0.025722  0.000000      1.000000
  0.000000  0.051445  0.000000      1.000000
  0.044553  0.025722  0.000000      1.000000
 


--------------------------------------------------------------------------------------------------------




 Dimension of arrays:
   k-points           NKPTS =      4   k-points in BZ     NKDIM =      4   number of bands    NBANDS=    576
   number of dos      NEDOS =    301   number of ions     NIONS =     81
   non local maximal  LDIM  =      6   non local SUM 2l+1 LMDIM =     18
   total plane-waves  NPLWV = ******
   max r-space proj   IRMAX =   7929   max aug-charges    IRDMAX=  34542
   dimension x,y,z NGX =    90 NGY =   90 NGZ =  168
   dimension x,y,z NGXF=   180 NGYF=  180 NGZF=  336
   support grid    NGXF=   180 NGYF=  180 NGZF=  336
   ions per type =              32  23  25   1
   NGX,Y,Z   is equivalent  to a cutoff of  13.33, 13.33, 12.70 a.u.
   NGXF,Y,Z  is equivalent  to a cutoff of  26.66, 26.66, 25.39 a.u.

 SYSTEM =  Pt111                                   
 POSCAR =  11.26                                   

 Startparameter for this run:
   NWRITE =      2    write-flag & timer
   PREC   = accura    normal or accurate (medium, high low for compatibility)
   ISTART =      0    job   : 0-new  1-cont  2-samecut
   ICHARG =      2    charge: 1-file 2-atom 10-const
   ISPIN  =      2    spin polarized calculation?
   LNONCOLLINEAR =      F non collinear calculations
   LSORBIT =      F    spin-orbit coupling
   INIWAV =      1    electr: 0-lowe 1-rand  2-diag
   LASPH  =      F    aspherical Exc in radial PAW
   METAGGA=      F    non-selfconsistent MetaGGA calc.

 Electronic Relaxation 1
   ENCUT  =  550.0 eV  40.42 Ry    6.36 a.u.  21.46 21.46 42.07*2*pi/ulx,y,z
   ENINI  =  550.0     initial cutoff
   ENAUG  =  544.6 eV  augmentation charge cutoff
   NELM   =    200;   NELMIN=  2; NELMDL= -5     # of ELM steps 
   EDIFF  = 0.1E-04   stopping-criterion for ELM
   LREAL  =      T    real-space projection
   NLSPLINE    = F    spline interpolate recip. space projectors
   LCOMPAT=      F    compatible to vasp.4.4
   GGA_COMPAT  = T    GGA compatible to vasp.4.4-vasp.4.6
   LMAXPAW     = -100 max onsite density
   LMAXMIX     =    2 max onsite mixed and CHGCAR
   VOSKOWN=      0    Vosko Wilk Nusair interpolation
   ROPT   =   -0.00025  -0.00025  -0.00025  -0.00025
 Ionic relaxation
   EDIFFG = -.5E-01   stopping-criterion for IOM
   NSW    =    300    number of steps for IOM
   NBLOCK =      1;   KBLOCK =    300    inner block; outer block 
   IBRION =      2    ionic relax: 0-MD 1-quasi-New 2-CG
   NFREE  =      1    steps in history (QN), initial steepest desc. (CG)
   ISIF   =      2    stress and relaxation
   IWAVPR =     11    prediction:  0-non 1-charg 2-wave 3-comb
   ISYM   =      2    0-nonsym 1-usesym 2-fastsym
   LCORR  =      T    Harris-Foulkes like correction to forces

   POTIM  = 0.5000    time-step for ionic-motion
   TEIN   =    0.0    initial temperature
   TEBEG  =    0.0;   TEEND  =   0.0 temperature during run
   SMASS  =  -3.00    Nose mass-parameter (am)
   estimated Nose-frequenzy (Omega)   =  0.10E-29 period in steps =****** mass=  -0.288E-26a.u.
   SCALEE = 1.0000    scale energy and forces
   NPACO  =    256;   APACO  = 16.0  distance and # of slots for P.C.
   PSTRESS=    0.0 pullay stress

  Mass of Ions in am
   POMASS = 195.08 58.93 58.69  1.00
  Ionic Valenz
   ZVAL   =  10.00  9.00 10.00  1.00
  Atomic Wigner-Seitz radii
   RWIGS  =  -1.00 -1.00 -1.00 -1.00
  virtual crystal weights 
   VCA    =   1.00  1.00  1.00  1.00
   NELECT =     778.0000    total number of electrons
   NUPDOWN=      -1.0000    fix difference up-down

 DOS related values:
   EMIN   =  10.00;   EMAX   =-10.00  energy-range for DOS
   EFERMI =   0.00
   ISMEAR =     1;   SIGMA  =   0.10  broadening in eV -4-tet -1-fermi 0-gaus

 Electronic relaxation 2 (details)
   IALGO  =     68    algorithm
   LDIAG  =      T    sub-space diagonalisation (order eigenvalues)
   LSUBROT=      F    optimize rotation matrix (better conditioning)
   TURBO    =      0    0=normal 1=particle mesh
   IRESTART =      0    0=no restart 2=restart with 2 vectors
   NREBOOT  =      0    no. of reboots
   NMIN     =      0    reboot dimension
   EREF     =   0.00    reference energy to select bands
   IMIX   =      4    mixing-type and parameters
     AMIX     =   0.40;   BMIX     =  1.00
     AMIX_MAG =   1.60;   BMIX_MAG =  1.00
     AMIN     =   0.10
     WC   =   100.;   INIMIX=   1;  MIXPRE=   1;  MAXMIX= -45

 Intra band minimization:
   WEIMIN = 0.0010     energy-eigenvalue tresh-hold
   EBREAK =  0.43E-08  absolut break condition
   DEPER  =   0.30     relativ break condition  

   TIME   =   0.40     timestep for ELM

  volume/ion in A,a.u.               =      29.63       199.92
  Fermi-wavevector in a.u.,A,eV,Ry     =   1.124653  2.125287 17.209264  1.264845
  Thomas-Fermi vector in A             =   2.261326
 
 Write flags
   LWAVE        =      F    write WAVECAR
   LDOWNSAMPLE  =      F    k-point downsampling of WAVECAR
   LCHARG       =      F    write CHGCAR
   LVTOT        =      F    write LOCPOT, total local potential
   LVHAR        =      F    write LOCPOT, Hartree potential only
   LELF         =      F    write electronic localiz. function (ELF)
   LORBIT       =      0    0 simple, 1 ext, 2 COOP (PROOUT), +10 PAW based schemes


 Dipole corrections
   LMONO  =      F    monopole corrections only (constant potential shift)
   LDIPOL =      F    correct potential (dipole corrections)
   IDIPOL =      0    1-x, 2-y, 3-z, 4-all directions 
   EPSILON=  1.0000000 bulk dielectric constant

 Exchange correlation treatment:
   GGA     =    --    GGA type
   LEXCH   =     8    internal setting for exchange type
   VOSKOWN=      0    Vosko Wilk Nusair interpolation
   LHFCALC =     F    Hartree Fock is set to
   LHFONE  =     F    Hartree Fock one center treatment
   AEXX    =    0.0000 exact exchange contribution

 Linear response parameters
   LEPSILON=     F    determine dielectric tensor
   LRPA    =     F    only Hartree local field effects (RPA)
   LNABLA  =     F    use nabla operator in PAW spheres
   LVEL    =     F    velocity operator in full k-point grid
   LINTERFAST=   F  fast interpolation
   KINTER  =     0    interpolate to denser k-point grid
   CSHIFT  =0.1000    complex shift for real part using Kramers Kronig
   OMEGAMAX=  -1.0    maximum frequency
   DEG_THRESHOLD= 0.2000000E-02 threshold for treating states as degnerate
   RTIME   =   -0.100 relaxation time in fs
  (WPLASMAI=    0.000 imaginary part of plasma frequency in eV, 0.658/RTIME)
   DFIELD  = 0.0000000 0.0000000 0.0000000 field for delta impulse in time
 
 Orbital magnetization related:
   ORBITALMAG=     F  switch on orbital magnetization
   LCHIMAG   =     F  perturbation theory with respect to B field
   DQ        =  0.001000  dq finite difference perturbation B field
   LLRAUG    =     F  two centre corrections for induced B field



--------------------------------------------------------------------------------------------------------


 conjugate gradient relaxation of ions
   using selective dynamics as specified on POSCAR
 charge density and potential will be updated during run
 spin polarized calculation
 RMM-DIIS sequential band-by-band and
  variant of blocked Davidson during initial phase
 perform sub-space diagonalisation
    before iterative eigenvector-optimisation
 modified Broyden-mixing scheme, WC =      100.0
 initial mixing is a Kerker type mixing with AMIX =  0.4000 and BMIX =      1.0000
 Hartree-type preconditioning will be used
 using additional bands          187
 real space projection scheme for non local part
 use partial core corrections
 calculate Harris-corrections to forces 
   (improved forces if not selfconsistent)
 use gradient corrections 
 use of overlap-Matrix (Vanderbilt PP)
 Methfessel and Paxton  Order N= 1 SIGMA  =   0.10


--------------------------------------------------------------------------------------------------------


  energy-cutoff  :      550.00
  volume of cell :     2399.65
      direct lattice vectors                 reciprocal lattice vectors
    11.222700119  0.000000000  0.000000000     0.089105116 -0.051444863  0.000000000
     5.611350060  9.719143402  0.000000000     0.000000000  0.102889726  0.000000000
     0.000000000  0.000000000 22.000000000     0.000000000  0.000000000  0.045454545

  length of vectors
    11.222700119 11.222700119 22.000000000     0.102889726  0.102889726  0.045454545


 
 k-points in units of 2pi/SCALE and weight: mesh auto                               
   0.00000000  0.00000000  0.00000000       0.250
   0.04455256 -0.02572243  0.00000000       0.250
   0.00000000  0.05144486  0.00000000       0.250
   0.04455256  0.02572243  0.00000000       0.250
 
 k-points in reciprocal lattice and weights: mesh auto                               
   0.00000000  0.00000000  0.00000000       0.250
   0.50000000  0.00000000  0.00000000       0.250
   0.00000000  0.50000000  0.00000000       0.250
   0.50000000  0.50000000  0.00000000       0.250
 
 position of ions in fractional coordinates (direct lattice) 
   0.78925998  0.87878802  0.30121222
   0.03270259  0.87918048  0.29281978
   0.27595481  0.36227641  0.31085980
   0.87452803  0.96417189  0.39986541
   0.11347695  0.46739997  0.41031125
   0.12514630  0.95929033  0.39950627
   0.87301284  0.45480225  0.41217167
   0.37701318  0.95585584  0.41523770
   0.86441231  0.21135176  0.39649291
   0.12938104  0.21430742  0.41300922
   0.62945289  0.95163036  0.40962071
   0.87531965  0.71431373  0.40848710
   0.37811308  0.20035718  0.41347329
   0.38084327  0.69648099  0.40256170
   0.62040281  0.45628506  0.39873021
   0.11607802  0.70916439  0.40358339
   0.62681720  0.20137626  0.40429930
   0.53828593  0.34754319  0.30086371
   0.52741195  0.11320966  0.30844004
   0.54569241  0.12647739  0.06683304
   0.11791659  0.40792499  0.11908862
   0.05457374  0.14826096  0.31034432
   0.00892895  0.10176852  0.04917651
   0.13783207  0.92691145  0.14197368
   0.37604756  0.44835740  0.40652188
   0.47979716  0.55399880  0.22971747
   0.62713798  0.70737237  0.41347945
   0.95252345  0.75898977  0.20420405
   0.79731901  0.63088403  0.31069021
   0.27421233  0.60849866  0.30376107
   0.18749030  0.26198206  0.22539890
   0.71089206  0.56100734  0.21410215
   0.04247202  0.60866576  0.30471865
   0.78196837  0.88367072  0.08012597
   0.00167860  0.86570870  0.07172203
   0.00649475  0.65686199  0.09367822
   0.62789021  0.23379040  0.14972974
   0.36050112  0.94235243  0.13470415
   0.02367156  0.39570538  0.31624423
   0.01296097  0.32139498  0.04442433
   0.84423970  0.22761319  0.13891977
   0.96744603  0.52048649  0.21885007
   0.30318925  0.09874004  0.31911861
   0.55336689  0.64796514  0.31680171
   0.25085454  0.09128101  0.04878728
   0.52913784  0.61162204  0.04697948
   0.33389242  0.36126594  0.07221963
   0.58147332  0.93651314  0.13694302
   0.67732667  0.80921239  0.22305304
   0.80979447  0.67906481  0.14024348
   0.62937817  0.45366950  0.13325724
   0.32036889  0.87194096  0.31726179
   0.29919813  0.84983568  0.05000644
   0.58103448  0.72612545  0.12392179
   0.22907234  0.01294552  0.22967573
   0.54871865  0.36069037  0.05545242
   0.34411655  0.16690962  0.13164412
   0.17554400  0.68420617  0.14761894
   0.66082635  0.04249037  0.21304482
   0.78516879  0.11592854  0.29690217
   0.53581451  0.87478900  0.31589053
   0.77284397  0.12278263  0.06048458
   0.50030742  0.89844953  0.04455515
   0.19571508  0.50522867  0.21438636
   0.93546177  0.31542046  0.22552712
   0.85824468  0.00195101  0.15611973
   0.72104290  0.31497628  0.22969726
   0.43002289  0.26577701  0.21377066
   0.87703755  0.42955743  0.12878365
   0.09634819  0.18069822  0.13969274
   0.75988870  0.58867799  0.05155611
   0.31527374  0.59151669  0.05925234
   0.38179216  0.70126590  0.13646584
   0.40042658  0.45377032  0.14884727
   0.79153862  0.40082537  0.31361618
   0.78089926  0.35148021  0.04598080
   0.96954404  0.08430315  0.22196820
   0.46486898  0.79463888  0.22533144
   0.24890496  0.78598962  0.23267623
   0.43862206  0.02771317  0.22450195
   0.27498802  0.60851968  0.43844976
 
 position of ions in cartesian coordinates  (Angst):
  13.78881523  8.54106679  6.62666878
   5.30040079  8.54488114  6.44203507
   5.12981781  3.52101637  6.83891552
  15.22487182  9.37092486  8.79703905
   3.89626264  4.54272733  9.02684743
   6.78739321  9.32348026  8.78913801
  12.34961596  4.42028825  9.06777677
   9.59474762  9.29009995  9.13522950
  10.88700891  2.05415809  8.72284412
   2.65455856  2.08288452  9.08620280
  12.40409210  9.24903192  9.01165573
  13.83171432  6.94251760  8.98671616
   5.36772404  1.94730018  9.09641244
   8.18228845  6.76919863  8.85635749
   9.52296988  4.43469994  8.77206466
   5.28207851  6.89247041  8.87883451
   8.16457415  1.95720479  8.89458451
   7.99120805  3.37782207  6.61900172
   6.55424518  1.10030096  6.78568086
   6.83385120  1.22925189  1.47032698
   3.61235247  3.96468152  2.61994962
   1.44440888  1.44096951  6.82757507
   0.67126575  0.98910281  1.08188317
   6.74807265  9.00878530  3.12342105
   6.73615930  4.35764984  8.94348133
   8.49330084  5.38439383  5.05378437
  11.00749549  6.87505349  9.09654801
  14.94884239  7.37673046  4.49248916
  12.48818327  6.13165233  6.83518465
   6.49190180  5.91408578  6.68274363
   3.57422044  2.54624125  4.95877580
  11.12613698  5.45251083  4.71024739
   3.89208734  5.91570976  6.70381020
  13.73438227  8.58852246  1.76277137
   4.87663302  8.41394697  1.57788465
   3.75877116  6.38413590  2.06092090
   8.35850333  2.27224245  3.29405432
   9.33366537  9.15885838  2.96349132
   2.48610016  3.84591731  6.95737300
   1.94891684  3.12368389  0.97733531
  10.75186628  2.21220519  3.05623495
  13.77798860  5.05868282  4.81470165
   3.95666700  0.95966865  7.02060946
   9.84622993  6.29766610  6.96963760
   3.32747495  0.88717326  1.07332023
   9.37038068  5.94444230  1.03354859
   5.77436416  3.51119550  1.58883193
  11.78080373  9.10210551  3.01274644
  12.14220806  7.86485128  4.90716692
  12.89855082  6.59992829  3.08535659
   9.60902083  4.40927897  2.93165935
   8.48817002  8.47451927  6.97975946
   8.12653637  8.25967484  1.10014163
  10.59531978  7.05731733  2.72627938
   2.64345207  0.12581940  5.05286608
   8.18206475  3.50560142  1.21995326
   4.79850516  1.62221856  2.89617069
   5.80939796  6.64989784  3.24761674
   7.65468432  0.41297001  4.68698615
   9.46222948  1.12672610  6.53184779
  10.92203289  8.50219970  6.94959171
   9.36237240  1.19334199  1.33066085
  10.65631497  8.73215981  0.98021322
   5.03146660  4.91038993  4.71649990
  12.26834149  3.06561666  4.96159659
   9.64277050  0.01896212  3.43463404
   9.85949038  3.06129963  5.05333976
   6.31738572  2.58312482  4.70295446
  12.25312658  4.17493029  2.83324027
   2.09524784  1.75623189  3.07324021
  11.83128130  5.72144585  1.13423452
   6.85742987  5.74903551  1.30355140
   8.21978744  6.81570388  3.00224843
   7.04013147  4.41025877  3.27463986
  11.13237201  3.89567921  6.89955600
  10.73607676  3.41608656  1.01157751
  11.35395654  0.81935443  4.88330047
   9.67608211  7.72320924  4.95729164
   7.20384860  7.63914586  5.11887697
   5.07803210  0.26934830  4.93904295
   6.50072507  5.91429002  9.64589479
 


--------------------------------------------------------------------------------------------------------


 k-point  1 :   0.0000 0.0000 0.0000  plane waves:   70321
 k-point  2 :   0.5000 0.0000 0.0000  plane waves:   70264
 k-point  3 :   0.0000 0.5000 0.0000  plane waves:   70264
 k-point  4 :   0.5000 0.5000 0.0000  plane waves:   70264

 maximum and minimum number of plane-waves per node :     17611    17530

 maximum number of plane-waves:     70321
 maximum index in each direction: 
   IXMAX=   21   IYMAX=   21   IZMAX=   42
   IXMIN=  -21   IYMIN=  -21   IZMIN=  -42


 real space projection operators:
  total allocation   :      70752.07 KBytes
  max/ min on nodes  :      18090.47      17295.24


 parallel 3D FFT for wavefunctions:
    minimum data exchange during FFTs selected (reduces bandwidth)
 parallel 3D FFT for charge:
    minimum data exchange during FFTs selected (reduces bandwidth)


 total amount of memory used by VASP MPI-rank0   243557. kBytes
=======================================================================

   base      :      30000. kBytes
   nonlr-proj:      33158. kBytes
   fftplans  :      18297. kBytes
   grid      :      51226. kBytes
   one-center:        653. kBytes
   wavefun   :     110223. kBytes
 
     INWAV:  cpu time    0.0001: real time    0.0004
 Broyden mixing: mesh for mixing (old mesh)
   NGX = 43   NGY = 43   NGZ = 85
  (NGX  =180   NGY  =180   NGZ  =336)
  gives a total of 157165 points

 initial charge density was supplied:
 charge density of overlapping atoms calculated
 number of electron     778.0000000 magnetization     206.0000000
 keeping initial charge density in first step


--------------------------------------------------------------------------------------------------------


 Maximum index for non-local projection operator         2137
 Maximum index for augmentation-charges         1121 (set IRDMAX)


--------------------------------------------------------------------------------------------------------


 First call to EWALD:  gamma=   0.132
 Maximum number of real-space cells 4x 4x 2
 Maximum number of reciprocal cells 2x 2x 4

    FEWALD:  cpu time    0.0050: real time    0.0054


--------------------------------------- Iteration      1(   1)  ---------------------------------------


    POTLOK:  cpu time    0.4229: real time    0.4470
    SETDIJ:  cpu time    0.0400: real time    0.0555
     EDDAV:  cpu time   63.1619: real time   63.4265
       DOS:  cpu time    0.0054: real time    0.0140
    --------------------------------------------
      LOOP:  cpu time   63.6302: real time   63.9430

 eigenvalue-minimisations  :  9216
 total energy-change (2. order) : 0.6869164E+04  (-0.3404361E+05)
 number of electron     778.0000000 magnetization     206.0000000
 augmentation part      778.0000000 magnetization     206.0000000

 Free energy of the ion-electron system (eV)
  ---------------------------------------------------
  alpha Z        PSCENC =      1751.32544349
  Ewald energy   TEWEN  =    237191.73962967
  -Hartree energ DENC   =   -307249.19969940
  -exchange      EXHF   =         0.00000000
  -V(xc)+E(xc)   XCENC  =      1334.68317794
  PAW double counting   =     62871.68470781   -64853.88848185
  entropy T*S    EENTRO =         0.00280873
  eigenvalues    EBANDS =      6829.47064425
  atomic energy  EATOM  =     68993.34587830
  Solvation  Ediel_sol  =         0.00000000
  ---------------------------------------------------
  free energy    TOTEN  =      6869.16410894 eV

  energy without entropy =     6869.16130021  energy(sigma->0) =     6869.16317270


--------------------------------------------------------------------------------------------------------




--------------------------------------- Iteration      1(   2)  ---------------------------------------


     EDDAV:  cpu time   63.1328: real time   63.3302
       DOS:  cpu time    0.0027: real time    0.0040
    --------------------------------------------
      LOOP:  cpu time   63.1355: real time   63.3341

 eigenvalue-minimisations  :  9216
 total energy-change (2. order) :-0.6436947E+04  (-0.5812992E+04)
 number of electron     778.0000000 magnetization     206.0000000
 augmentation part      778.0000000 magnetization     206.0000000

 Free energy of the ion-electron system (eV)
  ---------------------------------------------------
  alpha Z        PSCENC =      1751.32544349
  Ewald energy   TEWEN  =    237191.73962967
  -Hartree energ DENC   =   -307249.19969940
  -exchange      EXHF   =         0.00000000
  -V(xc)+E(xc)   XCENC  =      1334.68317794
  PAW double counting   =     62871.68470781   -64853.88848185
  entropy T*S    EENTRO =        -0.00219116
  eigenvalues    EBANDS =       392.52891759
  atomic energy  EATOM  =     68993.34587830
  Solvation  Ediel_sol  =         0.00000000
  ---------------------------------------------------
  free energy    TOTEN  =       432.21738239 eV

  energy without entropy =      432.21957355  energy(sigma->0) =      432.21811278


--------------------------------------------------------------------------------------------------------




--------------------------------------- Iteration      1(   3)  ---------------------------------------


     EDDAV:  cpu time   65.8420: real time   66.0428
       DOS:  cpu time    0.0045: real time    0.0259
    --------------------------------------------
      LOOP:  cpu time   65.8464: real time   66.0687

 eigenvalue-minimisations  :  9744
 total energy-change (2. order) :-0.8795359E+03  (-0.7313553E+03)
 number of electron     778.0000000 magnetization     206.0000000
 augmentation part      778.0000000 magnetization     206.0000000

 Free energy of the ion-electron system (eV)
  ---------------------------------------------------
  alpha Z        PSCENC =      1751.32544349
  Ewald energy   TEWEN  =    237191.73962967
  -Hartree energ DENC   =   -307249.19969940
  -exchange      EXHF   =         0.00000000
  -V(xc)+E(xc)   XCENC  =      1334.68317794
  PAW double counting   =     62871.68470781   -64853.88848185
  entropy T*S    EENTRO =         0.00008993
  eigenvalues    EBANDS =      -487.00922353
  atomic energy  EATOM  =     68993.34587830
  Solvation  Ediel_sol  =         0.00000000
  ---------------------------------------------------
  free energy    TOTEN  =      -447.31847764 eV

  energy without entropy =     -447.31856757  energy(sigma->0) =     -447.31850761


--------------------------------------------------------------------------------------------------------




--------------------------------------- Iteration      1(   4)  ---------------------------------------


     EDDAV:  cpu time   68.3969: real time   68.6298
       DOS:  cpu time    0.0030: real time    0.0038
    --------------------------------------------
      LOOP:  cpu time   68.3999: real time   68.6336

 eigenvalue-minimisations  : 10236
 total energy-change (2. order) :-0.5695327E+02  (-0.5478231E+02)
 number of electron     778.0000000 magnetization     206.0000000
 augmentation part      778.0000000 magnetization     206.0000000

 Free energy of the ion-electron system (eV)
  ---------------------------------------------------
  alpha Z        PSCENC =      1751.32544349
  Ewald energy   TEWEN  =    237191.73962967
  -Hartree energ DENC   =   -307249.19969940
  -exchange      EXHF   =         0.00000000
  -V(xc)+E(xc)   XCENC  =      1334.68317794
  PAW double counting   =     62871.68470781   -64853.88848185
  entropy T*S    EENTRO =         0.00002490
  eigenvalues    EBANDS =      -543.96243170
  atomic energy  EATOM  =     68993.34587830
  Solvation  Ediel_sol  =         0.00000000
  ---------------------------------------------------
  free energy    TOTEN  =      -504.27175085 eV

  energy without entropy =     -504.27177575  energy(sigma->0) =     -504.27175915


--------------------------------------------------------------------------------------------------------




--------------------------------------- Iteration      1(   5)  ---------------------------------------


     EDDAV:  cpu time   71.5225: real time   71.7434
       DOS:  cpu time    0.0029: real time    0.0259
    CHARGE:  cpu time    4.4171: real time    4.4537
    MIXING:  cpu time    0.0175: real time    0.0738
    --------------------------------------------
      LOOP:  cpu time   75.9601: real time   76.2968

 eigenvalue-minimisations  : 10848
 total energy-change (2. order) :-0.1101677E+01  (-0.1099682E+01)
 number of electron     778.0000030 magnetization     194.1415825
 augmentation part      338.0866340 magnetization     164.4751646

 Broyden mixing:
  rms(total) = 0.10646E+02    rms(broyden)= 0.10646E+02
  rms(prec ) = 0.11016E+02
  weight for this iteration     100.00

 Free energy of the ion-electron system (eV)
  ---------------------------------------------------
  alpha Z        PSCENC =      1751.32544349
  Ewald energy   TEWEN  =    237191.73962967
  -Hartree energ DENC   =   -307249.19969940
  -exchange      EXHF   =         0.00000000
  -V(xc)+E(xc)   XCENC  =      1334.68317794
  PAW double counting   =     62871.68470781   -64853.88848185
  entropy T*S    EENTRO =         0.00006919
  eigenvalues    EBANDS =      -545.06415273
  atomic energy  EATOM  =     68993.34587830
  Solvation  Ediel_sol  =         0.00000000
  ---------------------------------------------------
  free energy    TOTEN  =      -505.37342759 eV

  energy without entropy =     -505.37349678  energy(sigma->0) =     -505.37345065


--------------------------------------------------------------------------------------------------------




--------------------------------------- Iteration      1(   6)  ---------------------------------------


    POTLOK:  cpu time    0.4046: real time    0.4128
    SETDIJ:  cpu time    0.0335: real time    0.0336
    EDDIAG:  cpu time   11.6877: real time   11.7337
  RMM-DIIS:  cpu time   41.2737: real time   41.4076
    ORTHCH:  cpu time    1.2338: real time    1.2379
       DOS:  cpu time    0.0024: real time    0.0025
    CHARGE:  cpu time    4.3124: real time    4.3276
    MIXING:  cpu time    0.0123: real time    0.0167
    --------------------------------------------
      LOOP:  cpu time   58.9605: real time   59.1723

 eigenvalue-minimisations  :  9405
 total energy-change (2. order) :-0.2488415E+03  (-0.9959057E+02)
 number of electron     778.0000040 magnetization     190.8253965
 augmentation part      408.6581047 magnetization     162.5696399

 Broyden mixing:
  rms(total) = 0.20791E+02    rms(broyden)= 0.20791E+02
  rms(prec ) = 0.25831E+02
  weight for this iteration     100.00

 eigenvalues of (default mixing * dielectric matrix)
  average eigenvalue GAMMA=   0.1755
  0.1755

 Free energy of the ion-electron system (eV)
  ---------------------------------------------------
  alpha Z        PSCENC =      1751.32544349
  Ewald energy   TEWEN  =    237191.73962967
  -Hartree energ DENC   =   -305967.10980507
  -exchange      EXHF   =         0.00000000
  -V(xc)+E(xc)   XCENC  =      1288.98905232
  PAW double counting   =     67968.32131458   -69720.92586278
  entropy T*S    EENTRO =        -0.00091909
  eigenvalues    EBANDS =     -2259.89969389
  atomic energy  EATOM  =     68993.34587830
  Solvation  Ediel_sol  =         0.00000000
  ---------------------------------------------------
  free energy    TOTEN  =      -754.21496246 eV

  energy without entropy =     -754.21404337  energy(sigma->0) =     -754.21465610


--------------------------------------------------------------------------------------------------------




--------------------------------------- Iteration      1(   7)  ---------------------------------------


    POTLOK:  cpu time    0.4071: real time    0.4092
    SETDIJ:  cpu time    0.0330: real time    0.0331
    EDDIAG:  cpu time   11.7488: real time   11.7855
  RMM-DIIS:  cpu time   40.5764: real time   40.7045
    ORTHCH:  cpu time    1.2347: real time    1.2388
       DOS:  cpu time    0.0024: real time    0.0025
    CHARGE:  cpu time    4.3473: real time    4.3614
    MIXING:  cpu time    0.0121: real time    0.0123
    --------------------------------------------
      LOOP:  cpu time   58.3619: real time   58.5472

 eigenvalue-minimisations  :  9234
 total energy-change (2. order) : 0.2371599E+03  (-0.1714059E+02)
 number of electron     778.0000031 magnetization     187.9034341
 augmentation part      372.0030341 magnetization     153.0227032

 Broyden mixing:
  rms(total) = 0.14972E+02    rms(broyden)= 0.14972E+02
  rms(prec ) = 0.18194E+02
  weight for this iteration     100.00

 eigenvalues of (default mixing * dielectric matrix)
  average eigenvalue GAMMA=   0.2161
  0.2161  0.2161

 Free energy of the ion-electron system (eV)
  ---------------------------------------------------
  alpha Z        PSCENC =      1751.32544349
  Ewald energy   TEWEN  =    237191.73962967
  -Hartree energ DENC   =   -306569.55691118
  -exchange      EXHF   =         0.00000000
  -V(xc)+E(xc)   XCENC  =      1305.61230209
  PAW double counting   =     69014.10376370   -70931.30563340
  entropy T*S    EENTRO =        -0.00262590
  eigenvalues    EBANDS =     -1272.31692287
  atomic energy  EATOM  =     68993.34587830
  Solvation  Ediel_sol  =         0.00000000
  ---------------------------------------------------
  free energy    TOTEN  =      -517.05507611 eV

  energy without entropy =     -517.05245021  energy(sigma->0) =     -517.05420081


--------------------------------------------------------------------------------------------------------




--------------------------------------- Iteration      1(   8)  ---------------------------------------


    POTLOK:  cpu time    0.4051: real time    0.4076
    SETDIJ:  cpu time    0.0330: real time    0.0331
    EDDIAG:  cpu time   11.7075: real time   11.7436
  RMM-DIIS:  cpu time   40.6950: real time   40.8229
    ORTHCH:  cpu time    1.2325: real time    1.2388
       DOS:  cpu time    0.0027: real time    0.0027
    CHARGE:  cpu time    4.2468: real time    4.2628
    MIXING:  cpu time    0.0120: real time    0.0124
    --------------------------------------------
      LOOP:  cpu time   58.3345: real time   58.5239

 eigenvalue-minimisations  :  9264
 total energy-change (2. order) : 0.8623919E+02  (-0.1317218E+02)
 number of electron     778.0000040 magnetization     180.8633222
 augmentation part      380.7165613 magnetization     142.5896672

 Broyden mixing:
  rms(total) = 0.11824E+02    rms(broyden)= 0.11824E+02
  rms(prec ) = 0.13847E+02
  weight for this iteration     100.00

 eigenvalues of (default mixing * dielectric matrix)
  average eigenvalue GAMMA=   0.3161
  0.5722  0.2840  0.0919

 Free energy of the ion-electron system (eV)
  ---------------------------------------------------
  alpha Z        PSCENC =      1751.32544349
  Ewald energy   TEWEN  =    237191.73962967
  -Hartree energ DENC   =   -306431.95329348
  -exchange      EXHF   =         0.00000000
  -V(xc)+E(xc)   XCENC  =      1310.05541511
  PAW double counting   =     69719.56725043   -71658.59366565
  entropy T*S    EENTRO =         0.00137899
  eigenvalues    EBANDS =     -1306.30392582
  atomic energy  EATOM  =     68993.34587830
  Solvation  Ediel_sol  =         0.00000000
  ---------------------------------------------------
  free energy    TOTEN  =      -430.81588895 eV

  energy without entropy =     -430.81726794  energy(sigma->0) =     -430.81634861


--------------------------------------------------------------------------------------------------------




--------------------------------------- Iteration      1(   9)  ---------------------------------------


    POTLOK:  cpu time    0.4002: real time    0.4211
    SETDIJ:  cpu time    0.0315: real time    0.0317
    EDDIAG:  cpu time   11.6871: real time   11.7324
  RMM-DIIS:  cpu time   40.6341: real time   40.7772
    ORTHCH:  cpu time    1.2316: real time    1.2354
       DOS:  cpu time    0.0026: real time    0.0026
    CHARGE:  cpu time    4.1999: real time    4.2117
    MIXING:  cpu time    0.0127: real time    0.0128
    --------------------------------------------
      LOOP:  cpu time   58.1997: real time   58.4249

 eigenvalue-minimisations  :  9225
 total energy-change (2. order) :-0.1010754E+03  (-0.1715317E+02)
 number of electron     778.0000028 magnetization     174.7397547
 augmentation part      380.6983267 magnetization     141.6982824

 Broyden mixing:
  rms(total) = 0.16617E+02    rms(broyden)= 0.16617E+02
  rms(prec ) = 0.19092E+02
  weight for this iteration     100.00

 eigenvalues of (default mixing * dielectric matrix)
  average eigenvalue GAMMA=   0.3443
  0.8456  0.3106  0.1104  0.1104

 Free energy of the ion-electron system (eV)
  ---------------------------------------------------
  alpha Z        PSCENC =      1751.32544349
  Ewald energy   TEWEN  =    237191.73962967
  -Hartree energ DENC   =   -306178.64496639
  -exchange      EXHF   =         0.00000000
  -V(xc)+E(xc)   XCENC  =      1327.44114018
  PAW double counting   =     71347.43708676   -73349.89721692
  entropy T*S    EENTRO =        -0.00063938
  eigenvalues    EBANDS =     -1614.63768196
  atomic energy  EATOM  =     68993.34587830
  Solvation  Ediel_sol  =         0.00000000
  ---------------------------------------------------
  free energy    TOTEN  =      -531.89132625 eV

  energy without entropy =     -531.89068687  energy(sigma->0) =     -531.89111313


--------------------------------------------------------------------------------------------------------




--------------------------------------- Iteration      1(  10)  ---------------------------------------


    POTLOK:  cpu time    0.4014: real time    0.4121
    SETDIJ:  cpu time    0.0331: real time    0.0333
    EDDIAG:  cpu time   11.6833: real time   11.7342
  RMM-DIIS:  cpu time   40.6236: real time   40.7795
    ORTHCH:  cpu time    1.2383: real time    1.2418
       DOS:  cpu time    0.0026: real time    0.0026
    CHARGE:  cpu time    4.2329: real time    4.2462
    MIXING:  cpu time    0.0127: real time    0.0130
    --------------------------------------------
      LOOP:  cpu time   58.2280: real time   58.4627

 eigenvalue-minimisations  :  9244
 total energy-change (2. order) : 0.1143889E+03  (-0.1233200E+02)
 number of electron     778.0000036 magnetization     169.2791550
 augmentation part      381.7380466 magnetization     126.3063075

 Broyden mixing:
  rms(total) = 0.10565E+02    rms(broyden)= 0.10565E+02
  rms(prec ) = 0.13536E+02
  weight for this iteration     100.00

 eigenvalues of (default mixing * dielectric matrix)
  average eigenvalue GAMMA=   0.3506
  0.9429  0.4274  0.1465  0.1465  0.0897

 Free energy of the ion-electron system (eV)
  ---------------------------------------------------
  alpha Z        PSCENC =      1751.32544349
  Ewald energy   TEWEN  =    237191.73962967
  -Hartree energ DENC   =   -306584.12230812
  -exchange      EXHF   =         0.00000000
  -V(xc)+E(xc)   XCENC  =      1336.98933406
  PAW double counting   =     72652.98043720   -74716.24892934
  entropy T*S    EENTRO =         0.00351153
  eigenvalues    EBANDS =     -1043.51542639
  atomic energy  EATOM  =     68993.34587830
  Solvation  Ediel_sol  =         0.00000000
  ---------------------------------------------------
  free energy    TOTEN  =      -417.50242960 eV

  energy without entropy =     -417.50594113  energy(sigma->0) =     -417.50360011


--------------------------------------------------------------------------------------------------------




--------------------------------------- Iteration      1(  11)  ---------------------------------------


    POTLOK:  cpu time    0.4054: real time    0.4076
    SETDIJ:  cpu time    0.0336: real time    0.0338
    EDDIAG:  cpu time   11.7462: real time   11.7961
  RMM-DIIS:  cpu time   40.6794: real time   40.8078
    ORTHCH:  cpu time    1.2351: real time    1.2411
       DOS:  cpu time    0.0026: real time    0.0026
    CHARGE:  cpu time    4.2888: real time    4.3015
    MIXING:  cpu time    0.0132: real time    0.0133
    --------------------------------------------
      LOOP:  cpu time   58.4044: real time   58.6038

 eigenvalue-minimisations  :  9263
 total energy-change (2. order) : 0.5952190E+02  (-0.8826909E+01)
 number of electron     778.0000033 magnetization     165.1155407
 augmentation part      373.4961997 magnetization     122.8151121

 Broyden mixing:
  rms(total) = 0.95683E+01    rms(broyden)= 0.95682E+01
  rms(prec ) = 0.10399E+02
  weight for this iteration     100.00

 eigenvalues of (default mixing * dielectric matrix)
  average eigenvalue GAMMA=   0.3536
  1.0676  0.4728  0.1668  0.1668  0.1546  0.0928

 Free energy of the ion-electron system (eV)
  ---------------------------------------------------
  alpha Z        PSCENC =      1751.32544349
  Ewald energy   TEWEN  =    237191.73962967
  -Hartree energ DENC   =   -306799.94964371
  -exchange      EXHF   =         0.00000000
  -V(xc)+E(xc)   XCENC  =      1337.14116529
  PAW double counting   =     73542.69770093   -75642.10051496
  entropy T*S    EENTRO =        -0.00521803
  eigenvalues    EBANDS =      -732.17496761
  atomic energy  EATOM  =     68993.34587830
  Solvation  Ediel_sol  =         0.00000000
  ---------------------------------------------------
  free energy    TOTEN  =      -357.98052662 eV

  energy without entropy =     -357.97530860  energy(sigma->0) =     -357.97878728


--------------------------------------------------------------------------------------------------------




--------------------------------------- Iteration      1(  12)  ---------------------------------------


    POTLOK:  cpu time    0.4035: real time    0.4253
    SETDIJ:  cpu time    0.0330: real time    0.0332
    EDDIAG:  cpu time   11.7627: real time   11.8378
  RMM-DIIS:  cpu time   40.7200: real time   40.8496
    ORTHCH:  cpu time    1.2374: real time    1.2411
       DOS:  cpu time    0.0027: real time    0.0027
    CHARGE:  cpu time    4.2736: real time    4.2883
    MIXING:  cpu time    0.0128: real time    0.0136
    --------------------------------------------
      LOOP:  cpu time   58.4458: real time   58.6916

 eigenvalue-minimisations  :  9262
 total energy-change (2. order) :-0.1071254E+02  (-0.5438534E+01)
 number of electron     778.0000033 magnetization     160.6539088
 augmentation part      372.2703677 magnetization     121.9594645

 Broyden mixing:
  rms(total) = 0.11374E+02    rms(broyden)= 0.11373E+02
  rms(prec ) = 0.12811E+02
  weight for this iteration     100.00

 eigenvalues of (default mixing * dielectric matrix)
  average eigenvalue GAMMA=   0.3523
  1.1907  0.4177  0.3591  0.1444  0.1444  0.0961  0.1133

 Free energy of the ion-electron system (eV)
  ---------------------------------------------------
  alpha Z        PSCENC =      1751.32544349
  Ewald energy   TEWEN  =    237191.73962967
  -Hartree energ DENC   =   -306782.48068746
  -exchange      EXHF   =         0.00000000
  -V(xc)+E(xc)   XCENC  =      1333.13897958
  PAW double counting   =     74062.61567437   -76175.42459252
  entropy T*S    EENTRO =         0.00279949
  eigenvalues    EBANDS =      -742.95618708
  atomic energy  EATOM  =     68993.34587830
  Solvation  Ediel_sol  =         0.00000000
  ---------------------------------------------------
  free energy    TOTEN  =      -368.69306216 eV

  energy without entropy =     -368.69586165  energy(sigma->0) =     -368.69399532


--------------------------------------------------------------------------------------------------------




--------------------------------------- Iteration      1(  13)  ---------------------------------------


    POTLOK:  cpu time    0.4068: real time    0.4090
    SETDIJ:  cpu time    0.0332: real time    0.0332
    EDDIAG:  cpu time   11.6784: real time   11.7151
  RMM-DIIS:  cpu time   40.7145: real time   40.8432
    ORTHCH:  cpu time    1.2345: real time    1.2389
       DOS:  cpu time    0.0028: real time    0.0028
    CHARGE:  cpu time    4.2287: real time    4.2448
    MIXING:  cpu time    0.0139: real time    0.0140
    --------------------------------------------
      LOOP:  cpu time   58.3127: real time   58.5011

 eigenvalue-minimisations  :  9262
 total energy-change (2. order) : 0.3994902E+01  (-0.3698837E+01)
 number of electron     778.0000029 magnetization     156.3103076
 augmentation part      372.7108659 magnetization     117.5662133

 Broyden mixing:
  rms(total) = 0.98351E+01    rms(broyden)= 0.98350E+01
  rms(prec ) = 0.10981E+02
  weight for this iteration     100.00

 eigenvalues of (default mixing * dielectric matrix)
  average eigenvalue GAMMA=   0.3507
  1.2729  0.4613  0.4613  0.1479  0.1479  0.1304  0.0970  0.0873

 Free energy of the ion-electron system (eV)
  ---------------------------------------------------
  alpha Z        PSCENC =      1751.32544349
  Ewald energy   TEWEN  =    237191.73962967
  -Hartree energ DENC   =   -306888.45404537
  -exchange      EXHF   =         0.00000000
  -V(xc)+E(xc)   XCENC  =      1328.82800459
  PAW double counting   =     74595.21025776   -76718.26118708
  entropy T*S    EENTRO =         0.00498603
  eigenvalues    EBANDS =      -618.43712707
  atomic energy  EATOM  =     68993.34587830
  Solvation  Ediel_sol  =         0.00000000
  ---------------------------------------------------
  free energy    TOTEN  =      -364.69815968 eV

  energy without entropy =     -364.70314571  energy(sigma->0) =     -364.69982169


--------------------------------------------------------------------------------------------------------




--------------------------------------- Iteration      1(  14)  ---------------------------------------


    POTLOK:  cpu time    0.4053: real time    0.4073
    SETDIJ:  cpu time    0.0328: real time    0.0328
    EDDIAG:  cpu time   11.7033: real time   11.7395
  RMM-DIIS:  cpu time   40.7120: real time   40.8513
    ORTHCH:  cpu time    1.2372: real time    1.2407
       DOS:  cpu time    0.0027: real time    0.0027
    CHARGE:  cpu time    4.2472: real time    4.2607
    MIXING:  cpu time    0.0141: real time    0.0142
    --------------------------------------------
      LOOP:  cpu time   58.3546: real time   58.5492

 eigenvalue-minimisations  :  9258
 total energy-change (2. order) : 0.2470281E+02  (-0.2683986E+01)
 number of electron     778.0000034 magnetization     153.8093178
 augmentation part      371.2547073 magnetization     113.4934518

 Broyden mixing:
  rms(total) = 0.64017E+01    rms(broyden)= 0.64016E+01
  rms(prec ) = 0.69304E+01
  weight for this iteration     100.00

 eigenvalues of (default mixing * dielectric matrix)
  average eigenvalue GAMMA=   0.3367
  1.2845  0.4978  0.4978  0.1640  0.1640  0.1233  0.1233  0.0880  0.0880

 Free energy of the ion-electron system (eV)
  ---------------------------------------------------
  alpha Z        PSCENC =      1751.32544349
  Ewald energy   TEWEN  =    237191.73962967
  -Hartree energ DENC   =   -306953.60378613
  -exchange      EXHF   =         0.00000000
  -V(xc)+E(xc)   XCENC  =      1327.26925183
  PAW double counting   =     75079.85833240   -77212.39683100
  entropy T*S    EENTRO =        -0.01487694
  eigenvalues    EBANDS =      -517.51839338
  atomic energy  EATOM  =     68993.34587830
  Solvation  Ediel_sol  =         0.00000000
  ---------------------------------------------------
  free energy    TOTEN  =      -339.99535177 eV

  energy without entropy =     -339.98047482  energy(sigma->0) =     -339.99039279


--------------------------------------------------------------------------------------------------------




--------------------------------------- Iteration      1(  15)  ---------------------------------------


    POTLOK:  cpu time    0.4035: real time    0.4063
    SETDIJ:  cpu time    0.0333: real time    0.0334
    EDDIAG:  cpu time   11.7383: real time   11.7744
  RMM-DIIS:  cpu time   40.6928: real time   40.8365
    ORTHCH:  cpu time    1.2339: real time    1.2374
       DOS:  cpu time    0.0026: real time    0.0026
    CHARGE:  cpu time    4.2561: real time    4.2681
    MIXING:  cpu time    0.0146: real time    0.0147
    --------------------------------------------
      LOOP:  cpu time   58.3751: real time   58.5735

 eigenvalue-minimisations  :  9260
 total energy-change (2. order) : 0.3950739E+01  (-0.1168596E+01)
 number of electron     778.0000034 magnetization     150.7908291
 augmentation part      370.9736757 magnetization     111.7503120

 Broyden mixing:
  rms(total) = 0.51307E+01    rms(broyden)= 0.51307E+01
  rms(prec ) = 0.55360E+01
  weight for this iteration     100.00

 eigenvalues of (default mixing * dielectric matrix)
  average eigenvalue GAMMA=   0.3458
  1.3131  0.5888  0.5888  0.2117  0.2117  0.1335  0.1335  0.0987  0.0987  0.0798

 Free energy of the ion-electron system (eV)
  ---------------------------------------------------
[...]
   -.385E+02 0.128E+02 -.270E+04   0.389E+02 -.122E+02 0.270E+04   -.471E+00 -.523E+00 0.161E+01   0.203E-01 -.251E-01 -.212E-01
   -.735E+02 -.298E+02 -.283E+04   0.721E+02 0.303E+02 0.282E+04   0.144E+01 -.442E+00 0.265E+01   0.156E-01 0.158E-02 0.317E-01
   0.998E+02 0.137E+02 -.270E+04   -.993E+02 -.141E+02 0.270E+04   -.424E+00 0.488E+00 0.210E+01   -.856E-01 -.587E-01 -.491E-01
   0.135E+02 0.676E+01 -.291E+04   -.134E+02 -.774E+01 0.291E+04   -.967E-01 0.909E+00 0.274E+01   0.151E-01 0.511E-01 0.369E-01
   0.466E+02 0.279E+01 -.297E+04   -.470E+02 -.234E+01 0.296E+04   0.431E+00 -.387E+00 0.333E+01   0.299E-01 -.345E-01 0.263E-01
   0.210E+02 0.709E+02 -.272E+04   -.218E+02 -.705E+02 0.272E+04   0.816E+00 -.452E+00 0.200E+01   -.412E-01 0.284E-01 0.681E-01
   0.588E+02 0.734E+01 -.288E+04   -.577E+02 -.705E+01 0.288E+04   -.104E+01 -.312E+00 0.264E+01   -.248E-01 0.545E-01 0.668E-01
   -.976E+02 -.203E+02 -.284E+04   0.973E+02 0.198E+02 0.283E+04   0.309E+00 0.569E+00 0.170E+01   -.484E-02 -.315E-01 -.523E-02
   -.622E+02 -.342E+02 -.279E+04   0.623E+02 0.341E+02 0.278E+04   -.767E-01 0.157E-01 0.185E+01   0.217E-01 0.220E-01 -.245E-01
   -.468E+02 -.700E+02 -.286E+04   0.467E+02 0.693E+02 0.286E+04   0.154E+00 0.676E+00 0.215E+01   0.471E-01 -.386E-02 0.462E-01
   0.110E+03 0.567E+02 -.275E+04   -.108E+03 -.560E+02 0.275E+04   -.188E+01 -.686E+00 0.243E+01   -.278E-01 -.126E-01 -.218E-01
   0.875E+02 0.396E+02 -.273E+04   -.867E+02 -.390E+02 0.273E+04   -.795E+00 -.623E+00 0.210E+01   -.239E-01 0.502E-01 0.256E-01
   -.149E+02 -.371E+02 -.269E+04   0.143E+02 0.369E+02 0.269E+04   0.492E+00 0.194E+00 0.797E+00   0.285E-01 -.753E-01 -.314E-01
   -.365E+02 -.160E+02 -.277E+04   0.364E+02 0.159E+02 0.276E+04   0.168E+00 0.226E-01 0.187E+01   -.457E-01 0.127E-01 0.106E-01
   0.465E+02 -.636E+02 -.133E+04   -.454E+02 0.626E+02 0.132E+04   -.942E+00 0.877E+00 0.194E+01   -.413E-01 0.606E-01 0.609E-01
   -.110E+03 -.836E+02 -.148E+04   0.109E+03 0.831E+02 0.147E+04   0.122E+01 0.489E+00 0.231E+01   0.560E-01 0.130E-01 0.840E-01
   0.595E+02 0.536E+02 0.278E+04   -.587E+02 -.535E+02 -.278E+04   -.653E+00 -.427E+00 -.193E+01   -.835E-01 0.200E+00 0.280E-01
   -.119E+03 -.145E+03 0.197E+04   0.119E+03 0.145E+03 -.197E+04   -.142E+00 -.361E+00 0.136E+01   0.254E+00 0.265E-01 0.573E-01
   0.751E+02 0.688E+02 -.153E+04   -.743E+02 -.684E+02 0.153E+04   -.797E+00 -.398E+00 0.175E+01   -.383E-01 -.105E-01 0.900E-01
   0.797E+01 0.189E+03 0.297E+04   -.760E+01 -.187E+03 -.296E+04   -.216E+00 -.164E+01 -.200E+01   -.482E-01 -.128E+00 0.447E-01
   0.159E+03 0.263E+02 0.147E+04   -.158E+03 -.271E+02 -.147E+04   -.766E+00 0.966E+00 -.396E+00   -.178E-03 -.115E+00 0.553E-02
   -.195E+02 -.175E+02 -.275E+04   0.196E+02 0.172E+02 0.275E+04   -.103E+00 0.262E+00 0.778E+00   -.105E-01 0.372E-01 0.192E-01
   0.114E+03 0.892E+02 -.233E+03   -.114E+03 -.889E+02 0.233E+03   -.574E-01 -.250E+00 0.137E+00   -.767E-01 -.407E-02 -.139E-02
   -.152E+02 0.432E+02 -.292E+04   0.151E+02 -.428E+02 0.292E+04   0.912E-01 -.414E+00 0.268E+01   0.244E-01 0.564E-02 -.257E-01
   -.475E+02 -.454E+02 0.332E+03   0.473E+02 0.442E+02 -.333E+03   0.172E+00 0.123E+01 -.956E-01   0.898E-01 -.522E-01 0.733E-01
   -.862E+02 -.529E+02 -.144E+04   0.867E+02 0.523E+02 0.144E+04   -.449E+00 0.606E+00 0.200E+01   -.364E-01 0.400E-01 0.877E-01
   0.128E+02 0.840E+01 -.136E+04   -.136E+02 -.783E+01 0.136E+04   0.783E+00 -.508E+00 0.226E+01   -.427E-01 -.135E-01 0.479E-02
   -.683E+02 -.102E+03 -.254E+02   0.679E+02 0.102E+03 0.251E+02   0.425E+00 0.538E+00 0.313E+00   0.902E-01 0.583E-01 -.173E-01
   -.212E+02 -.293E+02 0.127E+03   0.218E+02 0.293E+02 -.128E+03   -.538E+00 -.791E-01 0.819E+00   -.644E-01 0.371E-01 0.548E-01
   -.724E+02 -.124E+03 -.121E+04   0.724E+02 0.123E+03 0.121E+04   -.165E-01 0.893E+00 0.770E+00   0.613E-01 -.300E-03 0.379E-01
   -.244E+01 0.110E+03 0.236E+04   0.367E+01 -.110E+03 -.236E+04   -.112E+01 -.359E+00 -.153E+01   0.468E-01 -.576E-02 0.467E-01
   0.751E+01 0.138E+03 0.248E+04   -.876E+01 -.137E+03 -.248E+04   0.105E+01 -.763E+00 -.242E+01   0.134E+00 -.637E-01 0.387E-01
   -.808E+01 0.875E+02 0.223E+04   0.780E+01 -.859E+02 -.223E+04   0.683E-01 -.139E+01 -.215E+01   0.158E+00 -.555E-01 0.657E-01
   0.126E+03 0.691E+02 0.108E+04   -.126E+03 -.693E+02 -.108E+04   -.285E+00 0.169E-01 0.207E-01   -.578E-01 0.921E-01 0.323E-01
   0.496E+02 -.599E+02 0.143E+04   -.491E+02 0.599E+02 -.143E+04   -.520E+00 0.167E-01 -.343E+00   -.299E-01 -.398E-01 0.134E-01
   -.723E+02 0.974E+01 -.140E+04   0.722E+02 -.958E+01 0.140E+04   0.142E+00 -.308E+00 0.282E+00   0.257E-01 0.646E-01 0.792E-01
   -.256E+03 -.128E+03 0.278E+04   0.255E+03 0.126E+03 -.277E+04   0.150E+01 0.153E+01 -.399E+01   0.461E-01 -.165E-01 0.334E-01
   -.161E+02 0.994E+02 0.132E+04   0.158E+02 -.992E+02 -.132E+04   0.447E+00 -.242E+00 -.669E+00   -.504E-01 -.796E-02 0.487E-01
   -.994E+02 -.867E+02 0.137E+03   0.992E+02 0.868E+02 -.137E+03   0.489E-01 -.171E+00 -.324E+00   0.818E-01 0.570E-01 0.550E-01
   0.146E+02 -.132E+03 -.147E+04   -.148E+02 0.132E+03 0.147E+04   0.168E+00 0.501E+00 0.296E+00   0.444E-01 0.365E-01 0.854E-01
   0.863E+02 0.132E+03 -.141E+04   -.864E+02 -.132E+03 0.141E+04   0.514E-02 -.637E+00 -.641E+00   -.110E-01 0.514E-02 0.446E-01
   -.797E+02 -.138E+03 0.273E+04   0.779E+02 0.137E+03 -.272E+04   0.157E+01 0.162E+01 -.329E+01   0.545E-01 -.540E-01 0.608E-01
   0.171E+02 -.253E+02 0.276E+04   -.175E+02 0.254E+02 -.276E+04   0.398E+00 -.128E+00 -.330E+01   -.101E+00 0.276E-02 0.615E-01
   0.227E+03 -.401E+02 0.247E+04   -.226E+03 0.398E+02 -.247E+04   -.130E+01 0.261E+00 -.199E+01   0.482E-01 0.637E-01 0.526E-01
   -.186E+03 -.298E+02 0.146E+04   0.186E+03 0.299E+02 -.146E+04   0.256E+00 -.240E-01 0.220E+00   -.907E-01 0.254E-01 0.874E-01
   -.192E+03 0.593E+02 0.678E+01   0.191E+03 -.589E+02 -.643E+01   0.348E+00 -.382E+00 -.485E+00   0.348E-02 -.145E-01 0.803E-01
   -.188E+03 -.405E+02 0.139E+04   0.189E+03 0.410E+02 -.139E+04   -.715E-01 -.425E+00 0.479E+00   -.121E-01 -.194E-01 0.991E-01
   0.274E+02 -.684E+02 0.135E+04   -.273E+02 0.680E+02 -.135E+04   -.388E-01 0.504E+00 -.554E-01   -.109E+00 0.335E-01 0.536E-01
   0.196E+03 0.475E+02 -.147E+04   -.195E+03 -.475E+02 0.147E+04   -.707E+00 0.195E+00 0.169E-01   0.221E-01 -.115E+00 0.517E-01
   0.180E+03 0.585E+01 0.274E+04   -.178E+03 -.589E+01 -.273E+04   -.187E+01 0.994E-01 -.327E+01   -.371E-01 -.653E-01 0.780E-01
   -.970E+02 0.354E+02 0.159E+04   0.972E+02 -.351E+02 -.159E+04   -.187E+00 -.418E+00 0.301E+00   -.861E-01 -.460E-02 0.552E-01
   0.113E+03 -.564E+02 -.999E+02   -.113E+03 0.564E+02 0.100E+03   -.365E+00 0.104E+00 -.164E+00   -.128E-01 -.569E-01 -.309E-01
   0.134E+03 0.308E+02 0.297E+04   -.134E+03 -.304E+02 -.297E+04   -.151E+00 -.310E+00 -.149E+01   -.172E+00 0.696E-01 0.697E-01
   -.531E+02 -.163E+03 0.172E+04   0.530E+02 0.163E+03 -.172E+04   -.559E-01 0.334E+00 0.140E+00   0.681E-01 0.993E-01 -.770E-02
   0.192E+03 -.899E+01 0.133E+04   -.192E+03 0.918E+01 -.134E+04   0.397E+00 -.631E-01 0.489E+00   0.634E-01 -.795E-01 0.321E-01
   -.126E+03 0.271E+02 0.201E+03   0.126E+03 -.271E+02 -.201E+03   0.390E+00 -.975E-01 -.353E+00   -.147E-01 0.234E-01 0.664E-01
   0.330E+01 0.565E+02 -.127E+04   -.312E+01 -.566E+02 0.127E+04   -.126E+00 0.176E+00 0.477E+00   -.600E-01 0.191E-01 0.606E-01
   -.131E+03 0.170E+02 -.161E+04   0.131E+03 -.166E+02 0.161E+04   0.303E+00 -.259E+00 0.531E+00   0.656E-01 -.906E-01 0.794E-01
   0.828E+02 0.198E+03 0.290E+04   -.828E+02 -.199E+03 -.290E+04   -.335E-01 -.631E-01 -.119E+01   0.151E-01 0.530E-01 0.229E-01
   -.194E+03 -.246E+02 0.312E+04   0.192E+03 0.250E+02 -.312E+04   0.215E+01 -.404E+00 -.412E+01   -.745E-01 0.199E-02 0.531E-01
   -.100E+02 -.437E+02 0.201E+03   0.102E+02 0.437E+02 -.201E+03   -.278E+00 -.188E-02 -.273E+00   0.105E+00 0.381E-01 -.114E-01
   -.834E+02 -.113E+02 -.729E+02   0.831E+02 0.108E+02 0.729E+02   0.273E+00 0.437E+00 -.640E-01   -.314E-01 0.827E-02 0.272E-01
   0.307E+02 0.204E+03 0.111E+04   -.310E+02 -.204E+03 -.111E+04   0.273E+00 -.445E+00 0.199E-01   0.678E-01 -.789E-02 0.685E-01
   0.148E+03 0.172E+02 -.218E+03   -.148E+03 -.179E+02 0.218E+03   0.192E+00 0.713E+00 -.448E+00   -.812E-01 0.502E-01 0.861E-02
   -.113E+02 -.980E+02 0.169E+03   0.117E+02 0.978E+02 -.169E+03   -.480E+00 -.153E-01 -.315E+00   0.109E-01 0.110E+00 -.230E-01
   -.170E+03 -.110E+03 0.165E+04   0.170E+03 0.110E+03 -.165E+04   0.282E-01 -.203E+00 -.317E+00   -.532E-01 0.451E-01 0.124E+00
   -.702E+02 0.705E+01 0.148E+04   0.706E+02 -.691E+01 -.148E+04   -.256E+00 -.122E+00 -.664E+00   0.331E-01 -.785E-01 0.721E-01
   -.272E+03 -.156E+03 0.302E+04   0.269E+03 0.155E+03 -.302E+04   0.226E+01 0.136E+01 -.367E+01   -.663E-01 0.509E-01 0.440E-01
   0.296E+03 -.678E+02 0.296E+04   -.294E+03 0.671E+02 -.296E+04   -.220E+01 0.767E+00 -.284E+01   -.519E-01 -.846E-01 0.116E+00
   0.885E+02 0.285E+02 0.151E+04   -.885E+02 -.286E+02 -.151E+04   0.117E+00 0.187E+00 0.148E-01   -.882E-01 -.486E-01 0.260E-01
   0.141E+03 0.111E+02 0.119E+04   -.141E+03 -.111E+02 -.119E+04   0.105E+00 -.289E-01 -.320E+00   -.103E+00 0.303E-01 -.455E-01
   0.901E+02 0.205E+02 -.156E+04   -.900E+02 -.206E+02 0.156E+04   -.104E+00 -.561E-01 -.332E+00   -.900E-01 0.760E-01 0.667E-01
   -.498E+00 -.997E+01 0.308E+04   0.631E+00 0.104E+02 -.308E+04   -.679E-01 -.408E+00 -.174E+01   -.148E+00 0.590E-02 0.370E-01
   0.658E+02 0.180E+03 -.530E+02   -.662E+02 -.180E+03 0.537E+02   0.417E+00 0.171E+00 -.778E+00   -.311E-01 -.507E-01 -.122E-02
   0.868E+01 0.974E+02 -.289E+02   -.892E+01 -.967E+02 0.290E+02   0.274E+00 -.650E+00 -.181E+00   -.223E-01 -.598E-01 0.217E-01
   0.231E+03 0.570E+02 -.244E+03   -.231E+03 -.566E+02 0.245E+03   0.327E+00 -.368E+00 -.624E+00   -.596E-01 -.111E+00 -.157E-01
   -.613E+02 -.116E+03 -.655E+01   0.614E+02 0.116E+03 0.627E+01   -.126E+00 0.276E+00 0.172E+00   0.471E-01 -.326E-02 0.785E-02
   -.259E+01 -.492E+01 -.322E+03   0.290E+01 0.521E+01 0.323E+03   -.318E+00 -.305E+00 -.133E+01   -.201E-02 -.785E-03 -.819E-02
 -----------------------------------------------------------------------------------------------
   -.110E+01 -.420E+00 -.969E+01   -.195E-12 0.790E-12 -.124E-10   0.166E+01 0.528E+00 0.676E+01   -.583E+00 -.510E-01 0.291E+01
 
 
 POSITION                                       TOTAL-FORCE (eV/Angst)
 -----------------------------------------------------------------------------------
     13.78448      8.54258      6.63023        -0.001657     -0.001581     -0.003104
      5.29428      8.54194      6.42592        -0.003705     -0.013829      0.010040
      5.13029      3.51567      6.84703         0.006773      0.002749     -0.003410
     15.25173      9.36234      8.79075        -0.005492     -0.000884     -0.010139
      3.87655      4.53303      9.02226        -0.002194     -0.013906      0.007898
      6.78518      9.28256      8.74854        -0.004565      0.000700     -0.008006
     12.34901      4.42111      9.07040        -0.003965      0.008044      0.004644
      9.55273      9.27204      9.13669         0.009982      0.012378      0.003897
     10.88498      2.05795      8.72731        -0.005158     -0.001356     -0.001440
      2.64573      2.06608      9.08994         0.004530      0.010230      0.001031
     12.39955      9.25008      9.00733         0.006086      0.010808      0.006536
     13.82867      6.93869      8.98717         0.004899      0.000591     -0.005482
      5.35994      1.92847      9.09981         0.000041      0.002770      0.001993
      8.18143      6.83165      8.84549        -0.007468     -0.010628      0.005029
      9.53675      4.44192      8.77675         0.003450      0.000984      0.007861
      5.30204      6.94952      8.86335         0.004205     -0.003967      0.012828
      8.16460      1.94994      8.88962        -0.003993      0.000030      0.007377
      7.98767      3.37520      6.61804        -0.003972     -0.001923      0.004747
      6.55037      1.09816      6.78514         0.009964      0.018129      0.006312
      6.83385      1.22925      1.47033        -0.005899      0.030853     -0.003071
      3.61235      3.96468      2.61995        -0.009570      0.012892      0.007015
      1.43654      1.44170      6.82790        -0.001432      0.003571      0.003035
      0.67127      0.98910      1.08188        -0.013327     -0.015450      0.000167
      6.74807      9.00879      3.12342        -0.014994      0.011973     -0.023128
      6.75632      4.33834      8.98110        -0.017293      0.003033      0.002421
      8.49330      5.38439      5.05378        -0.041758      0.033301      0.032063
     11.00061      6.87779      9.09651         0.000022     -0.006892     -0.002079
     14.94884      7.37673      4.49249         0.041711     -0.014096     -0.009728
     12.48313      6.13559      6.83571         0.003735     -0.006734     -0.002311
      6.48881      5.90124      6.68029        -0.004882      0.002403     -0.008346
      3.57422      2.54624      4.95878        -0.012358     -0.019743     -0.028120
     11.12614      5.45251      4.71025         0.002013      0.000008     -0.006355
      3.88605      5.90875      6.70554        -0.002529     -0.006256     -0.004246
     13.73438      8.58852      1.76277        -0.005865     -0.022572     -0.034581
      4.87663      8.41395      1.57788         0.008095      0.009196      0.023465
      3.75877      6.38414      2.06092         0.023343      0.000641      0.016003
      8.35850      2.27224      3.29405         0.002640     -0.004186      0.001771
      9.33367      9.15886      2.96349        -0.003213     -0.002674      0.029182
      2.48216      3.84528      6.95737         0.001524      0.004172     -0.000379
      1.94892      3.12368      0.97734         0.002966      0.006347      0.005734
     10.75187      2.21221      3.05623        -0.000733      0.008606      0.001502
     13.77799      5.05868      4.81470        -0.013740      0.008438     -0.021155
      3.95794      0.96625      7.02397        -0.001576      0.004794      0.002000
      9.83424      6.29104      6.97289         0.007759      0.007347      0.010548
      3.32747      0.88717      1.07332        -0.003384      0.007574     -0.011421
      9.37038      5.94444      1.03355         0.029051      0.009945     -0.037370
      5.77436      3.51120      1.58883         0.007978      0.009581      0.003551
     11.78080      9.10211      3.01275        -0.008452     -0.010455      0.019345
     12.14221      7.86485      4.90717        -0.018276     -0.013826     -0.001006
     12.89855      6.59993      3.08536         0.002801     -0.000815      0.015532
      9.60902      4.40928      2.93166        -0.008182     -0.014351      0.002631
      8.49400      8.48369      6.96345         0.004134     -0.001964     -0.003547
      8.12654      8.25967      1.10014        -0.019071      0.008006     -0.002979
     10.59532      7.05732      2.72628        -0.003871     -0.000763      0.015970
      2.64345      0.12582      5.05287         0.020335     -0.030567     -0.032176
      8.18206      3.50560      1.21995        -0.008569     -0.032180      0.008370
      4.79851      1.62222      2.89617        -0.004710     -0.005545      0.021638
      5.80940      6.64990      3.24762        -0.008960      0.002719     -0.022591
      7.65468      0.41297      4.68699        -0.009738     -0.006748     -0.013130
      9.45972      1.12994      6.53541        -0.006858      0.003620     -0.000208
     10.92327      8.49665      6.95280        -0.001829      0.000463     -0.008464
      9.36237      1.19334      1.33066         0.031545      0.006277     -0.000324
     10.65631      8.73216      0.98021         0.003614     -0.007549     -0.016241
      5.03147      4.91039      4.71650         0.047919      0.051728      0.033026
     12.26834      3.06562      4.96160         0.005054      0.023103     -0.070935
      9.64277      0.01896      3.43463         0.021591      0.004229      0.020331
      9.85949      3.06130      5.05334         0.023574     -0.006507      0.010600
      6.31739      2.58312      4.70295        -0.024760      0.001473     -0.011047
     12.25313      4.17493      2.83324         0.002410      0.000516     -0.002685
      2.09525      1.75623      3.07324         0.007902     -0.001921      0.026201
     11.83128      5.72145      1.13423         0.030188      0.001351     -0.000927
      6.85743      5.74904      1.30355        -0.002343     -0.007716      0.008429
      8.21979      6.81570      3.00225        -0.001726      0.002798      0.005149
      7.04013      4.41026      3.27464         0.001232     -0.002803      0.002910
     11.13262      3.89319      6.89916        -0.010687      0.003898     -0.004554
     10.73608      3.41609      1.01158         0.004790     -0.012309     -0.004120
     11.35396      0.81935      4.88330        -0.012148      0.003758      0.010702
      9.67608      7.72321      4.95729        -0.007691      0.005767     -0.003858
      7.20385      7.63915      5.11888        -0.015741     -0.046067      0.003633
      5.07803      0.26935      4.93904        -0.009735     -0.005881     -0.030126
      6.51301      5.93787      9.71983        -0.009788     -0.007148      0.029673
 -----------------------------------------------------------------------------------
    total drift:                               -0.028692      0.056576     -0.011940


--------------------------------------------------------------------------------------------------------



  FREE ENERGIE OF THE ION-ELECTRON SYSTEM (eV)
  ---------------------------------------------------
  free  energy   TOTEN  =      -503.43951130 eV

  energy  without entropy=     -503.46606175  energy(sigma->0) =     -503.44836145
 
 d Force = 0.8381706E-03[ 0.487E-03, 0.119E-02]  d Energy = 0.8568924E-03-0.187E-04
 d Force = 0.8208496E+01[ 0.820E+01, 0.821E+01]  d Ewald  = 0.8208497E+01-0.908E-06


--------------------------------------------------------------------------------------------------------


    POTLOK:  cpu time    0.4356: real time    0.4380


--------------------------------------------------------------------------------------------------------


 Conjugate gradient step on ions:
 trial-energy change:   -0.000857  1 .order   -0.000838   -0.001190   -0.000487
  (g-gl).g = 0.756E-03      g.g   = 0.762E-03  gl.gl    = 0.148E-02
 g(Force)  = 0.762E-03   g(Stress)= 0.000E+00 ortho     =-0.417E-04
 gamma     =   0.51199
 trial     =   1.60568
 opt step  =   2.71721  (harmonic =   2.71721) maximal distance =0.01320791
 next E    =  -503.439661   (d E  =  -0.00101)


--------------------------------------------------------------------------------------------------------


  
 reached required accuracy - stopping structural energy minimisation
     LOOP+:  cpu time  425.6545: real time  428.0941
    4ORBIT:  cpu time    0.0000: real time    0.0000

 total amount of memory used by VASP MPI-rank0   243557. kBytes
=======================================================================

   base      :      30000. kBytes
   nonlr-proj:      33158. kBytes
   fftplans  :      18297. kBytes
   grid      :      51226. kBytes
   one-center:        653. kBytes
   wavefun   :     110223. kBytes
 
  
  
 General timing and accounting informations for this job:
 ========================================================
  
                  Total CPU time used (sec):    12638.000
                            User time (sec):    12288.774
                          System time (sec):      349.227
                         Elapsed time (sec):    12706.721
  
                   Maximum memory used (kb):      435212.
                   Average memory used (kb):           0.
  
                          Minor page faults:      3313912
                          Major page faults:          247
                 Voluntary context switches:         9507
