 vasp.5.4.4.18Apr17-6-g9f103f2a35 (build Oct 25 2019 11:13:22) complex          
  
 executed on             LinuxIFC date 2022.02.13  03:24:38
 running on   48 total cores
 distrk:  each k-point on   48 cores,    1 groups
 distr:  one band on NCORES_PER_BAND=   1 cores,   48 groups


--------------------------------------------------------------------------------------------------------


 INCAR:
 POTCAR:    PAW_PBE Pt 04Feb2005                  
 POTCAR:    PAW_PBE Co 02Aug2007                  
 POTCAR:    PAW_PBE Ni 02Aug2007                  
 POTCAR:    PAW_PBE H 15Jun2001                   

 ----------------------------------------------------------------------------- 
|                                                                             |
|           W    W    AA    RRRRR   N    N  II  N    N   GGGG   !!!           |
|           W    W   A  A   R    R  NN   N  II  NN   N  G    G  !!!           |
|           W    W  A    A  R    R  N N  N  II  N N  N  G       !!!           |
|           W WW W  AAAAAA  RRRRR   N  N N  II  N  N N  G  GGG   !            |
|           WW  WW  A    A  R   R   N   NN  II  N   NN  G    G                |
|           W    W  A    A  R    R  N    N  II  N    N   GGGG   !!!           |
|                                                                             |
|      For optimal performance we recommend to set                            |
|        NCORE= 4 - approx SQRT( number of cores)                             |
|      NCORE specifies how many cores store one orbital (NPAR=cpu/NCORE).     |
|      This setting can  greatly improve the performance of VASP for DFT.     |
|      The default,   NCORE=1            might be grossly inefficient         |
|      on modern multi-core architectures or massively parallel machines.     |
|      Do your own testing !!!!                                               |
|      Unfortunately you need to use the default for GW and RPA calculations. |
|      (for HF NCORE is supported but not extensively tested yet)             |
|                                                                             |
 ----------------------------------------------------------------------------- 

 POTCAR:    PAW_PBE Pt 04Feb2005                  
   VRHFIN =Pt: s1d9                                                             
   LEXCH  = PE                                                                  
   EATOM  =   729.1176 eV,   53.5886 Ry                                         
                                                                                
   TITEL  = PAW_PBE Pt 04Feb2005                                                
   LULTRA =        F    use ultrasoft PP ?                                      
   IUNSCR =        1    unscreen: 0-lin 1-nonlin 2-no                           
   RPACOR =    2.330    partial core radius                                     
   POMASS =  195.080; ZVAL   =   10.000    mass and valenz                      
   RCORE  =    2.600    outmost cutoff radius                                   
   RWIGS  =    2.750; RWIGS  =    1.455    wigner-seitz radius (au A)           
   ENMAX  =  230.283; ENMIN  =  172.712 eV                                      
   ICORE  =        3    local potential                                         
   LCOR   =        T    correct aug charges                                     
   LPAW   =        T    paw PP                                                  
   EAUG   =  358.966                                                            
   DEXC   =    0.000                                                            
   RMAX   =    2.658    core radius for proj-oper                               
   RAUG   =    1.300    factor for augmentation sphere                          
   RDEP   =    2.761    radius for radial grids                                 
   RDEPT  =    2.203    core radius for aug-charge                              
                                                                                
   Atomic configuration                                                         
   16 entries                                                                   
     n  l   j            E        occ.                                          
     1  0  0.50    -78401.1885   2.0000                                         
     2  0  0.50    -13770.7750   2.0000                                         
     2  1  1.50    -11931.0468   6.0000                                         
     3  0  0.50     -3234.7234   2.0000                                         
     3  1  1.50     -2699.2216   6.0000                                         
     3  2  2.50     -2119.5714  10.0000                                         
     4  0  0.50      -695.1528   2.0000                                         
     4  1  1.50      -519.6034   6.0000                                         
     4  2  2.50      -306.6786  10.0000                                         
     4  3  3.50       -70.1041  14.0000                                         
     5  0  0.50      -101.7747   2.0000                                         
     5  1  1.50       -55.9873   6.0000                                         
     5  2  2.50        -6.1423   9.0000                                         
     6  0  0.50        -5.6573   1.0000                                         
     6  1  1.50        -6.8029   0.0000                                         
     5  3  2.50        -1.3606   0.0000                                         
   Description                                                                  
     l       E           TYP  RCUT    TYP  RCUT                                 
     2     -6.1423404     23  2.500                                             
     2     -7.5029230     23  2.500                                             
     0     -5.6573207     23  2.500                                             
     0      0.7416693     23  2.500                                             
     1     -2.7211652     23  2.600                                             
     1     20.4087390     23  2.600                                             
     3     -1.3605826     23  2.500                                             
  local pseudopotential read in
  partial core-charges read in
  partial kinetic energy density read in
  atomic valenz-charges read in
  non local Contribution for L=           2  read in
    real space projection operators read in
  non local Contribution for L=           2  read in
    real space projection operators read in
  non local Contribution for L=           0  read in
    real space projection operators read in
  non local Contribution for L=           0  read in
    real space projection operators read in
  non local Contribution for L=           1  read in
    real space projection operators read in
  non local Contribution for L=           1  read in
    real space projection operators read in
    PAW grid and wavefunctions read in
 
   number of l-projection  operators is LMAX  =           6
   number of lm-projection operators is LMMAX =          18
 
 POTCAR:    PAW_PBE Co 02Aug2007                  
   VRHFIN =Co: d8 s1                                                            
   LEXCH  = PE                                                                  
   EATOM  =   813.3670 eV,   59.7808 Ry                                         
                                                                                
   TITEL  = PAW_PBE Co 02Aug2007                                                
   LULTRA =        F    use ultrasoft PP ?                                      
   IUNSCR =        1    unscreen: 0-lin 1-nonlin 2-no                           
   RPACOR =    2.000    partial core radius                                     
   POMASS =   58.933; ZVAL   =    9.000    mass and valenz                      
   RCORE  =    2.300    outmost cutoff radius                                   
   RWIGS  =    2.460; RWIGS  =    1.302    wigner-seitz radius (au A)           
   ENMAX  =  267.968; ENMIN  =  200.976 eV                                      
   RCLOC  =    1.203    cutoff for local pot                                    
   LCOR   =        T    correct aug charges                                     
   LPAW   =        T    paw PP                                                  
   EAUG   =  477.818                                                            
   DEXC   =    0.000                                                            
   RMAX   =    2.360    core radius for proj-oper                               
   RAUG   =    1.300    factor for augmentation sphere                          
   RDEP   =    2.393    radius for radial grids                                 
   RDEPT  =    1.864    core radius for aug-charge                              
                                                                                
   Atomic configuration                                                         
    9 entries                                                                   
     n  l   j            E        occ.                                          
     1  0  0.50     -7587.6674   2.0000                                         
     2  0  0.50      -893.6084   2.0000                                         
     2  1  1.50      -764.5805   6.0000                                         
     3  0  0.50       -97.5973   2.0000                                         
     3  1  1.50       -60.9648   6.0000                                         
     3  2  2.50        -4.2382   8.0000                                         
     4  0  0.50        -4.3746   1.0000                                         
     4  1  1.50        -4.0817   0.0000                                         
     4  3  2.50        -1.3606   0.0000                                         
   Description                                                                  
     l       E           TYP  RCUT    TYP  RCUT                                 
     2     -4.2382362     23  2.300                                             
     2     -5.5988188     23  2.300                                             
     0     -4.3745797     23  2.300                                             
     0      5.7660125     23  2.300                                             
     1     -2.7211652     23  2.300                                             
     1     16.9860234     23  2.300                                             
  local pseudopotential read in
  partial core-charges read in
  partial kinetic energy density read in
  atomic valenz-charges read in
  non local Contribution for L=           2  read in
    real space projection operators read in
  non local Contribution for L=           2  read in
    real space projection operators read in
  non local Contribution for L=           0  read in
    real space projection operators read in
  non local Contribution for L=           0  read in
    real space projection operators read in
  non local Contribution for L=           1  read in
    real space projection operators read in
  non local Contribution for L=           1  read in
    real space projection operators read in
    PAW grid and wavefunctions read in
 
   number of l-projection  operators is LMAX  =           6
   number of lm-projection operators is LMMAX =          18
 
 POTCAR:    PAW_PBE Ni 02Aug2007                  
   VRHFIN =Ni:                                                                  
   LEXCH  = PE                                                                  
   EATOM  =  1077.6739 eV,   79.2068 Ry                                         
                                                                                
   TITEL  = PAW_PBE Ni 02Aug2007                                                
   LULTRA =        F    use ultrasoft PP ?                                      
   IUNSCR =        1    unscreen: 0-lin 1-nonlin 2-no                           
   RPACOR =    2.000    partial core radius                                     
   POMASS =   58.690; ZVAL   =   10.000    mass and valenz                      
   RCORE  =    2.300    outmost cutoff radius                                   
   RWIGS  =    2.430; RWIGS  =    1.286    wigner-seitz radius (au A)           
   ENMAX  =  269.532; ENMIN  =  202.149 eV                                      
   RCLOC  =    1.201    cutoff for local pot                                    
   LCOR   =        T    correct aug charges                                     
   LPAW   =        T    paw PP                                                  
   EAUG   =  544.565                                                            
   DEXC   =    0.000                                                            
   RMAX   =    2.357    core radius for proj-oper                               
   RAUG   =    1.300    factor for augmentation sphere                          
   RDEP   =    2.390    radius for radial grids                                 
   RDEPT  =    1.838    core radius for aug-charge                              
                                                                                
   Atomic configuration                                                         
    9 entries                                                                   
     n  l   j            E        occ.                                          
     1  0  0.50     -8206.4253   2.0000                                         
     2  0  0.50      -976.1748   2.0000                                         
     2  1  1.50      -839.0571   6.0000                                         
     3  0  0.50      -105.9991   2.0000                                         
     3  1  1.50       -66.4603   6.0000                                         
     3  2  2.50        -4.6458   9.0000                                         
     4  0  0.50        -4.4926   1.0000                                         
     4  1  1.50        -4.0817   0.0000                                         
     4  3  2.50        -1.3606   0.0000                                         
   Description                                                                  
     l       E           TYP  RCUT    TYP  RCUT                                 
     2     -4.6457903     23  2.300                                             
     2     -6.0063729     23  2.300                                             
     0     -4.4925590     23  2.300                                             
     0      5.0102601     23  2.300                                             
     1     -2.7211652     23  2.300                                             
     1     16.5183231     23  2.300                                             
  local pseudopotential read in
  partial core-charges read in
  partial kinetic energy density read in
  atomic valenz-charges read in
  non local Contribution for L=           2  read in
    real space projection operators read in
  non local Contribution for L=           2  read in
    real space projection operators read in
  non local Contribution for L=           0  read in
    real space projection operators read in
  non local Contribution for L=           0  read in
    real space projection operators read in
  non local Contribution for L=           1  read in
    real space projection operators read in
  non local Contribution for L=           1  read in
    real space projection operators read in
    PAW grid and wavefunctions read in
 
   number of l-projection  operators is LMAX  =           6
   number of lm-projection operators is LMMAX =          18
 
 POTCAR:    PAW_PBE H 15Jun2001                   
   VRHFIN =H: ultrasoft test                                                    
   LEXCH  = PE                                                                  
   EATOM  =    12.4884 eV,    0.9179 Ry                                         
                                                                                
   TITEL  = PAW_PBE H 15Jun2001                                                 
   LULTRA =        F    use ultrasoft PP ?                                      
   IUNSCR =        0    unscreen: 0-lin 1-nonlin 2-no                           
   RPACOR =    0.000    partial core radius                                     
   POMASS =    1.000; ZVAL   =    1.000    mass and valenz                      
   RCORE  =    1.100    outmost cutoff radius                                   
   RWIGS  =    0.700; RWIGS  =    0.370    wigner-seitz radius (au A)           
   ENMAX  =  250.000; ENMIN  =  200.000 eV                                      
   RCLOC  =    0.701    cutoff for local pot                                    
   LCOR   =        T    correct aug charges                                     
   LPAW   =        T    paw PP                                                  
   EAUG   =  400.000                                                            
   RMAX   =    1.123    core radius for proj-oper                               
   RAUG   =    1.200    factor for augmentation sphere                          
   RDEP   =    1.112    radius for radial grids                                 
   RDEPT  =    0.926    core radius for aug-charge                              
                                                                                
   Atomic configuration                                                         
    2 entries                                                                   
     n  l   j            E        occ.                                          
     1  0  0.50        -6.4927   1.0000                                         
     2  1  0.50        -3.4015   0.0000                                         
   Description                                                                  
     l       E           TYP  RCUT    TYP  RCUT                                 
     0     -6.4927494     23  1.100                                             
     0      6.8029130     23  1.100                                             
     1     -4.0817478     23  1.100                                             
  local pseudopotential read in
  atomic valenz-charges read in
  non local Contribution for L=           0  read in
    real space projection operators read in
  non local Contribution for L=           0  read in
    real space projection operators read in
  non local Contribution for L=           1  read in
    real space projection operators read in
    PAW grid and wavefunctions read in
 
   number of l-projection  operators is LMAX  =           3
   number of lm-projection operators is LMMAX =           5
 
 Optimization of the real space projectors (new method)

 maximal supplied QI-value         = 14.36
 optimisation between [QCUT,QGAM] = [ 11.92, 23.98] = [ 39.79,161.09] Ry 
 Optimized for a Real-space Cutoff    1.49 Angstroem

   l    n(q)    QCUT    max X(q) W(low)/X(q) W(high)/X(q)  e(spline) 
   2     10    11.920    66.195    0.79E-04    0.18E-03    0.24E-06
   2     10    11.920    64.643    0.81E-04    0.19E-03    0.24E-06
   0     11    11.920    95.520    0.28E-04    0.54E-04    0.18E-06
   0     11    11.920    63.403    0.27E-04    0.52E-04    0.17E-06
   1     10    11.920    19.961    0.18E-04    0.11E-03    0.23E-06
   1     10    11.920    13.289    0.25E-04    0.87E-04    0.19E-06
 Optimization of the real space projectors (new method)

 maximal supplied QI-value         = 16.25
 optimisation between [QCUT,QGAM] = [ 11.86, 23.89] = [ 39.41,159.82] Ry 
 Optimized for a Real-space Cutoff    1.33 Angstroem

   l    n(q)    QCUT    max X(q) W(low)/X(q) W(high)/X(q)  e(spline) 
   2      9    11.864    65.824    0.22E-03    0.53E-03    0.26E-06
   2      9    11.864    61.429    0.22E-03    0.53E-03    0.26E-06
   0      9    11.864    56.174    0.21E-03    0.32E-04    0.15E-06
   0      9    11.864    31.263    0.19E-03    0.30E-04    0.14E-06
   1      9    11.864    19.828    0.63E-04    0.30E-03    0.16E-06
   1      9    11.864    15.139    0.49E-04    0.25E-03    0.13E-06
 Optimization of the real space projectors (new method)

 maximal supplied QI-value         = 16.25
 optimisation between [QCUT,QGAM] = [ 11.86, 23.89] = [ 39.41,159.82] Ry 
 Optimized for a Real-space Cutoff    1.33 Angstroem

   l    n(q)    QCUT    max X(q) W(low)/X(q) W(high)/X(q)  e(spline) 
   2      9    11.864    60.317    0.21E-03    0.51E-03    0.25E-06
   2      9    11.864    55.921    0.21E-03    0.51E-03    0.26E-06
   0      9    11.864    51.690    0.22E-03    0.30E-04    0.17E-06
   0      9    11.864    30.015    0.20E-03    0.28E-04    0.15E-06
   1      9    11.864    18.849    0.76E-04    0.33E-03    0.17E-06
   1      9    11.864    14.624    0.60E-04    0.28E-03    0.15E-06
 Optimization of the real space projectors (new method)

 maximal supplied QI-value         = 34.20
 optimisation between [QCUT,QGAM] = [ 11.97, 23.94] = [ 40.13,160.53] Ry 
 Optimized for a Real-space Cutoff    1.18 Angstroem

   l    n(q)    QCUT    max X(q) W(low)/X(q) W(high)/X(q)  e(spline) 
   0      8    11.971    19.460    0.15E-03    0.31E-03    0.25E-06
   0      8    11.971    12.209    0.13E-03    0.29E-03    0.25E-06
   1      8    11.971     4.655    0.22E-03    0.24E-03    0.21E-06
  PAW_PBE Pt 04Feb2005                  :
 energy of atom  1       EATOM= -729.1176
 kinetic energy error for atom=    0.0021 (will be added to EATOM!!)
  PAW_PBE Co 02Aug2007                  :
 energy of atom  2       EATOM= -813.3670
 kinetic energy error for atom=    0.0026 (will be added to EATOM!!)
  PAW_PBE Ni 02Aug2007                  :
 energy of atom  3       EATOM=-1077.6739
 kinetic energy error for atom=    0.0027 (will be added to EATOM!!)
  PAW_PBE H 15Jun2001                   :
 energy of atom  4       EATOM=  -12.4884
 kinetic energy error for atom=    0.0008 (will be added to EATOM!!)
 
 
 POSCAR: 11.26                                   
  positions in cartesian coordinates
  No initial velocities read in
 exchange correlation table for  LEXCH =        8
   RHO(1)=    0.500       N(1)  =     2000
   RHO(2)=  100.500       N(2)  =     4000
 


--------------------------------------------------------------------------------------------------------


 ion  position               nearest neighbor table
   1  0.789  0.878  0.301-  49 2.47  59 2.57  60 2.65  28 2.70   4 2.74   2 2.74  29 2.75  19 2.80
                            12 2.84  11 2.84  61 2.86  33 2.94
   2  0.032  0.880  0.292-  79 2.48  77 2.55  60 2.72   1 2.74  28 2.74   4 2.81   6 2.85  16 2.89
                            30 2.92  33 3.00  22 3.19  52 3.27
   3  0.277  0.361  0.311-  64 2.55  68 2.61  31 2.62  39 2.67   5 2.71  33 2.72  30 2.75  13 2.76
                            25 2.77  19 2.80  43 2.80  18 2.88
   4  0.877  0.964  0.399-   9 2.70  60 2.71  17 2.73   1 2.74   6 2.76  16 2.77  12 2.80   2 2.81
                            11 2.85
   5  0.116  0.468  0.410-  39 2.62  33 2.69   3 2.71  12 2.73   7 2.73  16 2.76  10 2.78  25 2.81
                            13 2.99
   6  0.128  0.953  0.397-  52 2.60  22 2.71   4 2.76  16 2.76  14 2.77   8 2.80   2 2.85   9 2.91
                            10 2.96
   7  0.880  0.454  0.414-  81 1.92  39 2.58  75 2.59   5 2.73  10 2.76  29 2.84   9 2.84  27 2.89
                            12 2.92  15 2.97
   8  0.374  0.955  0.415-  43 2.54  52 2.54  61 2.70  27 2.76  13 2.77   6 2.80  10 2.82  11 2.86
                            14 2.88
   9  0.867  0.210  0.397-  75 2.60  22 2.66   4 2.70  17 2.74  60 2.79  15 2.79   7 2.84   6 2.91
                            10 3.00
  10  0.130  0.214  0.413-  22 2.64  43 2.68  13 2.72   7 2.76   5 2.78  39 2.79   8 2.82   6 2.96
                             9 3.00
  11  0.630  0.953  0.410-  61 2.65  27 2.72  12 2.72  19 2.73  17 2.78  13 2.79   1 2.84   4 2.85
                             8 2.86
  12  0.877  0.715  0.408-  29 2.68  16 2.69  11 2.72   5 2.73  33 2.80   4 2.80   1 2.84  27 2.86
                             7 2.92
  13  0.379  0.199  0.414-  43 2.68  10 2.72  19 2.73   3 2.76   8 2.77  11 2.79  25 2.80  17 2.80
                             5 2.99
  14  0.370  0.702  0.400-  52 2.51  44 2.56  15 2.76   6 2.77  16 2.78  25 2.81  30 2.85   8 2.88
                            27 2.93
  15  0.616  0.456  0.400-  81 1.81  75 2.56  44 2.62  25 2.75  14 2.76   9 2.79  17 2.80  18 2.82
                            27 2.95   7 2.97
  16  0.118  0.712  0.400-  30 2.66  12 2.69  33 2.74   6 2.76   5 2.76   4 2.77  14 2.78   2 2.89
                            25 2.91
  17  0.628  0.201  0.405-  18 2.69   4 2.73   9 2.74  11 2.78  19 2.79  15 2.80  13 2.80  25 2.82
                            60 2.82
  18  0.540  0.347  0.301-  67 2.45  26 2.60  60 2.67  68 2.68  17 2.69  19 2.70  25 2.82  15 2.82
                             3 2.88  30 2.94  75 3.18
  19  0.528  0.113  0.308-  59 2.46  80 2.51  68 2.57  43 2.61  61 2.64  18 2.70  13 2.73  11 2.73
                            17 2.79   3 2.80   1 2.80  60 2.91
  20  0.546  0.126  0.067-  48 2.50  57 2.52  47 2.52  62 2.53  37 2.60  56 2.66  34 2.70  63 2.89

  21  0.118  0.408  0.119-  47 2.44  40 2.48  36 2.49  69 2.60  57 2.64  42 2.67  64 2.70  70 2.72
                            31 2.74  50 3.30
  22  0.055  0.149  0.310-  77 2.43  65 2.50  55 2.52  43 2.57  39 2.62  10 2.64   9 2.66   6 2.71
                            75 2.90  31 3.04  52 3.05   2 3.19  60 3.24
  23  0.009  0.102  0.049-  40 2.49  62 2.55  70 2.57  41 2.59  45 2.66  76 2.69  24 2.70  35 2.74
                            53 3.07
  24  0.138  0.927  0.142-  79 2.46  35 2.50  77 2.54  58 2.54  53 2.56  55 2.59  38 2.59  73 2.64
                            70 2.65  23 2.70  66 2.83
  25  0.374  0.450  0.406-  15 2.75  30 2.75   3 2.77  13 2.80  14 2.81   5 2.81  18 2.82  17 2.82
                            16 2.91
  26  0.480  0.554  0.230-  74 2.50  73 2.52  44 2.52  51 2.59  79 2.60  18 2.60  30 2.62  78 2.62
                            32 2.66  67 2.70
  27  0.624  0.713  0.415-  81 1.86  44 2.52  61 2.69  11 2.72   8 2.76  29 2.83  12 2.86   7 2.89
                            14 2.93  15 2.95
  28  0.953  0.759  0.204-  58 2.53  50 2.61  66 2.61  42 2.62  36 2.63  33 2.66   1 2.70   2 2.74
                            64 2.80  49 2.88  34 3.22  59 3.23  35 3.30
  29  0.796  0.631  0.311-  39 2.60  75 2.61  32 2.61  49 2.62  42 2.64  33 2.64  44 2.65  12 2.68
                             1 2.75  61 2.83  27 2.83   7 2.84
  30  0.274  0.606  0.302-  79 2.43  33 2.60  64 2.61  26 2.62  16 2.66   3 2.75  25 2.75  14 2.85
                             2 2.92  18 2.94
  31  0.187  0.262  0.225-  70 2.52  57 2.57  65 2.58  55 2.59  39 2.61   3 2.62  43 2.63  42 2.72
                            80 2.73  21 2.74  68 2.76  64 2.79  22 3.04
  32  0.711  0.561  0.214-  69 2.53  51 2.56  54 2.61  29 2.61  49 2.62  26 2.66  65 2.66  50 2.66
                            42 2.68  78 2.71  75 2.71  67 2.73  44 2.76
  33  0.042  0.608  0.305-  42 2.46  39 2.50  64 2.51  30 2.60  29 2.64  28 2.66   5 2.69   3 2.72
                            16 2.74  12 2.80   1 2.94   2 3.00
  34  0.782  0.884  0.080-  48 2.38  35 2.38  50 2.53  66 2.54  36 2.55  62 2.67  20 2.70  28 3.22

  35  0.002  0.866  0.072-  36 2.37  34 2.38  66 2.43  24 2.50  58 2.60  23 2.74  62 2.75  28 3.30

  36  0.006  0.657  0.094-  50 2.33  35 2.37  58 2.38  21 2.49  34 2.55  28 2.63
  37  0.628  0.234  0.150-  41 2.41  56 2.42  59 2.43  67 2.44  62 2.45  68 2.50  51 2.50  74 2.51
                            20 2.60  66 2.60
  38  0.361  0.942  0.135-  53 2.40  45 2.41  63 2.42  57 2.43  48 2.45  55 2.45  54 2.46  78 2.48
                            80 2.54  73 2.59  24 2.59  70 2.83
  39  0.023  0.396  0.316-  42 2.45  33 2.50  65 2.57   7 2.58  75 2.58  29 2.60  31 2.61  22 2.62
                             5 2.62   3 2.67  10 2.79
  40  0.013  0.321  0.044-  69 2.32  76 2.45  21 2.48  23 2.49  70 2.51  45 2.63  71 2.93
  41  0.844  0.228  0.139-  67 2.35  76 2.37  77 2.38  37 2.41  62 2.44  51 2.48  69 2.48  66 2.49
                            65 2.58  23 2.59  70 2.61
  42  0.967  0.520  0.219-  39 2.45  33 2.46  50 2.48  64 2.48  65 2.50  28 2.62  29 2.64  69 2.65
                            21 2.67  32 2.68  31 2.72
  43  0.304  0.100  0.319-  52 2.44  80 2.46  55 2.52   8 2.54  61 2.57  22 2.57  19 2.61  31 2.63
                            13 2.68  10 2.68   3 2.80
  44  0.552  0.648  0.318-  61 2.47  78 2.49  27 2.52  26 2.52  52 2.56  14 2.56  15 2.62  29 2.65
                            75 2.73  32 2.76
  45  0.251  0.091  0.049-  38 2.41  57 2.45  53 2.48  70 2.50  63 2.54  40 2.63  23 2.66
  46  0.529  0.612  0.047-  54 2.37  73 2.44  51 2.45  71 2.47  72 2.53  53 2.63  56 2.72  76 2.87
                            63 3.07
  47  0.334  0.361  0.072-  74 2.29  56 2.44  21 2.44  57 2.50  72 2.50  20 2.52
  48  0.581  0.937  0.137-  49 2.29  63 2.35  34 2.38  54 2.38  80 2.38  38 2.45  59 2.46  20 2.50
                            57 2.63  50 2.74
  49  0.677  0.809  0.223-  48 2.29  50 2.34  61 2.46  78 2.47   1 2.47  59 2.54  80 2.57  29 2.62
                            32 2.62  54 2.79  28 2.88
  50  0.810  0.679  0.140-  36 2.33  49 2.34  54 2.38  71 2.39  42 2.48  69 2.52  34 2.53  28 2.61
                            32 2.66  48 2.74  21 3.30
  51  0.629  0.454  0.133-  56 2.40  76 2.44  46 2.45  41 2.48  37 2.50  67 2.53  32 2.56  26 2.59
                            74 2.59  69 2.66  73 2.78  54 2.83
  52  0.322  0.873  0.316-  55 2.35  79 2.41  61 2.42  78 2.44  43 2.44  14 2.51   8 2.54  44 2.56
                             6 2.60  22 3.05   2 3.27
  53  0.299  0.850  0.050-  73 2.39  38 2.40  45 2.48  24 2.56  63 2.58  46 2.63  72 2.82  23 3.07

  54  0.581  0.726  0.124-  46 2.37  50 2.38  48 2.38  73 2.40  71 2.42  63 2.42  38 2.46  78 2.50
                            32 2.61  49 2.79  51 2.83
  55  0.229  0.013  0.230-  52 2.35  80 2.44  79 2.44  38 2.45  22 2.52  43 2.52  78 2.56  24 2.59
                            31 2.59  77 2.61  70 2.62
  56  0.549  0.361  0.055-  51 2.40  37 2.42  47 2.44  74 2.52  76 2.56  62 2.60  72 2.61  20 2.66
                            46 2.72
  57  0.344  0.167  0.132-  38 2.43  45 2.45  80 2.47  47 2.50  20 2.52  68 2.55  31 2.57  48 2.63
                            21 2.64  70 2.71
  58  0.176  0.684  0.148-  36 2.38  72 2.39  64 2.41  73 2.43  28 2.53  79 2.53  24 2.54  74 2.56
                            35 2.60
  59  0.661  0.042  0.213-  66 2.38  37 2.43  48 2.46  19 2.46  49 2.54  68 2.55   1 2.57  80 2.59
                            60 2.68  28 3.23
  60  0.785  0.117  0.297-  67 2.46  77 2.53   1 2.65  18 2.67  59 2.68   4 2.71   2 2.72   9 2.79
                            17 2.82  19 2.91  22 3.24
  61  0.537  0.875  0.316-  52 2.42  49 2.46  44 2.47  78 2.48  80 2.51  43 2.57  19 2.64  11 2.65
                            27 2.69   8 2.70  29 2.83   1 2.86
  62  0.773  0.123  0.060-  66 2.43  41 2.44  37 2.45  20 2.53  23 2.55  56 2.60  76 2.63  34 2.67
                            35 2.75
  63  0.500  0.898  0.045-  48 2.35  54 2.42  38 2.42  45 2.54  53 2.58  20 2.89  46 3.07
  64  0.196  0.505  0.214-  58 2.41  42 2.48  33 2.51  74 2.52   3 2.55  30 2.61  68 2.66  21 2.70
                            31 2.79  28 2.80
  65  0.935  0.315  0.226-  69 2.40  67 2.41  75 2.42  77 2.43  22 2.50  42 2.50  70 2.53  39 2.57
                            41 2.58  31 2.58  32 2.66
  66  0.858  0.002  0.156-  77 2.38  59 2.38  62 2.43  35 2.43  41 2.49  34 2.54  37 2.60  28 2.61
                            24 2.83
  67  0.721  0.315  0.230-  41 2.35  75 2.41  65 2.41  37 2.44  18 2.45  60 2.46  51 2.53  26 2.70
                            77 2.70  32 2.73
  68  0.430  0.266  0.214-  74 2.43  37 2.50  57 2.55  59 2.55  19 2.57   3 2.61  80 2.64  64 2.66
                            18 2.68  31 2.76
  69  0.877  0.430  0.129-  40 2.32  71 2.34  65 2.40  41 2.48  76 2.49  50 2.52  32 2.53  21 2.60
                            42 2.65  70 2.65  51 2.66
  70  0.096  0.181  0.140-  45 2.50  40 2.51  31 2.52  65 2.53  23 2.57  41 2.61  55 2.62  24 2.65
                            69 2.65  57 2.71  21 2.72  77 2.83  38 2.83
  71  0.760  0.589  0.052-  69 2.34  50 2.39  54 2.42  46 2.47  76 2.56  40 2.93
  72  0.315  0.592  0.059-  58 2.39  74 2.39  73 2.42  47 2.50  46 2.53  56 2.61  53 2.82
  73  0.382  0.701  0.136-  53 2.39  54 2.40  72 2.42  58 2.43  46 2.44  79 2.49  26 2.52  38 2.59
                            78 2.60  24 2.64  74 2.69  51 2.78
  74  0.400  0.454  0.149-  47 2.29  72 2.39  68 2.43  26 2.50  37 2.51  56 2.52  64 2.52  58 2.56
                            51 2.59  73 2.69
  75  0.791  0.401  0.315-  67 2.41  65 2.42  15 2.56  39 2.58   7 2.59   9 2.60  29 2.61  32 2.71
                            44 2.73  22 2.90  18 3.18
  76  0.781  0.351  0.046-  41 2.37  51 2.44  40 2.45  69 2.49  71 2.56  56 2.56  62 2.63  23 2.69
                            46 2.87
  77  0.970  0.084  0.222-  41 2.38  66 2.38  65 2.43  22 2.43  60 2.53  24 2.54   2 2.55  55 2.61
                            67 2.70  70 2.83
  78  0.465  0.795  0.225-  52 2.44  49 2.47  79 2.48  38 2.48  80 2.48  61 2.48  44 2.49  54 2.50
                            55 2.56  73 2.60  26 2.62  32 2.71
  79  0.249  0.786  0.233-  52 2.41  30 2.43  55 2.44  24 2.46  78 2.48   2 2.48  73 2.49  58 2.53
                            26 2.60
  80  0.439  0.028  0.225-  48 2.38  55 2.44  43 2.46  57 2.47  78 2.48  61 2.51  19 2.51  38 2.54
                            49 2.57  59 2.59  68 2.64  31 2.73
  81  0.695  0.535  0.444-  15 1.81  27 1.86   7 1.92
 
  LATTYP: Found a hexagonal cell.
 ALAT       =    11.2227001190
 C/A-ratio  =     1.9603125600
  
  Lattice vectors:
  
 A1 = (   5.6113500595,  -9.7191434021,   0.0000000000)
 A2 = ( -11.2227001190,   0.0000000000,   0.0000000000)
 A3 = (   0.0000000000,   0.0000000000, -22.0000000000)


Analysis of symmetry for initial positions (statically):
=====================================================================
 Subroutine PRICEL returns:
 Original cell was already a primitive cell.
 

 Routine SETGRP: Setting up the symmetry group for a 
 hexagonal supercell.


 Subroutine GETGRP returns: Found  1 space group operations
 (whereof  1 operations were pure point group operations)
 out of a pool of 24 trial point group operations.


The static configuration has the point symmetry C_1 .


Analysis of symmetry for dynamics (positions and initial velocities):
=====================================================================
 Subroutine PRICEL returns:
 Original cell was already a primitive cell.
 

 Routine SETGRP: Setting up the symmetry group for a 
 hexagonal supercell.


 Subroutine GETGRP returns: Found  1 space group operations
 (whereof  1 operations were pure point group operations)
 out of a pool of 24 trial point group operations.


The dynamic configuration has the point symmetry C_1 .


Analysis of constrained symmetry for selective dynamics:
=====================================================================
 Subroutine PRICEL returns:
 Original cell was already a primitive cell.
 

 Routine SETGRP: Setting up the symmetry group for a 
 hexagonal supercell.


 Subroutine GETGRP returns: Found  1 space group operations
 (whereof  1 operations were pure point group operations)
 out of a pool of 24 trial point group operations.


The constrained configuration has the point symmetry C_1 .


Analysis of structural, dynamic, and magnetic symmetry:
=====================================================================
 Subroutine PRICEL returns:
 Original cell was already a primitive cell.
 

 Routine SETGRP: Setting up the symmetry group for a 
 hexagonal supercell.


 Subroutine GETGRP returns: Found  1 space group operations
 (whereof  1 operations were pure point group operations)
 out of a pool of 24 trial point group operations.


The magnetic configuration has the point symmetry C_1 .


 Subroutine INISYM returns: Found  1 space group operations
 (whereof  1 operations are pure point group operations),
 and found     1 'primitive' translations

 
 
 KPOINTS: mesh auto                               

Automatic generation of k-mesh.
Space group operators:
 irot       det(A)        alpha          n_x          n_y          n_z        tau_x        tau_y        tau_z
    1     1.000000     0.000000     1.000000     0.000000     0.000000     0.000000     0.000000     0.000000
 
 Subroutine IBZKPT returns following result:
 ===========================================
 
 Found      4 irreducible k-points:
 
 Following reciprocal coordinates:
            Coordinates               Weight
  0.000000  0.000000  0.000000      1.000000
  0.500000  0.000000  0.000000      1.000000
  0.000000  0.500000  0.000000      1.000000
  0.500000  0.500000  0.000000      1.000000
 
 Following cartesian coordinates:
            Coordinates               Weight
  0.000000  0.000000  0.000000      1.000000
  0.044553 -0.025722  0.000000      1.000000
  0.000000  0.051445  0.000000      1.000000
  0.044553  0.025722  0.000000      1.000000
 
 TETIRR: Found     12 inequivalent tetrahedra from       24
 
 Subroutine IBZKPT_HF returns following result:
 ==============================================
 
 Found      4 k-points in 1st BZ
 the following      4 k-points will be used (e.g. in the exchange kernel)
 Following reciprocal coordinates:   # in IRBZ
  0.000000  0.000000  0.000000    0.25000000   1 t-inv F
  0.500000  0.000000  0.000000    0.25000000   2 t-inv F
  0.000000  0.500000  0.000000    0.25000000   3 t-inv F
  0.500000  0.500000  0.000000    0.25000000   4 t-inv F


--------------------------------------------------------------------------------------------------------




 Dimension of arrays:
   k-points           NKPTS =      4   k-points in BZ     NKDIM =      4   number of bands    NBANDS=    576
   number of dos      NEDOS =    301   number of ions     NIONS =     81
   non local maximal  LDIM  =      6   non local SUM 2l+1 LMDIM =     18
   total plane-waves  NPLWV = ******
   max r-space proj   IRMAX =   7929   max aug-charges    IRDMAX=  34542
   dimension x,y,z NGX =    90 NGY =   90 NGZ =  168
   dimension x,y,z NGXF=   180 NGYF=  180 NGZF=  336
   support grid    NGXF=   180 NGYF=  180 NGZF=  336
   ions per type =              32  23  25   1
   NGX,Y,Z   is equivalent  to a cutoff of  13.33, 13.33, 12.70 a.u.
   NGXF,Y,Z  is equivalent  to a cutoff of  26.66, 26.66, 25.39 a.u.

 SYSTEM =  Pt111                                   
 POSCAR =  11.26                                   

 Startparameter for this run:
   NWRITE =      2    write-flag & timer
   PREC   = accura    normal or accurate (medium, high low for compatibility)
   ISTART =      0    job   : 0-new  1-cont  2-samecut
   ICHARG =      2    charge: 1-file 2-atom 10-const
   ISPIN  =      2    spin polarized calculation?
   LNONCOLLINEAR =      F non collinear calculations
   LSORBIT =      F    spin-orbit coupling
   INIWAV =      1    electr: 0-lowe 1-rand  2-diag
   LASPH  =      F    aspherical Exc in radial PAW
   METAGGA=      F    non-selfconsistent MetaGGA calc.

 Electronic Relaxation 1
   ENCUT  =  550.0 eV  40.42 Ry    6.36 a.u.  21.46 21.46 42.07*2*pi/ulx,y,z
   ENINI  =  550.0     initial cutoff
   ENAUG  =  544.6 eV  augmentation charge cutoff
   NELM   =    200;   NELMIN=  2; NELMDL= -5     # of ELM steps 
   EDIFF  = 0.1E-04   stopping-criterion for ELM
   LREAL  =      T    real-space projection
   NLSPLINE    = F    spline interpolate recip. space projectors
   LCOMPAT=      F    compatible to vasp.4.4
   GGA_COMPAT  = T    GGA compatible to vasp.4.4-vasp.4.6
   LMAXPAW     = -100 max onsite density
   LMAXMIX     =    2 max onsite mixed and CHGCAR
   VOSKOWN=      0    Vosko Wilk Nusair interpolation
   ROPT   =   -0.00025  -0.00025  -0.00025  -0.00025
 Ionic relaxation
   EDIFFG = -.5E-01   stopping-criterion for IOM
   NSW    =   1009    number of steps for IOM
   NBLOCK =      1;   KBLOCK =   1009    inner block; outer block 
   IBRION =      5    ionic relax: 0-MD 1-quasi-New 2-CG
   NFREE  =      2    steps in history (QN), initial steepest desc. (CG)
   ISIF   =      2    stress and relaxation
   IWAVPR =     11    prediction:  0-non 1-charg 2-wave 3-comb
   ISYM   =      2    0-nonsym 1-usesym 2-fastsym
   LCORR  =      T    Harris-Foulkes like correction to forces

   POTIM  = 0.5000    time-step for ionic-motion
   TEIN   =    0.0    initial temperature
   TEBEG  =    0.0;   TEEND  =   0.0 temperature during run
   SMASS  =  -3.00    Nose mass-parameter (am)
   estimated Nose-frequenzy (Omega)   =  0.10E-29 period in steps =****** mass=  -0.288E-26a.u.
   SCALEE = 1.0000    scale energy and forces
   NPACO  =    256;   APACO  = 16.0  distance and # of slots for P.C.
   PSTRESS=    0.0 pullay stress

  Mass of Ions in am
   POMASS = 195.08 58.93 58.69  1.00
  Ionic Valenz
   ZVAL   =  10.00  9.00 10.00  1.00
  Atomic Wigner-Seitz radii
   RWIGS  =  -1.00 -1.00 -1.00 -1.00
  virtual crystal weights 
   VCA    =   1.00  1.00  1.00  1.00
   NELECT =     778.0000    total number of electrons
   NUPDOWN=      -1.0000    fix difference up-down

 DOS related values:
   EMIN   =  10.00;   EMAX   =-10.00  energy-range for DOS
   EFERMI =   0.00
   ISMEAR =    -5;   SIGMA  =   0.10  broadening in eV -4-tet -1-fermi 0-gaus

 Electronic relaxation 2 (details)
   IALGO  =     68    algorithm
   LDIAG  =      T    sub-space diagonalisation (order eigenvalues)
   LSUBROT=      F    optimize rotation matrix (better conditioning)
   TURBO    =      0    0=normal 1=particle mesh
   IRESTART =      0    0=no restart 2=restart with 2 vectors
   NREBOOT  =      0    no. of reboots
   NMIN     =      0    reboot dimension
   EREF     =   0.00    reference energy to select bands
   IMIX   =      4    mixing-type and parameters
     AMIX     =   0.40;   BMIX     =  1.00
     AMIX_MAG =   1.60;   BMIX_MAG =  1.00
     AMIN     =   0.10
     WC   =   100.;   INIMIX=   1;  MIXPRE=   1;  MAXMIX= -45

 Intra band minimization:
   WEIMIN = 0.0010     energy-eigenvalue tresh-hold
   EBREAK =  0.43E-08  absolut break condition
   DEPER  =   0.30     relativ break condition  

   TIME   =   0.40     timestep for ELM

  volume/ion in A,a.u.               =      29.63       199.92
  Fermi-wavevector in a.u.,A,eV,Ry     =   1.124653  2.125287 17.209264  1.264845
  Thomas-Fermi vector in A             =   2.261326
 
 Write flags
   LWAVE        =      F    write WAVECAR
   LDOWNSAMPLE  =      F    k-point downsampling of WAVECAR
   LCHARG       =      F    write CHGCAR
   LVTOT        =      F    write LOCPOT, total local potential
   LVHAR        =      F    write LOCPOT, Hartree potential only
   LELF         =      F    write electronic localiz. function (ELF)
   LORBIT       =      0    0 simple, 1 ext, 2 COOP (PROOUT), +10 PAW based schemes


 Dipole corrections
   LMONO  =      F    monopole corrections only (constant potential shift)
   LDIPOL =      F    correct potential (dipole corrections)
   IDIPOL =      0    1-x, 2-y, 3-z, 4-all directions 
   EPSILON=  1.0000000 bulk dielectric constant

 Exchange correlation treatment:
   GGA     =    --    GGA type
   LEXCH   =     8    internal setting for exchange type
   VOSKOWN=      0    Vosko Wilk Nusair interpolation
   LHFCALC =     F    Hartree Fock is set to
   LHFONE  =     F    Hartree Fock one center treatment
   AEXX    =    0.0000 exact exchange contribution

 Linear response parameters
   LEPSILON=     F    determine dielectric tensor
   LRPA    =     F    only Hartree local field effects (RPA)
   LNABLA  =     F    use nabla operator in PAW spheres
   LVEL    =     F    velocity operator in full k-point grid
   LINTERFAST=   F  fast interpolation
   KINTER  =     0    interpolate to denser k-point grid
   CSHIFT  =0.1000    complex shift for real part using Kramers Kronig
   OMEGAMAX=  -1.0    maximum frequency
   DEG_THRESHOLD= 0.2000000E-02 threshold for treating states as degnerate
   RTIME   =   -0.100 relaxation time in fs
  (WPLASMAI=    0.000 imaginary part of plasma frequency in eV, 0.658/RTIME)
   DFIELD  = 0.0000000 0.0000000 0.0000000 field for delta impulse in time
 
 Orbital magnetization related:
   ORBITALMAG=     F  switch on orbital magnetization
   LCHIMAG   =     F  perturbation theory with respect to B field
   DQ        =  0.001000  dq finite difference perturbation B field
   LLRAUG    =     F  two centre corrections for induced B field



--------------------------------------------------------------------------------------------------------


 finite differences
   using selective dynamics as specified on POSCAR
   WARNING: If single coordinates had been selected the selection of coordinates
            is made according to the corresponding   d i r e c t   coordinates!
            Don't support selection of single cartesian coordinates -- sorry ...
  !
 charge density and potential will be updated during run
 spin polarized calculation
 RMM-DIIS sequential band-by-band and
  variant of blocked Davidson during initial phase
 perform sub-space diagonalisation
    before iterative eigenvector-optimisation
 modified Broyden-mixing scheme, WC =      100.0
 initial mixing is a Kerker type mixing with AMIX =  0.4000 and BMIX =      1.0000
 Hartree-type preconditioning will be used
 using additional bands          187
 real space projection scheme for non local part
 use partial core corrections
 calculate Harris-corrections to forces 
   (improved forces if not selfconsistent)
 use gradient corrections 
 use of overlap-Matrix (Vanderbilt PP)
 Fermi weights with tetrahedron method with Bloechl corrections


--------------------------------------------------------------------------------------------------------


  energy-cutoff  :      550.00
  volume of cell :     2399.65
      direct lattice vectors                 reciprocal lattice vectors
    11.222700119  0.000000000  0.000000000     0.089105116 -0.051444863  0.000000000
     5.611350060  9.719143402  0.000000000     0.000000000  0.102889726  0.000000000
     0.000000000  0.000000000 22.000000000     0.000000000  0.000000000  0.045454545

  length of vectors
    11.222700119 11.222700119 22.000000000     0.102889726  0.102889726  0.045454545


 
 k-points in units of 2pi/SCALE and weight: mesh auto                               
   0.00000000  0.00000000  0.00000000       0.250
   0.04455256 -0.02572243  0.00000000       0.250
   0.00000000  0.05144486  0.00000000       0.250
   0.04455256  0.02572243  0.00000000       0.250
 
 k-points in reciprocal lattice and weights: mesh auto                               
   0.00000000  0.00000000  0.00000000       0.250
   0.50000000  0.00000000  0.00000000       0.250
   0.00000000  0.50000000  0.00000000       0.250
   0.50000000  0.50000000  0.00000000       0.250
 
 position of ions in fractional coordinates (direct lattice) 
   0.78891993  0.87835991  0.30132920
   0.03170474  0.87958277  0.29169788
   0.27707606  0.36067401  0.31084886
   0.87667056  0.96415236  0.39940412
   0.11584019  0.46789554  0.41015219
   0.12806197  0.95254771  0.39703620
   0.87972820  0.45425376  0.41395862
   0.37391783  0.95486372  0.41529586
   0.86689844  0.20984469  0.39696088
   0.13018677  0.21351363  0.41320996
   0.62985318  0.95256105  0.40967070
   0.87744320  0.71494498  0.40836399
   0.37917467  0.19921268  0.41355496
   0.37030244  0.70224262  0.39986092
   0.61609460  0.45597904  0.39993081
   0.11770412  0.71213873  0.40049419
   0.62761414  0.20080491  0.40468510
   0.53965149  0.34741040  0.30137936
   0.52814006  0.11348355  0.30849683
   0.54569241  0.12647739  0.06683304
   0.11791659  0.40792499  0.11908862
   0.05454528  0.14900524  0.31034209
   0.00892895  0.10176852  0.04917651
   0.13783207  0.92691145  0.14197368
   0.37438575  0.45036918  0.40609066
   0.47979716  0.55399880  0.22971747
   0.62431889  0.71296340  0.41493922
   0.95252345  0.75898977  0.20420405
   0.79604596  0.63076416  0.31118281
   0.27412527  0.60641694  0.30218629
   0.18749030  0.26198206  0.22539890
   0.71089206  0.56100734  0.21410215
   0.04172200  0.60827094  0.30481079
   0.78196837  0.88367072  0.08012597
   0.00167860  0.86570870  0.07172203
   0.00649475  0.65686199  0.09367822
   0.62789021  0.23379040  0.14972974
   0.36050112  0.94235243  0.13470415
   0.02342019  0.39613004  0.31563825
   0.01296097  0.32139498  0.04442433
   0.84423970  0.22761319  0.13891977
   0.96744603  0.52048649  0.21885007
   0.30385492  0.09959756  0.31931933
   0.55201196  0.64801183  0.31774563
   0.25085454  0.09128101  0.04878728
   0.52913784  0.61162204  0.04697948
   0.33389242  0.36126594  0.07221963
   0.58147332  0.93651314  0.13694302
   0.67732667  0.80921239  0.22305304
   0.80979447  0.67906481  0.14024348
   0.62937817  0.45366950  0.13325724
   0.32197974  0.87346040  0.31634373
   0.29919813  0.84983568  0.05000644
   0.58103448  0.72612545  0.12392179
   0.22907234  0.01294552  0.22967573
   0.54871865  0.36069037  0.05545242
   0.34411655  0.16690962  0.13164412
   0.17554400  0.68420617  0.14761894
   0.66082635  0.04249037  0.21304482
   0.78453270  0.11667178  0.29672071
   0.53714963  0.87471983  0.31587281
   0.77284397  0.12278263  0.06048458
   0.50030742  0.89844953  0.04455515
   0.19571508  0.50522867  0.21438636
   0.93546177  0.31542046  0.22552712
   0.85824468  0.00195101  0.15611973
   0.72104290  0.31497628  0.22969726
   0.43002289  0.26577701  0.21377066
   0.87703755  0.42955743  0.12878365
   0.09634819  0.18069822  0.13969274
   0.75988870  0.58867799  0.05155611
   0.31527374  0.59151669  0.05925234
   0.38179216  0.70126590  0.13646584
   0.40042658  0.45377032  0.14884727
   0.79102680  0.40089344  0.31476233
   0.78089926  0.35148021  0.04598080
   0.96954404  0.08430315  0.22196820
   0.46486898  0.79463888  0.22533144
   0.24890496  0.78598962  0.23267623
   0.43862206  0.02771317  0.22450195
   0.69515762  0.53472360  0.44397453
 
 position of ions in cartesian coordinates  (Angst):
  13.78259666  8.53690589  6.62924251
   5.29145964  8.54879106  6.41735336
   5.13340962  3.50544238  6.83867481
  15.24880719  9.37073502  8.78689064
   3.92556537  4.54754389  9.02334813
   6.78227981  9.25794782  8.73479637
  12.42190259  4.41495744  9.10708959
   9.55444225  9.28045739  9.13650899
  10.90645321  2.03951067  8.73313947
   2.65914683  2.07516957  9.09061907
  12.41380681  9.25807743  9.01275538
  13.85908846  6.94865275  8.98400775
   5.37321567  1.93617659  9.09820907
   8.09632237  6.82519674  8.79694018
   9.47290298  4.43172570  8.79847789
   5.31701776  6.92137848  8.81087208
   8.17031189  1.95165172  8.90307220
   8.00578825  3.37653154  6.63034601
   6.56395349  1.10296294  6.78693032
   6.83385120  1.22925189  1.47032698
   3.61235247  3.96468152  2.61994962
   1.44826590  1.44820334  6.82752596
   0.67126575  0.98910281  1.08188317
   6.74807265  9.00878530  3.12342105
   6.72879808  4.37720262  8.93399447
   8.49330084  5.38439383  5.05378437
  11.00723086  6.92939354  9.12866279
  14.94884239  7.37673046  4.49248916
  12.47322353  6.13048731  6.84602180
   6.47924343  5.89385320  6.64809849
   3.57422044  2.54624125  4.95877580
  11.12613698  5.45251083  4.71024739
   3.88145463  5.91187247  6.70583743
  13.73438227  8.58852246  1.76277137
   4.87663302  8.41394697  1.57788465
   3.75877116  6.38413590  2.06092090
   8.35850333  2.27224245  3.29405432
   9.33366537  9.15885838  2.96349132
   2.48566208  3.85004466  6.94404160
   1.94891684  3.12368389  0.97733531
  10.75186628  2.21220519  3.05623495
  13.77798860  5.05868282  4.81470165
   3.96894934  0.96800293  7.02502529
   9.83128595  6.29811991  6.99040383
   3.32747495  0.88717326  1.07332023
   9.37038068  5.94444230  1.03354859
   5.77436416  3.51119550  1.58883193
  11.78080373  9.10210551  3.01274644
  12.14220806  7.86485128  4.90716692
  12.89855082  6.59992829  3.08535659
   9.60902083  4.40927897  2.93165935
   8.51477415  8.48928691  6.95956213
   8.12653637  8.25967484  1.10014163
  10.59531978  7.05731733  2.72627938
   2.64345207  0.12581940  5.05286608
   8.18206475  3.50560142  1.21995326
   4.79850516  1.62221856  2.89617069
   5.80939796  6.64989784  3.24761674
   7.65468432  0.41297001  4.68698615
   9.45926148  1.13394976  6.52785570
  10.93662838  8.50152750  6.94920185
   9.36237240  1.19334199  1.33066085
  10.65631497  8.73215981  0.98021322
   5.03146660  4.91038993  4.71649990
  12.26834149  3.06561666  4.96159659
   9.64277050  0.01896212  3.43463404
   9.85949038  3.06129963  5.05333976
   6.31738572  2.58312482  4.70295446
  12.25312658  4.17493029  2.83324027
   2.09524784  1.75623189  3.07324021
  11.83128130  5.72144585  1.13423452
   6.85742987  5.74903551  1.30355140
   8.21978744  6.81570388  3.00224843
   7.04013147  4.41025877  3.27463986
  11.12701001  3.89634085  6.92477115
  10.73607676  3.41608656  1.01157751
  11.35395654  0.81935443  4.88330047
   9.67608211  7.72320924  4.95729164
   7.20384860  7.63914586  5.11887697
   5.07803210  0.26934830  4.93904295
  10.80206684  5.19705538  9.76743975
 


--------------------------------------------------------------------------------------------------------


 k-point  1 :   0.0000 0.0000 0.0000  plane waves:   70321
 k-point  2 :   0.5000 0.0000 0.0000  plane waves:   70264
 k-point  3 :   0.0000 0.5000 0.0000  plane waves:   70264
 k-point  4 :   0.5000 0.5000 0.0000  plane waves:   70264

 maximum and minimum number of plane-waves per node :     70321    70264

 maximum number of plane-waves:     70321
 maximum index in each direction: 
   IXMAX=   21   IYMAX=   21   IZMAX=   42
   IXMIN=  -21   IYMIN=  -21   IZMIN=  -42


 serial   3D FFT for wavefunctions
 parallel 3D FFT for charge:
    minimum data exchange during FFTs selected (reduces bandwidth)


 total amount of memory used by VASP MPI-rank0   379525. kBytes
=======================================================================

   base      :      30000. kBytes
   nonlr-proj:      90639. kBytes
   fftplans  :      13535. kBytes
   grid      :     132462. kBytes
   one-center:       2519. kBytes
   wavefun   :     110370. kBytes
 
     INWAV:  cpu time    0.0000: real time    0.0005
 Broyden mixing: mesh for mixing (old mesh)
   NGX = 43   NGY = 43   NGZ = 85
  (NGX  =180   NGY  =180   NGZ  =336)
  gives a total of 157165 points

 initial charge density was supplied:
 charge density of overlapping atoms calculated
 number of electron     778.0000000 magnetization     206.0000000
 keeping initial charge density in first step


--------------------------------------------------------------------------------------------------------


 Maximum index for non-local projection operator         7672
 Maximum index for augmentation-charges         1119 (set IRDMAX)


--------------------------------------------------------------------------------------------------------


 First call to EWALD:  gamma=   0.132
 Maximum number of real-space cells 4x 4x 2
 Maximum number of reciprocal cells 2x 2x 4

    FEWALD:  cpu time    0.0039: real time    0.0039


--------------------------------------- Iteration      1(   1)  ---------------------------------------


    POTLOK:  cpu time    0.4769: real time    0.4833
    SETDIJ:  cpu time    0.0310: real time    0.0310
     EDDAV:  cpu time   55.4777: real time   55.6478
 BZINTS: Fermi energy: 15.080144;778.000000 electrons
         Band energy:6664.687956;  BLOECHL correction: -0.021976
       DOS:  cpu time    0.0224: real time    0.0238
    --------------------------------------------
      LOOP:  cpu time   56.0079: real time   56.1860

 eigenvalue-minimisations  :  9216
 total energy-change (2. order) : 0.6703891E+04  (-0.3449011E+05)
 number of electron     778.0000000 magnetization     206.0000000
 augmentation part      778.0000000 magnetization     206.0000000

 Free energy of the ion-electron system (eV)
  ---------------------------------------------------
  alpha Z        PSCENC =      1751.32544349
  Ewald energy   TEWEN  =    237376.38214507
  -Hartree energ DENC   =   -307434.34467206
  -exchange      EXHF   =         0.00000000
  -V(xc)+E(xc)   XCENC  =      1334.69848404
  PAW double counting   =     62871.68470781   -64853.88848185
  entropy T*S    EENTRO =         0.00000000
  eigenvalues    EBANDS =      6664.68795572
  atomic energy  EATOM  =     68993.34587830
  Solvation  Ediel_sol  =         0.00000000
  ---------------------------------------------------
  free energy    TOTEN  =      6703.89146053 eV

  energy without entropy =     6703.89146053  energy(sigma->0) =     6703.89146053


--------------------------------------------------------------------------------------------------------




--------------------------------------- Iteration      1(   2)  ---------------------------------------


     EDDAV:  cpu time   55.4348: real time   55.5988
 BZINTS: Fermi energy:  4.442736;778.000000 electrons
         Band energy: 304.072911;  BLOECHL correction: -0.013552
       DOS:  cpu time    0.0230: real time    0.0248
    --------------------------------------------
      LOOP:  cpu time   55.4579: real time   55.6236

 eigenvalue-minimisations  :  9216
 total energy-change (2. order) :-0.6360615E+04  (-0.5776077E+04)
 number of electron     778.0000000 magnetization     206.0000000
 augmentation part      778.0000000 magnetization     206.0000000

 Free energy of the ion-electron system (eV)
  ---------------------------------------------------
  alpha Z        PSCENC =      1751.32544349
  Ewald energy   TEWEN  =    237376.38214507
  -Hartree energ DENC   =   -307434.34467206
  -exchange      EXHF   =         0.00000000
  -V(xc)+E(xc)   XCENC  =      1334.69848404
  PAW double counting   =     62871.68470781   -64853.88848185
  entropy T*S    EENTRO =         0.00000000
  eigenvalues    EBANDS =       304.07291067
  atomic energy  EATOM  =     68993.34587830
  Solvation  Ediel_sol  =         0.00000000
  ---------------------------------------------------
  free energy    TOTEN  =       343.27641548 eV

  energy without entropy =      343.27641548  energy(sigma->0) =      343.27641548


--------------------------------------------------------------------------------------------------------




--------------------------------------- Iteration      1(   3)  ---------------------------------------


     EDDAV:  cpu time   59.0089: real time   59.1643
 BZINTS: Fermi energy:  2.810667;778.000000 electrons
         Band energy:-504.942685;  BLOECHL correction: -0.022618
       DOS:  cpu time    0.0224: real time    0.0495
    --------------------------------------------
      LOOP:  cpu time   59.0312: real time   59.2137

 eigenvalue-minimisations  :  9984
 total energy-change (2. order) :-0.8090156E+03  (-0.6954858E+03)
 number of electron     778.0000000 magnetization     206.0000000
 augmentation part      778.0000000 magnetization     206.0000000

 Free energy of the ion-electron system (eV)
  ---------------------------------------------------
  alpha Z        PSCENC =      1751.32544349
  Ewald energy   TEWEN  =    237376.38214507
  -Hartree energ DENC   =   -307434.34467206
  -exchange      EXHF   =         0.00000000
  -V(xc)+E(xc)   XCENC  =      1334.69848404
  PAW double counting   =     62871.68470781   -64853.88848185
  entropy T*S    EENTRO =         0.00000000
  eigenvalues    EBANDS =      -504.94268517
  atomic energy  EATOM  =     68993.34587830
  Solvation  Ediel_sol  =         0.00000000
  ---------------------------------------------------
  free energy    TOTEN  =      -465.73918036 eV

  energy without entropy =     -465.73918036  energy(sigma->0) =     -465.73918036


--------------------------------------------------------------------------------------------------------




--------------------------------------- Iteration      1(   4)  ---------------------------------------


     EDDAV:  cpu time   60.8986: real time   61.0928
 BZINTS: Fermi energy:  2.738690;778.000000 electrons
         Band energy:-543.913111;  BLOECHL correction: -0.023666
       DOS:  cpu time    0.0468: real time    0.0783
    --------------------------------------------
      LOOP:  cpu time   60.9455: real time   61.1711

 eigenvalue-minimisations  : 10368
 total energy-change (2. order) :-0.3897043E+02  (-0.3805218E+02)
 number of electron     778.0000000 magnetization     206.0000000
 augmentation part      778.0000000 magnetization     206.0000000

 Free energy of the ion-electron system (eV)
  ---------------------------------------------------
  alpha Z        PSCENC =      1751.32544349
  Ewald energy   TEWEN  =    237376.38214507
  -Hartree energ DENC   =   -307434.34467206
  -exchange      EXHF   =         0.00000000
  -V(xc)+E(xc)   XCENC  =      1334.69848404
  PAW double counting   =     62871.68470781   -64853.88848185
  entropy T*S    EENTRO =         0.00000000
  eigenvalues    EBANDS =      -543.91311126
  atomic energy  EATOM  =     68993.34587830
  Solvation  Ediel_sol  =         0.00000000
  ---------------------------------------------------
  free energy    TOTEN  =      -504.70960645 eV

  energy without entropy =     -504.70960645  energy(sigma->0) =     -504.70960645


--------------------------------------------------------------------------------------------------------




--------------------------------------- Iteration      1(   5)  ---------------------------------------


     EDDAV:  cpu time   67.2020: real time   67.4011
 BZINTS: Fermi energy:  2.737454;778.000000 electrons
         Band energy:-544.601028;  BLOECHL correction: -0.023719
       DOS:  cpu time    0.0228: real time    0.0237
    CHARGE:  cpu time    3.0797: real time    3.0880
    MIXING:  cpu time    0.0114: real time    0.0115
    --------------------------------------------
      LOOP:  cpu time   70.3159: real time   70.5244

 eigenvalue-minimisations  : 11712
 total energy-change (2. order) :-0.6879166E+00  (-0.6874550E+00)
 number of electron     778.0000032 magnetization     194.1115286
 augmentation part      338.0990770 magnetization     164.5183901

 Broyden mixing:
  rms(total) = 0.10638E+02    rms(broyden)= 0.10638E+02
  rms(prec ) = 0.11006E+02
  weight for this iteration     100.00

 Free energy of the ion-electron system (eV)
  ---------------------------------------------------
  alpha Z        PSCENC =      1751.32544349
  Ewald energy   TEWEN  =    237376.38214507
  -Hartree energ DENC   =   -307434.34467206
  -exchange      EXHF   =         0.00000000
  -V(xc)+E(xc)   XCENC  =      1334.69848404
  PAW double counting   =     62871.68470781   -64853.88848185
  entropy T*S    EENTRO =         0.00000000
  eigenvalues    EBANDS =      -544.60102788
  atomic energy  EATOM  =     68993.34587830
  Solvation  Ediel_sol  =         0.00000000
  ---------------------------------------------------
  free energy    TOTEN  =      -505.39752308 eV

  energy without entropy =     -505.39752308  energy(sigma->0) =     -505.39752308


--------------------------------------------------------------------------------------------------------




--------------------------------------- Iteration      1(   6)  ---------------------------------------


    POTLOK:  cpu time    0.4443: real time    0.4469
    SETDIJ:  cpu time    0.0307: real time    0.0307
    EDDIAG:  cpu time    9.7510: real time    9.7757
  RMM-DIIS:  cpu time   37.5659: real time   37.6697
    ORTHCH:  cpu time    1.3358: real time    1.3419
 BZINTS: Fermi energy:  1.255508;778.000000 electrons
         Band energy:***********;  BLOECHL correction: -0.017587
       DOS:  cpu time    0.0246: real time    0.0247
    CHARGE:  cpu time    2.7401: real time    3.1379
    MIXING:  cpu time    0.0112: real time    0.0116
    --------------------------------------------
      LOOP:  cpu time   51.9036: real time   52.4392

 eigenvalue-minimisations  :  9403
 total energy-change (2. order) :-0.2447983E+03  (-0.9919549E+02)
 number of electron     778.0000044 magnetization     190.7772910
 augmentation part      408.5035165 magnetization     162.5111220

 Broyden mixing:
  rms(total) = 0.20704E+02    rms(broyden)= 0.20704E+02
  rms(prec ) = 0.25672E+02
  weight for this iteration     100.00

 eigenvalues of (default mixing * dielectric matrix)
  average eigenvalue GAMMA=   0.1766
  0.1766

 Free energy of the ion-electron system (eV)
  ---------------------------------------------------
  alpha Z        PSCENC =      1751.32544349
  Ewald energy   TEWEN  =    237376.38214507
  -Hartree energ DENC   =   -306159.52293507
  -exchange      EXHF   =         0.00000000
  -V(xc)+E(xc)   XCENC  =      1289.03649481
  PAW double counting   =     67910.29798539   -69663.95050433
  entropy T*S    EENTRO =         0.00000000
  eigenvalues    EBANDS =     -2247.11034593
  atomic energy  EATOM  =     68993.34587830
  Solvation  Ediel_sol  =         0.00000000
  ---------------------------------------------------
  free energy    TOTEN  =      -750.19583827 eV

  energy without entropy =     -750.19583827  energy(sigma->0) =     -750.19583827


--------------------------------------------------------------------------------------------------------




--------------------------------------- Iteration      1(   7)  ---------------------------------------


    POTLOK:  cpu time    0.4418: real time    0.4713
    SETDIJ:  cpu time    0.0311: real time    0.0314
    EDDIAG:  cpu time    9.7507: real time    9.7805
  RMM-DIIS:  cpu time   37.1974: real time   37.2956
    ORTHCH:  cpu time    1.3352: real time    1.3512
 BZINTS: Fermi energy:  2.049716;778.000000 electrons
         Band energy:***********;  BLOECHL correction: -0.006446
       DOS:  cpu time    0.0242: real time    0.0242
    CHARGE:  cpu time    3.0063: real time    3.0233
    MIXING:  cpu time    0.0117: real time    0.0118
    --------------------------------------------
      LOOP:  cpu time   51.7983: real time   51.9892

 eigenvalue-minimisations  :  9238
 total energy-change (2. order) : 0.2341321E+03  (-0.1712626E+02)
 number of electron     778.0000035 magnetization     187.8415721
 augmentation part      371.8551629 magnetization     153.0754127

 Broyden mixing:
  rms(total) = 0.14928E+02    rms(broyden)= 0.14928E+02
  rms(prec ) = 0.18148E+02
  weight for this iteration     100.00

 eigenvalues of (default mixing * dielectric matrix)
  average eigenvalue GAMMA=   0.2174
  0.2174  0.2174

 Free energy of the ion-electron system (eV)
  ---------------------------------------------------
  alpha Z        PSCENC =      1751.32544349
  Ewald energy   TEWEN  =    237376.38214507
  -Hartree energ DENC   =   -306757.22760259
  -exchange      EXHF   =         0.00000000
  -V(xc)+E(xc)   XCENC  =      1305.70533884
  PAW double counting   =     68955.82449466   -70874.16972600
  entropy T*S    EENTRO =         0.00000000
  eigenvalues    EBANDS =     -1267.24970743
  atomic energy  EATOM  =     68993.34587830
  Solvation  Ediel_sol  =         0.00000000
  ---------------------------------------------------
  free energy    TOTEN  =      -516.06373566 eV

  energy without entropy =     -516.06373566  energy(sigma->0) =     -516.06373566


--------------------------------------------------------------------------------------------------------




--------------------------------------- Iteration      1(   8)  ---------------------------------------


    POTLOK:  cpu time    0.4478: real time    0.4511
    SETDIJ:  cpu time    0.0307: real time    0.0308
    EDDIAG:  cpu time    9.7648: real time    9.7944
  RMM-DIIS:  cpu time   37.2659: real time   37.3640
    ORTHCH:  cpu time    1.3318: real time    1.3408
 BZINTS: Fermi energy:  1.458031;778.000000 electrons
         Band energy:***********;  BLOECHL correction: -0.027289
       DOS:  cpu time    0.0234: real time    0.0235
    CHARGE:  cpu time    3.0130: real time    3.0235
    MIXING:  cpu time    0.0123: real time    0.0125
    --------------------------------------------
      LOOP:  cpu time   51.8897: real time   52.0406

 eigenvalue-minimisations  :  9263
 total energy-change (2. order) : 0.8456060E+02  (-0.1315560E+02)
 number of electron     778.0000042 magnetization     180.8807603
 augmentation part      380.5215519 magnetization     142.7285195

 Broyden mixing:
  rms(total) = 0.11920E+02    rms(broyden)= 0.11920E+02
  rms(prec ) = 0.13960E+02
  weight for this iteration     100.00

 eigenvalues of (default mixing * dielectric matrix)
  average eigenvalue GAMMA=   0.3147
  0.5665  0.2857  0.0919

 Free energy of the ion-electron system (eV)
  ---------------------------------------------------
  alpha Z        PSCENC =      1751.32544349
  Ewald energy   TEWEN  =    237376.38214507
  -Hartree energ DENC   =   -306619.32011440
  -exchange      EXHF   =         0.00000000
  -V(xc)+E(xc)   XCENC  =      1310.19944163
  PAW double counting   =     69661.43132605   -71601.04648103
  entropy T*S    EENTRO =         0.00000000
  eigenvalues    EBANDS =     -1303.82077738
  atomic energy  EATOM  =     68993.34587830
  Solvation  Ediel_sol  =         0.00000000
  ---------------------------------------------------
  free energy    TOTEN  =      -431.50313826 eV

  energy without entropy =     -431.50313826  energy(sigma->0) =     -431.50313826


--------------------------------------------------------------------------------------------------------




--------------------------------------- Iteration      1(   9)  ---------------------------------------


    POTLOK:  cpu time    0.4488: real time    0.4513
    SETDIJ:  cpu time    0.0308: real time    0.0308
    EDDIAG:  cpu time    9.7614: real time    9.7870
  RMM-DIIS:  cpu time   36.8959: real time   36.9931
    ORTHCH:  cpu time    1.3369: real time    1.3406
 BZINTS: Fermi energy:  1.565523;778.000000 electrons
         Band energy:***********;  BLOECHL correction: -0.018043
       DOS:  cpu time    0.0236: real time    0.0237
    CHARGE:  cpu time    3.0122: real time    3.0202
    MIXING:  cpu time    0.0122: real time    0.0122
    --------------------------------------------
      LOOP:  cpu time   51.5218: real time   51.6590

 eigenvalue-minimisations  :  9230
 total energy-change (2. order) :-0.9862383E+02  (-0.1761066E+02)
 number of electron     778.0000030 magnetization     174.7125679
 augmentation part      380.8750166 magnetization     141.6331251

 Broyden mixing:
  rms(total) = 0.16567E+02    rms(broyden)= 0.16567E+02
  rms(prec ) = 0.19013E+02
  weight for this iteration     100.00

 eigenvalues of (default mixing * dielectric matrix)
  average eigenvalue GAMMA=   0.3433
  0.8415  0.3111  0.1103  0.1103

 Free energy of the ion-electron system (eV)
  ---------------------------------------------------
  alpha Z        PSCENC =      1751.32544349
  Ewald energy   TEWEN  =    237376.38214507
  -Hartree energ DENC   =   -306366.58738621
  -exchange      EXHF   =         0.00000000
  -V(xc)+E(xc)   XCENC  =      1327.25896438
  PAW double counting   =     71267.94710855   -73268.53142362
  entropy T*S    EENTRO =         0.00000000
  eigenvalues    EBANDS =     -1611.26770298
  atomic energy  EATOM  =     68993.34587830
  Solvation  Ediel_sol  =         0.00000000
  ---------------------------------------------------
  free energy    TOTEN  =      -530.12697301 eV

  energy without entropy =     -530.12697301  energy(sigma->0) =     -530.12697301


--------------------------------------------------------------------------------------------------------




--------------------------------------- Iteration      1(  10)  ---------------------------------------


    POTLOK:  cpu time    0.4500: real time    0.4526
    SETDIJ:  cpu time    0.0309: real time    0.0309
    EDDIAG:  cpu time    9.7534: real time    9.7792
  RMM-DIIS:  cpu time   36.9673: real time   37.0644
    ORTHCH:  cpu time    1.3347: real time    1.3557
 BZINTS: Fermi energy:  1.897902;778.000000 electrons
         Band energy:***********;  BLOECHL correction: -0.004571
       DOS:  cpu time    0.0250: real time    0.0251
    CHARGE:  cpu time    3.0029: real time    3.0137
    MIXING:  cpu time    0.0130: real time    0.0130
    --------------------------------------------
      LOOP:  cpu time   51.5771: real time   51.7346

 eigenvalue-minimisations  :  9239
 total energy-change (2. order) : 0.1121801E+03  (-0.1232913E+02)
 number of electron     778.0000040 magnetization     169.2386865
 augmentation part      381.7273247 magnetization     126.1765471

 Broyden mixing:
  rms(total) = 0.10561E+02    rms(broyden)= 0.10560E+02
  rms(prec ) = 0.13493E+02
  weight for this iteration     100.00

 eigenvalues of (default mixing * dielectric matrix)
  average eigenvalue GAMMA=   0.3496
  0.9375  0.4279  0.1464  0.1464  0.0897

 Free energy of the ion-electron system (eV)
  ---------------------------------------------------
  alpha Z        PSCENC =      1751.32544349
  Ewald energy   TEWEN  =    237376.38214507
  -Hartree energ DENC   =   -306770.55827804
  -exchange      EXHF   =         0.00000000
  -V(xc)+E(xc)   XCENC  =      1337.04987300
  PAW double counting   =     72587.35388897   -74649.18649559
  entropy T*S    EENTRO =         0.00000000
  eigenvalues    EBANDS =     -1043.65930026
  atomic energy  EATOM  =     68993.34587830
  Solvation  Ediel_sol  =         0.00000000
  ---------------------------------------------------
  free energy    TOTEN  =      -417.94684506 eV

  energy without entropy =     -417.94684506  energy(sigma->0) =     -417.94684506


--------------------------------------------------------------------------------------------------------




--------------------------------------- Iteration      1(  11)  ---------------------------------------


    POTLOK:  cpu time    0.4460: real time    0.4485
    SETDIJ:  cpu time    0.0305: real time    0.0305
    EDDIAG:  cpu time    9.7489: real time    9.7748
  RMM-DIIS:  cpu time   37.2194: real time   37.3370
    ORTHCH:  cpu time    1.3381: real time    1.3571
 BZINTS: Fermi energy:  1.946962;778.000000 electrons
         Band energy:-737.825061;  BLOECHL correction: -0.067260
       DOS:  cpu time    0.0219: real time    0.0220
    CHARGE:  cpu time    3.0087: real time    3.0223
    MIXING:  cpu time    0.0127: real time    0.0128
    --------------------------------------------
      LOOP:  cpu time   51.8262: real time   52.0049

 eigenvalue-minimisations  :  9260
 total energy-change (2. order) : 0.6132427E+02  (-0.8703834E+01)
 number of electron     778.0000035 magnetization     165.0331964
 augmentation part      373.6614684 magnetization     123.0873981

 Broyden mixing:
  rms(total) = 0.95212E+01    rms(broyden)= 0.95211E+01
  rms(prec ) = 0.10311E+02
  weight for this iteration     100.00

 eigenvalues of (default mixing * dielectric matrix)
  average eigenvalue GAMMA=   0.3531
  1.0586  0.4735  0.1665  0.1665  0.1610  0.0925

 Free energy of the ion-electron system (eV)
  ---------------------------------------------------
  alpha Z        PSCENC =      1751.32544349
  Ewald energy   TEWEN  =    237376.38214507
  -Hartree energ DENC   =   -306979.03574309
  -exchange      EXHF   =         0.00000000
  -V(xc)+E(xc)   XCENC  =      1337.53681799
  PAW double counting   =     73486.81405841   -75585.16611675
  entropy T*S    EENTRO =         0.00000000
  eigenvalues    EBANDS =      -737.82506060
  atomic energy  EATOM  =     68993.34587830
  Solvation  Ediel_sol  =         0.00000000
  ---------------------------------------------------
  free energy    TOTEN  =      -356.62257717 eV

  energy without entropy =     -356.62257717  energy(sigma->0) =     -356.62257717


--------------------------------------------------------------------------------------------------------




--------------------------------------- Iteration      1(  12)  ---------------------------------------


    POTLOK:  cpu time    0.4456: real time    0.4478
    SETDIJ:  cpu time    0.0308: real time    0.0308
    EDDIAG:  cpu time    9.7662: real time    9.7928
  RMM-DIIS:  cpu time   36.4548: real time   37.8013
    ORTHCH:  cpu time    1.3396: real time    1.3431
 BZINTS: Fermi energy:  1.998492;778.000000 electrons
         Band energy:-744.410377;  BLOECHL correction: -0.047843
       DOS:  cpu time    0.0225: real time    0.0225
    CHARGE:  cpu time    3.0084: real time    3.0163
    MIXING:  cpu time    0.0129: real time    0.0131
    --------------------------------------------
      LOOP:  cpu time   51.0807: real time   52.4678

 eigenvalue-minimisations  :  9265
 total energy-change (2. order) :-0.1342675E+02  (-0.5596746E+01)
 number of electron     778.0000035 magnetization     160.5219948
 augmentation part      372.4823363 magnetization     121.7352235

 Broyden mixing:
  rms(total) = 0.11374E+02    rms(broyden)= 0.11374E+02
  rms(prec ) = 0.12728E+02
  weight for this iteration     100.00

 eigenvalues of (default mixing * dielectric matrix)
  average eigenvalue GAMMA=   0.3515
  1.1782  0.4230  0.3590  0.1455  0.1455  0.0963  0.1126

 Free energy of the ion-electron system (eV)
  ---------------------------------------------------
  alpha Z        PSCENC =      1751.32544349
  Ewald energy   TEWEN  =    237376.38214507
  -Hartree energ DENC   =   -306967.17179194
  -exchange      EXHF   =         0.00000000
  -V(xc)+E(xc)   XCENC  =      1332.86690485
  PAW double counting   =     74010.79581438   -76123.18334309
  entropy T*S    EENTRO =         0.00000000
  eigenvalues    EBANDS =      -744.41037731
  atomic energy  EATOM  =     68993.34587830
  Solvation  Ediel_sol  =         0.00000000
  ---------------------------------------------------
  free energy    TOTEN  =      -370.04932625 eV

  energy without entropy =     -370.04932625  energy(sigma->0) =     -370.04932625


--------------------------------------------------------------------------------------------------------




--------------------------------------- Iteration      1(  13)  ---------------------------------------


    POTLOK:  cpu time    0.4491: real time    0.4510
    SETDIJ:  cpu time    0.0311: real time    0.0312
    EDDIAG:  cpu time    9.7504: real time    9.7759
  RMM-DIIS:  cpu time   37.3328: real time   37.4318
    ORTHCH:  cpu time    1.3693: real time    1.3786
 BZINTS: Fermi energy:  2.098150;778.000000 electrons
         Band energy:-630.389056;  BLOECHL correction: -0.041829
       DOS:  cpu time    0.0218: real time    0.0219
    CHARGE:  cpu time    3.0096: real time    3.0172
    MIXING:  cpu time    0.0136: real time    0.0138
    --------------------------------------------
      LOOP:  cpu time   51.9776: real time   52.1215

 eigenvalue-minimisations  :  9265
 total energy-change (2. order) : 0.2465910E+01  (-0.3831006E+01)
 number of electron     778.0000032 magnetization     156.1651239
 augmentation part      372.6521095 magnetization     117.4862306

 Broyden mixing:
  rms(total) = 0.99873E+01    rms(broyden)= 0.99872E+01
  rms(prec ) = 0.11156E+02
  weight for this iteration     100.00

 eigenvalues of (default mixing * dielectric matrix)
  average eigenvalue GAMMA=   0.3512
  1.2597  0.4677  0.4677  0.1491  0.1491  0.1281  0.0872  0.1008

 Free energy of the ion-electron system (eV)
  ---------------------------------------------------
  alpha Z        PSCENC =      1751.32544349
  Ewald energy   TEWEN  =    237376.38214507
  -Hartree energ DENC   =   -307064.24503833
  -exchange      EXHF   =         0.00000000
  -V(xc)+E(xc)   XCENC  =      1328.58840718
  PAW double counting   =     74547.81866197   -76670.40985761
  entropy T*S    EENTRO =         0.00000000
  eigenvalues    EBANDS =      -630.38905627
[...]
      9.831286  6.298120  6.990404            0           0           0  
      3.327475  0.887173  1.073320            0           0           0  
      9.370381  5.944442  1.033549            0           0           0  
      5.774364  3.511196  1.588832            0           0           0  
     11.780804  9.102106  3.012746            0           0           0  
     12.142208  7.864851  4.907167            0           0           0  
     12.898551  6.599928  3.085357            0           0           0  
      9.609021  4.409279  2.931659            0           0           0  
      8.514774  8.489287  6.959562            0           0           0  
      8.126536  8.259675  1.100142            0           0           0  
     10.595320  7.057317  2.726279            0           0           0  
      2.643452  0.125819  5.052866            0           0           0  
      8.182065  3.505601  1.219953            0           0           0  
      4.798505  1.622219  2.896171            0           0           0  
      5.809398  6.649898  3.247617            0           0           0  
      7.654684  0.412970  4.686986            0           0           0  
      9.459261  1.133950  6.527856            0           0           0  
     10.936628  8.501528  6.949202            0           0           0  
      9.362372  1.193342  1.330661            0           0           0  
     10.656315  8.732160  0.980213            0           0           0  
      5.031467  4.910390  4.716500            0           0           0  
     12.268341  3.065617  4.961597            0           0           0  
      9.642770  0.018962  3.434634            0           0           0  
      9.859490  3.061300  5.053340            0           0           0  
      6.317386  2.583125  4.702954            0           0           0  
     12.253127  4.174930  2.833240            0           0           0  
      2.095248  1.756232  3.073240            0           0           0  
     11.831281  5.721446  1.134235            0           0           0  
      6.857430  5.749036  1.303551            0           0           0  
      8.219787  6.815704  3.002248            0           0           0  
      7.040131  4.410259  3.274640            0           0           0  
     11.127010  3.896341  6.924771            0           0           0  
     10.736077  3.416087  1.011578            0           0           0  
     11.353957  0.819354  4.883300            0           0           0  
      9.676082  7.723209  4.957292            0           0           0  
      7.203849  7.639146  5.118877            0           0           0  
      5.078032  0.269348  4.939043            0           0           0  
     10.802067  5.197055  9.767440     0.308457   -0.026910    0.950858  
 
   2 f  =   23.482133 THz   147.542594 2PiTHz  783.279625 cm-1    97.114331 meV
             X         Y         Z           dx          dy          dz
     13.782597  8.536906  6.629243            0           0           0  
      5.291460  8.548791  6.417353            0           0           0  
      5.133410  3.505442  6.838675            0           0           0  
     15.248807  9.370735  8.786891            0           0           0  
      3.925565  4.547544  9.023348            0           0           0  
      6.782280  9.257948  8.734796            0           0           0  
     12.421903  4.414957  9.107090            0           0           0  
      9.554442  9.280457  9.136509            0           0           0  
     10.906453  2.039511  8.733139            0           0           0  
      2.659147  2.075170  9.090619            0           0           0  
     12.413807  9.258077  9.012755            0           0           0  
     13.859088  6.948653  8.984008            0           0           0  
      5.373216  1.936177  9.098209            0           0           0  
      8.096322  6.825197  8.796940            0           0           0  
      9.472903  4.431726  8.798478            0           0           0  
      5.317018  6.921378  8.810872            0           0           0  
      8.170312  1.951652  8.903072            0           0           0  
      8.005788  3.376532  6.630346            0           0           0  
      6.563953  1.102963  6.786930            0           0           0  
      6.833851  1.229252  1.470327            0           0           0  
      3.612352  3.964682  2.619950            0           0           0  
      1.448266  1.448203  6.827526            0           0           0  
      0.671266  0.989103  1.081883            0           0           0  
      6.748073  9.008785  3.123421            0           0           0  
      6.728798  4.377203  8.933994            0           0           0  
      8.493301  5.384394  5.053784            0           0           0  
     11.007231  6.929394  9.128663            0           0           0  
     14.948842  7.376730  4.492489            0           0           0  
     12.473224  6.130487  6.846022            0           0           0  
      6.479243  5.893853  6.648098            0           0           0  
      3.574220  2.546241  4.958776            0           0           0  
     11.126137  5.452511  4.710247            0           0           0  
      3.881455  5.911872  6.705837            0           0           0  
     13.734382  8.588522  1.762771            0           0           0  
      4.876633  8.413947  1.577885            0           0           0  
      3.758771  6.384136  2.060921            0           0           0  
      8.358503  2.272242  3.294054            0           0           0  
      9.333665  9.158858  2.963491            0           0           0  
      2.485662  3.850045  6.944042            0           0           0  
      1.948917  3.123684  0.977335            0           0           0  
     10.751866  2.212205  3.056235            0           0           0  
     13.777989  5.058683  4.814702            0           0           0  
      3.968949  0.968003  7.025025            0           0           0  
      9.831286  6.298120  6.990404            0           0           0  
      3.327475  0.887173  1.073320            0           0           0  
      9.370381  5.944442  1.033549            0           0           0  
      5.774364  3.511196  1.588832            0           0           0  
     11.780804  9.102106  3.012746            0           0           0  
     12.142208  7.864851  4.907167            0           0           0  
     12.898551  6.599928  3.085357            0           0           0  
      9.609021  4.409279  2.931659            0           0           0  
      8.514774  8.489287  6.959562            0           0           0  
      8.126536  8.259675  1.100142            0           0           0  
     10.595320  7.057317  2.726279            0           0           0  
      2.643452  0.125819  5.052866            0           0           0  
      8.182065  3.505601  1.219953            0           0           0  
      4.798505  1.622219  2.896171            0           0           0  
      5.809398  6.649898  3.247617            0           0           0  
      7.654684  0.412970  4.686986            0           0           0  
      9.459261  1.133950  6.527856            0           0           0  
     10.936628  8.501528  6.949202            0           0           0  
      9.362372  1.193342  1.330661            0           0           0  
     10.656315  8.732160  0.980213            0           0           0  
      5.031467  4.910390  4.716500            0           0           0  
     12.268341  3.065617  4.961597            0           0           0  
      9.642770  0.018962  3.434634            0           0           0  
      9.859490  3.061300  5.053340            0           0           0  
      6.317386  2.583125  4.702954            0           0           0  
     12.253127  4.174930  2.833240            0           0           0  
      2.095248  1.756232  3.073240            0           0           0  
     11.831281  5.721446  1.134235            0           0           0  
      6.857430  5.749036  1.303551            0           0           0  
      8.219787  6.815704  3.002248            0           0           0  
      7.040131  4.410259  3.274640            0           0           0  
     11.127010  3.896341  6.924771            0           0           0  
     10.736077  3.416087  1.011578            0           0           0  
     11.353957  0.819354  4.883300            0           0           0  
      9.676082  7.723209  4.957292            0           0           0  
      7.203849  7.639146  5.118877            0           0           0  
      5.078032  0.269348  4.939043            0           0           0  
     10.802067  5.197055  9.767440     0.565324    0.809105   -0.160492  
 
   3 f  =   18.521662 THz   116.375032 2PiTHz  617.816112 cm-1    76.599463 meV
             X         Y         Z           dx          dy          dz
     13.782597  8.536906  6.629243            0           0           0  
      5.291460  8.548791  6.417353            0           0           0  
      5.133410  3.505442  6.838675            0           0           0  
     15.248807  9.370735  8.786891            0           0           0  
      3.925565  4.547544  9.023348            0           0           0  
      6.782280  9.257948  8.734796            0           0           0  
     12.421903  4.414957  9.107090            0           0           0  
      9.554442  9.280457  9.136509            0           0           0  
     10.906453  2.039511  8.733139            0           0           0  
      2.659147  2.075170  9.090619            0           0           0  
     12.413807  9.258077  9.012755            0           0           0  
     13.859088  6.948653  8.984008            0           0           0  
      5.373216  1.936177  9.098209            0           0           0  
      8.096322  6.825197  8.796940            0           0           0  
      9.472903  4.431726  8.798478            0           0           0  
      5.317018  6.921378  8.810872            0           0           0  
      8.170312  1.951652  8.903072            0           0           0  
      8.005788  3.376532  6.630346            0           0           0  
      6.563953  1.102963  6.786930            0           0           0  
      6.833851  1.229252  1.470327            0           0           0  
      3.612352  3.964682  2.619950            0           0           0  
      1.448266  1.448203  6.827526            0           0           0  
      0.671266  0.989103  1.081883            0           0           0  
      6.748073  9.008785  3.123421            0           0           0  
      6.728798  4.377203  8.933994            0           0           0  
      8.493301  5.384394  5.053784            0           0           0  
     11.007231  6.929394  9.128663            0           0           0  
     14.948842  7.376730  4.492489            0           0           0  
     12.473224  6.130487  6.846022            0           0           0  
      6.479243  5.893853  6.648098            0           0           0  
      3.574220  2.546241  4.958776            0           0           0  
     11.126137  5.452511  4.710247            0           0           0  
      3.881455  5.911872  6.705837            0           0           0  
     13.734382  8.588522  1.762771            0           0           0  
      4.876633  8.413947  1.577885            0           0           0  
      3.758771  6.384136  2.060921            0           0           0  
      8.358503  2.272242  3.294054            0           0           0  
      9.333665  9.158858  2.963491            0           0           0  
      2.485662  3.850045  6.944042            0           0           0  
      1.948917  3.123684  0.977335            0           0           0  
     10.751866  2.212205  3.056235            0           0           0  
     13.777989  5.058683  4.814702            0           0           0  
      3.968949  0.968003  7.025025            0           0           0  
      9.831286  6.298120  6.990404            0           0           0  
      3.327475  0.887173  1.073320            0           0           0  
      9.370381  5.944442  1.033549            0           0           0  
      5.774364  3.511196  1.588832            0           0           0  
     11.780804  9.102106  3.012746            0           0           0  
     12.142208  7.864851  4.907167            0           0           0  
     12.898551  6.599928  3.085357            0           0           0  
      9.609021  4.409279  2.931659            0           0           0  
      8.514774  8.489287  6.959562            0           0           0  
      8.126536  8.259675  1.100142            0           0           0  
     10.595320  7.057317  2.726279            0           0           0  
      2.643452  0.125819  5.052866            0           0           0  
      8.182065  3.505601  1.219953            0           0           0  
      4.798505  1.622219  2.896171            0           0           0  
      5.809398  6.649898  3.247617            0           0           0  
      7.654684  0.412970  4.686986            0           0           0  
      9.459261  1.133950  6.527856            0           0           0  
     10.936628  8.501528  6.949202            0           0           0  
      9.362372  1.193342  1.330661            0           0           0  
     10.656315  8.732160  0.980213            0           0           0  
      5.031467  4.910390  4.716500            0           0           0  
     12.268341  3.065617  4.961597            0           0           0  
      9.642770  0.018962  3.434634            0           0           0  
      9.859490  3.061300  5.053340            0           0           0  
      6.317386  2.583125  4.702954            0           0           0  
     12.253127  4.174930  2.833240            0           0           0  
      2.095248  1.756232  3.073240            0           0           0  
     11.831281  5.721446  1.134235            0           0           0  
      6.857430  5.749036  1.303551            0           0           0  
      8.219787  6.815704  3.002248            0           0           0  
      7.040131  4.410259  3.274640            0           0           0  
     11.127010  3.896341  6.924771            0           0           0  
     10.736077  3.416087  1.011578            0           0           0  
     11.353957  0.819354  4.883300            0           0           0  
      9.676082  7.723209  4.957292            0           0           0  
      7.203849  7.639146  5.118877            0           0           0  
      5.078032  0.269348  4.939043            0           0           0  
     10.802067  5.197055  9.767440    -0.765025    0.587047    0.264787  
 
 Finite differences POTIM=  1.500000000000000E-002
  LATTYP: Found a hexagonal cell.
 ALAT       =    11.2227001190
 C/A-ratio  =     1.9603125600
  
  Lattice vectors:
  
 A1 = (   5.6113500595,  -9.7191434021,   0.0000000000)
 A2 = ( -11.2227001190,   0.0000000000,   0.0000000000)
 A3 = (   0.0000000000,   0.0000000000, -22.0000000000)


Analysis of symmetry for initial positions (statically):
=====================================================================
 Subroutine PRICEL returns:
 Original cell was already a primitive cell.
 

 Routine SETGRP: Setting up the symmetry group for a 
 hexagonal supercell.


 Subroutine GETGRP returns: Found  1 space group operations
 (whereof  1 operations were pure point group operations)
 out of a pool of 24 trial point group operations.


The static configuration has the point symmetry C_1 .


Analysis of symmetry for dynamics (positions and initial velocities):
=====================================================================
 Subroutine PRICEL returns:
 Original cell was already a primitive cell.
 

 Routine SETGRP: Setting up the symmetry group for a 
 hexagonal supercell.


 Subroutine GETGRP returns: Found  1 space group operations
 (whereof  1 operations were pure point group operations)
 out of a pool of 24 trial point group operations.


The dynamic configuration has the point symmetry C_1 .


Analysis of constrained symmetry for selective dynamics:
=====================================================================
 Subroutine PRICEL returns:
 Original cell was already a primitive cell.
 

 Routine SETGRP: Setting up the symmetry group for a 
 hexagonal supercell.


 Subroutine GETGRP returns: Found  1 space group operations
 (whereof  1 operations were pure point group operations)
 out of a pool of 24 trial point group operations.


The constrained configuration has the point symmetry C_1 .


Analysis of structural, dynamic, and magnetic symmetry:
=====================================================================
 Subroutine PRICEL returns:
 Original cell was already a primitive cell.
 

 Routine SETGRP: Setting up the symmetry group for a 
 hexagonal supercell.


 Subroutine GETGRP returns: Found  1 space group operations
 (whereof  1 operations were pure point group operations)
 out of a pool of 24 trial point group operations.


The magnetic configuration has the point symmetry C_1 .


 Subroutine INISYM returns: Found  1 space group operations
 (whereof  1 operations are pure point group operations),
 and found     1 'primitive' translations

 
 KPOINTS: mesh auto                               

Automatic generation of k-mesh.
Space group operators:
 irot       det(A)        alpha          n_x          n_y          n_z        tau_x        tau_y        tau_z
    1     1.000000     0.000000     1.000000     0.000000     0.000000     0.000000     0.000000     0.000000
 
 Subroutine IBZKPT returns following result:
 ===========================================
 
 Found      4 irreducible k-points:
 
 Following reciprocal coordinates:
            Coordinates               Weight
  0.000000  0.000000  0.000000      1.000000
  0.500000  0.000000  0.000000      1.000000
  0.000000  0.500000  0.000000      1.000000
  0.500000  0.500000  0.000000      1.000000
 
 Following cartesian coordinates:
            Coordinates               Weight
  0.000000  0.000000  0.000000      1.000000
  0.044553 -0.025722  0.000000      1.000000
  0.000000  0.051445  0.000000      1.000000
  0.044553  0.025722  0.000000      1.000000
 
 TETIRR: Found     12 inequivalent tetrahedra from       24
     LOOP+:  cpu time  728.9634: real time  731.1619
    4ORBIT:  cpu time    0.0000: real time    0.0000
 BZINTS: Fermi energy:  1.515541;778.000000 electrons
         Band energy:-898.917437;  BLOECHL correction: -0.233649

 total amount of memory used by VASP MPI-rank0   379525. kBytes
=======================================================================

   base      :      30000. kBytes
   nonlr-proj:      90639. kBytes
   fftplans  :      13535. kBytes
   grid      :     132462. kBytes
   one-center:       2519. kBytes
   wavefun   :     110370. kBytes
 
  
  
 General timing and accounting informations for this job:
 ========================================================
  
                  Total CPU time used (sec):     8355.570
                            User time (sec):     8317.417
                          System time (sec):       38.153
                         Elapsed time (sec):     8392.385
  
                   Maximum memory used (kb):      729716.
                   Average memory used (kb):           0.
  
                          Minor page faults:      3680688
                          Major page faults:          175
                 Voluntary context switches:         6370
