 vasp.5.4.4.18Apr17-6-g9f103f2a35 (build Oct 25 2019 11:13:22) complex          
  
 executed on             LinuxIFC date 2022.02.05  09:06:08
 running on   48 total cores
 distrk:  each k-point on   48 cores,    1 groups
 distr:  one band on NCORES_PER_BAND=   1 cores,   48 groups


--------------------------------------------------------------------------------------------------------


 INCAR:
 POTCAR:    PAW_PBE Pt 04Feb2005                  
 POTCAR:    PAW_PBE Fe 06Sep2000                  
 POTCAR:    PAW_PBE Co 02Aug2007                  
 POTCAR:    PAW_PBE Cu 22Jun2005                  
 POTCAR:    PAW_PBE Ni 02Aug2007                  
 POTCAR:    PAW_PBE H 15Jun2001                   

 ----------------------------------------------------------------------------- 
|                                                                             |
|           W    W    AA    RRRRR   N    N  II  N    N   GGGG   !!!           |
|           W    W   A  A   R    R  NN   N  II  NN   N  G    G  !!!           |
|           W    W  A    A  R    R  N N  N  II  N N  N  G       !!!           |
|           W WW W  AAAAAA  RRRRR   N  N N  II  N  N N  G  GGG   !            |
|           WW  WW  A    A  R   R   N   NN  II  N   NN  G    G                |
|           W    W  A    A  R    R  N    N  II  N    N   GGGG   !!!           |
|                                                                             |
|      For optimal performance we recommend to set                            |
|        NCORE= 4 - approx SQRT( number of cores)                             |
|      NCORE specifies how many cores store one orbital (NPAR=cpu/NCORE).     |
|      This setting can  greatly improve the performance of VASP for DFT.     |
|      The default,   NCORE=1            might be grossly inefficient         |
|      on modern multi-core architectures or massively parallel machines.     |
|      Do your own testing !!!!                                               |
|      Unfortunately you need to use the default for GW and RPA calculations. |
|      (for HF NCORE is supported but not extensively tested yet)             |
|                                                                             |
 ----------------------------------------------------------------------------- 

 POTCAR:    PAW_PBE Pt 04Feb2005                  
   VRHFIN =Pt: s1d9                                                             
   LEXCH  = PE                                                                  
   EATOM  =   729.1176 eV,   53.5886 Ry                                         
                                                                                
   TITEL  = PAW_PBE Pt 04Feb2005                                                
   LULTRA =        F    use ultrasoft PP ?                                      
   IUNSCR =        1    unscreen: 0-lin 1-nonlin 2-no                           
   RPACOR =    2.330    partial core radius                                     
   POMASS =  195.080; ZVAL   =   10.000    mass and valenz                      
   RCORE  =    2.600    outmost cutoff radius                                   
   RWIGS  =    2.750; RWIGS  =    1.455    wigner-seitz radius (au A)           
   ENMAX  =  230.283; ENMIN  =  172.712 eV                                      
   ICORE  =        3    local potential                                         
   LCOR   =        T    correct aug charges                                     
   LPAW   =        T    paw PP                                                  
   EAUG   =  358.966                                                            
   DEXC   =    0.000                                                            
   RMAX   =    2.658    core radius for proj-oper                               
   RAUG   =    1.300    factor for augmentation sphere                          
   RDEP   =    2.761    radius for radial grids                                 
   RDEPT  =    2.203    core radius for aug-charge                              
                                                                                
   Atomic configuration                                                         
   16 entries                                                                   
     n  l   j            E        occ.                                          
     1  0  0.50    -78401.1885   2.0000                                         
     2  0  0.50    -13770.7750   2.0000                                         
     2  1  1.50    -11931.0468   6.0000                                         
     3  0  0.50     -3234.7234   2.0000                                         
     3  1  1.50     -2699.2216   6.0000                                         
     3  2  2.50     -2119.5714  10.0000                                         
     4  0  0.50      -695.1528   2.0000                                         
     4  1  1.50      -519.6034   6.0000                                         
     4  2  2.50      -306.6786  10.0000                                         
     4  3  3.50       -70.1041  14.0000                                         
     5  0  0.50      -101.7747   2.0000                                         
     5  1  1.50       -55.9873   6.0000                                         
     5  2  2.50        -6.1423   9.0000                                         
     6  0  0.50        -5.6573   1.0000                                         
     6  1  1.50        -6.8029   0.0000                                         
     5  3  2.50        -1.3606   0.0000                                         
   Description                                                                  
     l       E           TYP  RCUT    TYP  RCUT                                 
     2     -6.1423404     23  2.500                                             
     2     -7.5029230     23  2.500                                             
     0     -5.6573207     23  2.500                                             
     0      0.7416693     23  2.500                                             
     1     -2.7211652     23  2.600                                             
     1     20.4087390     23  2.600                                             
     3     -1.3605826     23  2.500                                             
  local pseudopotential read in
  partial core-charges read in
  partial kinetic energy density read in
  atomic valenz-charges read in
  non local Contribution for L=           2  read in
    real space projection operators read in
  non local Contribution for L=           2  read in
    real space projection operators read in
  non local Contribution for L=           0  read in
    real space projection operators read in
  non local Contribution for L=           0  read in
    real space projection operators read in
  non local Contribution for L=           1  read in
    real space projection operators read in
  non local Contribution for L=           1  read in
    real space projection operators read in
    PAW grid and wavefunctions read in
 
   number of l-projection  operators is LMAX  =           6
   number of lm-projection operators is LMMAX =          18
 
 POTCAR:    PAW_PBE Fe 06Sep2000                  
   VRHFIN =Fe:  d7 s1                                                           
   LEXCH  = PE                                                                  
   EATOM  =   594.3153 eV,   43.6809 Ry                                         
                                                                                
   TITEL  = PAW_PBE Fe 06Sep2000                                                
   LULTRA =        F    use ultrasoft PP ?                                      
   IUNSCR =        1    unscreen: 0-lin 1-nonlin 2-no                           
   RPACOR =    2.000    partial core radius                                     
   POMASS =   55.847; ZVAL   =    8.000    mass and valenz                      
   RCORE  =    2.300    outmost cutoff radius                                   
   RWIGS  =    2.460; RWIGS  =    1.302    wigner-seitz radius (au A)           
   ENMAX  =  267.882; ENMIN  =  200.911 eV                                      
   RCLOC  =    1.701    cutoff for local pot                                    
   LCOR   =        T    correct aug charges                                     
   LPAW   =        T    paw PP                                                  
   EAUG   =  511.368                                                            
   DEXC   =    0.000                                                            
   RMAX   =    2.356    core radius for proj-oper                               
   RAUG   =    1.300    factor for augmentation sphere                          
   RDEP   =    2.442    radius for radial grids                                 
   RDEPT  =    1.890    core radius for aug-charge                              
                                                                                
   Atomic configuration                                                         
    9 entries                                                                   
     n  l   j            E        occ.                                          
     1  0  0.50     -6993.8440   2.0000                                         
     2  0  0.50      -814.6047   2.0000                                         
     2  1  1.50      -693.3689   6.0000                                         
     3  0  0.50       -89.4732   2.0000                                         
     3  1  1.50       -55.6373   6.0000                                         
     3  2  2.50        -3.8151   7.0000                                         
     4  0  0.50        -4.2551   1.0000                                         
     4  1  1.50        -3.4015   0.0000                                         
     4  3  2.50        -1.3606   0.0000                                         
   Description                                                                  
     l       E           TYP  RCUT    TYP  RCUT                                 
     2     -3.8151135     23  2.300                                             
     2     -5.1756961     23  2.300                                             
     0     -4.2550963     23  2.300                                             
     0      7.2035603     23  2.300                                             
     1     -2.7211652     23  2.300                                             
     1     18.4316424     23  2.300                                             
  local pseudopotential read in
  partial core-charges read in
  partial kinetic energy density read in
  atomic valenz-charges read in
  non local Contribution for L=           2  read in
    real space projection operators read in
  non local Contribution for L=           2  read in
    real space projection operators read in
  non local Contribution for L=           0  read in
    real space projection operators read in
  non local Contribution for L=           0  read in
    real space projection operators read in
  non local Contribution for L=           1  read in
    real space projection operators read in
  non local Contribution for L=           1  read in
    real space projection operators read in
    PAW grid and wavefunctions read in
 
   number of l-projection  operators is LMAX  =           6
   number of lm-projection operators is LMMAX =          18
 
 POTCAR:    PAW_PBE Co 02Aug2007                  
   VRHFIN =Co: d8 s1                                                            
   LEXCH  = PE                                                                  
   EATOM  =   813.3670 eV,   59.7808 Ry                                         
                                                                                
   TITEL  = PAW_PBE Co 02Aug2007                                                
   LULTRA =        F    use ultrasoft PP ?                                      
   IUNSCR =        1    unscreen: 0-lin 1-nonlin 2-no                           
   RPACOR =    2.000    partial core radius                                     
   POMASS =   58.933; ZVAL   =    9.000    mass and valenz                      
   RCORE  =    2.300    outmost cutoff radius                                   
   RWIGS  =    2.460; RWIGS  =    1.302    wigner-seitz radius (au A)           
   ENMAX  =  267.968; ENMIN  =  200.976 eV                                      
   RCLOC  =    1.203    cutoff for local pot                                    
   LCOR   =        T    correct aug charges                                     
   LPAW   =        T    paw PP                                                  
   EAUG   =  477.818                                                            
   DEXC   =    0.000                                                            
   RMAX   =    2.360    core radius for proj-oper                               
   RAUG   =    1.300    factor for augmentation sphere                          
   RDEP   =    2.393    radius for radial grids                                 
   RDEPT  =    1.864    core radius for aug-charge                              
                                                                                
   Atomic configuration                                                         
    9 entries                                                                   
     n  l   j            E        occ.                                          
     1  0  0.50     -7587.6674   2.0000                                         
     2  0  0.50      -893.6084   2.0000                                         
     2  1  1.50      -764.5805   6.0000                                         
     3  0  0.50       -97.5973   2.0000                                         
     3  1  1.50       -60.9648   6.0000                                         
     3  2  2.50        -4.2382   8.0000                                         
     4  0  0.50        -4.3746   1.0000                                         
     4  1  1.50        -4.0817   0.0000                                         
     4  3  2.50        -1.3606   0.0000                                         
   Description                                                                  
     l       E           TYP  RCUT    TYP  RCUT                                 
     2     -4.2382362     23  2.300                                             
     2     -5.5988188     23  2.300                                             
     0     -4.3745797     23  2.300                                             
     0      5.7660125     23  2.300                                             
     1     -2.7211652     23  2.300                                             
     1     16.9860234     23  2.300                                             
  local pseudopotential read in
  partial core-charges read in
  partial kinetic energy density read in
  atomic valenz-charges read in
  non local Contribution for L=           2  read in
    real space projection operators read in
  non local Contribution for L=           2  read in
    real space projection operators read in
  non local Contribution for L=           0  read in
    real space projection operators read in
  non local Contribution for L=           0  read in
    real space projection operators read in
  non local Contribution for L=           1  read in
    real space projection operators read in
  non local Contribution for L=           1  read in
    real space projection operators read in
    PAW grid and wavefunctions read in
 
   number of l-projection  operators is LMAX  =           6
   number of lm-projection operators is LMMAX =          18
 
 POTCAR:    PAW_PBE Cu 22Jun2005                  
   VRHFIN =Cu: d10 p1                                                           
   LEXCH  = PE                                                                  
   EATOM  =  1390.9808 eV,  102.2342 Ry                                         
                                                                                
   TITEL  = PAW_PBE Cu 22Jun2005                                                
   LULTRA =        F    use ultrasoft PP ?                                      
   IUNSCR =        1    unscreen: 0-lin 1-nonlin 2-no                           
   RPACOR =    2.000    partial core radius                                     
   POMASS =   63.546; ZVAL   =   11.000    mass and valenz                      
   RCORE  =    2.300    outmost cutoff radius                                   
   RWIGS  =    2.200; RWIGS  =    1.164    wigner-seitz radius (au A)           
   ENMAX  =  295.446; ENMIN  =  221.585 eV                                      
   ICORE  =        3    local potential                                         
   LCOR   =        T    correct aug charges                                     
   LPAW   =        T    paw PP                                                  
   EAUG   =  586.980                                                            
   DEXC   =    0.000                                                            
   RMAX   =    2.344    core radius for proj-oper                               
   RAUG   =    1.300    factor for augmentation sphere                          
   RDEP   =    2.302    radius for radial grids                                 
   RDEPT  =    1.771    core radius for aug-charge                              
                                                                                
   Atomic configuration                                                         
    9 entries                                                                   
     n  l   j            E        occ.                                          
     1  0  0.50     -8850.2468   2.0000                                         
     2  0  0.50     -1062.3498   2.0000                                         
     2  1  1.50      -916.8226   6.0000                                         
     3  0  0.50      -114.6929   2.0000                                         
     3  1  1.50       -72.1325   6.0000                                         
     3  2  2.50        -5.0394  10.0000                                         
     4  0  0.50        -4.6097   1.0000                                         
     4  1  0.50        -4.0817   0.0000                                         
     4  3  2.50        -1.3606   0.0000                                         
   Description                                                                  
     l       E           TYP  RCUT    TYP  RCUT                                 
     2     -5.0393973     23  2.200                                             
     2     10.8846608     23  2.200                                             
     0     -4.6097109     23  2.200                                             
     0      8.2520465     23  2.200                                             
     1     -2.7211652     23  2.200                                             
     1     21.7055443     23  2.200                                             
     3      2.7211652     23  2.300                                             
  local pseudopotential read in
  partial core-charges read in
  partial kinetic energy density read in
  atomic valenz-charges read in
  non local Contribution for L=           2  read in
    real space projection operators read in
  non local Contribution for L=           2  read in
    real space projection operators read in
  non local Contribution for L=           0  read in
    real space projection operators read in
  non local Contribution for L=           0  read in
    real space projection operators read in
  non local Contribution for L=           1  read in
    real space projection operators read in
  non local Contribution for L=           1  read in
    real space projection operators read in
    PAW grid and wavefunctions read in
 
   number of l-projection  operators is LMAX  =           6
   number of lm-projection operators is LMMAX =          18
 
 POTCAR:    PAW_PBE Ni 02Aug2007                  
   VRHFIN =Ni:                                                                  
   LEXCH  = PE                                                                  
   EATOM  =  1077.6739 eV,   79.2068 Ry                                         
                                                                                
   TITEL  = PAW_PBE Ni 02Aug2007                                                
   LULTRA =        F    use ultrasoft PP ?                                      
   IUNSCR =        1    unscreen: 0-lin 1-nonlin 2-no                           
   RPACOR =    2.000    partial core radius                                     
   POMASS =   58.690; ZVAL   =   10.000    mass and valenz                      
   RCORE  =    2.300    outmost cutoff radius                                   
   RWIGS  =    2.430; RWIGS  =    1.286    wigner-seitz radius (au A)           
   ENMAX  =  269.532; ENMIN  =  202.149 eV                                      
   RCLOC  =    1.201    cutoff for local pot                                    
   LCOR   =        T    correct aug charges                                     
   LPAW   =        T    paw PP                                                  
   EAUG   =  544.565                                                            
   DEXC   =    0.000                                                            
   RMAX   =    2.357    core radius for proj-oper                               
   RAUG   =    1.300    factor for augmentation sphere                          
   RDEP   =    2.390    radius for radial grids                                 
   RDEPT  =    1.838    core radius for aug-charge                              
                                                                                
   Atomic configuration                                                         
    9 entries                                                                   
     n  l   j            E        occ.                                          
     1  0  0.50     -8206.4253   2.0000                                         
     2  0  0.50      -976.1748   2.0000                                         
     2  1  1.50      -839.0571   6.0000                                         
     3  0  0.50      -105.9991   2.0000                                         
     3  1  1.50       -66.4603   6.0000                                         
     3  2  2.50        -4.6458   9.0000                                         
     4  0  0.50        -4.4926   1.0000                                         
     4  1  1.50        -4.0817   0.0000                                         
     4  3  2.50        -1.3606   0.0000                                         
   Description                                                                  
     l       E           TYP  RCUT    TYP  RCUT                                 
     2     -4.6457903     23  2.300                                             
     2     -6.0063729     23  2.300                                             
     0     -4.4925590     23  2.300                                             
     0      5.0102601     23  2.300                                             
     1     -2.7211652     23  2.300                                             
     1     16.5183231     23  2.300                                             
  local pseudopotential read in
  partial core-charges read in
  partial kinetic energy density read in
  atomic valenz-charges read in
  non local Contribution for L=           2  read in
    real space projection operators read in
  non local Contribution for L=           2  read in
    real space projection operators read in
  non local Contribution for L=           0  read in
    real space projection operators read in
  non local Contribution for L=           0  read in
    real space projection operators read in
  non local Contribution for L=           1  read in
    real space projection operators read in
  non local Contribution for L=           1  read in
    real space projection operators read in
    PAW grid and wavefunctions read in
 
   number of l-projection  operators is LMAX  =           6
   number of lm-projection operators is LMMAX =          18
 
 POTCAR:    PAW_PBE H 15Jun2001                   
   VRHFIN =H: ultrasoft test                                                    
   LEXCH  = PE                                                                  
   EATOM  =    12.4884 eV,    0.9179 Ry                                         
                                                                                
   TITEL  = PAW_PBE H 15Jun2001                                                 
   LULTRA =        F    use ultrasoft PP ?                                      
   IUNSCR =        0    unscreen: 0-lin 1-nonlin 2-no                           
   RPACOR =    0.000    partial core radius                                     
   POMASS =    1.000; ZVAL   =    1.000    mass and valenz                      
   RCORE  =    1.100    outmost cutoff radius                                   
   RWIGS  =    0.700; RWIGS  =    0.370    wigner-seitz radius (au A)           
   ENMAX  =  250.000; ENMIN  =  200.000 eV                                      
   RCLOC  =    0.701    cutoff for local pot                                    
   LCOR   =        T    correct aug charges                                     
   LPAW   =        T    paw PP                                                  
   EAUG   =  400.000                                                            
   RMAX   =    1.123    core radius for proj-oper                               
   RAUG   =    1.200    factor for augmentation sphere                          
   RDEP   =    1.112    radius for radial grids                                 
   RDEPT  =    0.926    core radius for aug-charge                              
                                                                                
   Atomic configuration                                                         
    2 entries                                                                   
     n  l   j            E        occ.                                          
     1  0  0.50        -6.4927   1.0000                                         
     2  1  0.50        -3.4015   0.0000                                         
   Description                                                                  
     l       E           TYP  RCUT    TYP  RCUT                                 
     0     -6.4927494     23  1.100                                             
     0      6.8029130     23  1.100                                             
     1     -4.0817478     23  1.100                                             
  local pseudopotential read in
  atomic valenz-charges read in
  non local Contribution for L=           0  read in
    real space projection operators read in
  non local Contribution for L=           0  read in
    real space projection operators read in
  non local Contribution for L=           1  read in
    real space projection operators read in
    PAW grid and wavefunctions read in
 
   number of l-projection  operators is LMAX  =           3
   number of lm-projection operators is LMMAX =           5
 
 Optimization of the real space projectors (new method)

 maximal supplied QI-value         = 14.36
 optimisation between [QCUT,QGAM] = [ 11.92, 23.98] = [ 39.79,161.09] Ry 
 Optimized for a Real-space Cutoff    1.49 Angstroem

   l    n(q)    QCUT    max X(q) W(low)/X(q) W(high)/X(q)  e(spline) 
   2     10    11.920    66.195    0.79E-04    0.18E-03    0.24E-06
   2     10    11.920    64.643    0.81E-04    0.19E-03    0.24E-06
   0     11    11.920    95.520    0.28E-04    0.54E-04    0.18E-06
   0     11    11.920    63.403    0.27E-04    0.52E-04    0.17E-06
   1     10    11.920    19.961    0.18E-04    0.11E-03    0.23E-06
   1     10    11.920    13.289    0.25E-04    0.87E-04    0.19E-06
 Optimization of the real space projectors (new method)

 maximal supplied QI-value         = 16.25
 optimisation between [QCUT,QGAM] = [ 11.86, 23.89] = [ 39.41,159.82] Ry 
 Optimized for a Real-space Cutoff    1.49 Angstroem

   l    n(q)    QCUT    max X(q) W(low)/X(q) W(high)/X(q)  e(spline) 
   2     10    11.864    80.901    0.13E-03    0.23E-03    0.37E-06
   2     10    11.864    75.754    0.13E-03    0.23E-03    0.38E-06
   0     11    11.864    58.752    0.44E-04    0.11E-04    0.20E-06
   0     11    11.864    30.679    0.36E-04    0.10E-04    0.18E-06
   1     10    11.864    17.977    0.31E-04    0.45E-04    0.10E-06
   1     10    11.864    13.559    0.25E-04    0.37E-04    0.89E-07
 Optimization of the real space projectors (new method)

 maximal supplied QI-value         = 16.25
 optimisation between [QCUT,QGAM] = [ 11.86, 23.89] = [ 39.41,159.82] Ry 
 Optimized for a Real-space Cutoff    1.33 Angstroem

   l    n(q)    QCUT    max X(q) W(low)/X(q) W(high)/X(q)  e(spline) 
   2      9    11.864    65.824    0.22E-03    0.53E-03    0.26E-06
   2      9    11.864    61.429    0.22E-03    0.53E-03    0.26E-06
   0      9    11.864    56.174    0.21E-03    0.32E-04    0.15E-06
   0      9    11.864    31.263    0.19E-03    0.30E-04    0.14E-06
   1      9    11.864    19.828    0.63E-04    0.30E-03    0.16E-06
   1      9    11.864    15.139    0.49E-04    0.25E-03    0.13E-06
 Optimization of the real space projectors (new method)

 maximal supplied QI-value         = 16.25
 optimisation between [QCUT,QGAM] = [ 11.86, 23.89] = [ 39.41,159.82] Ry 
 Optimized for a Real-space Cutoff    1.49 Angstroem

   l    n(q)    QCUT    max X(q) W(low)/X(q) W(high)/X(q)  e(spline) 
   2     10    11.864     4.610    0.10E-03    0.20E-03    0.29E-06
   2     10    11.864     8.522    0.17E-03    0.33E-03    0.50E-06
   0     11    11.864    51.609    0.52E-04    0.55E-04    0.33E-06
   0     11    11.864    27.747    0.46E-04    0.52E-04    0.31E-06
   1     10    11.864    20.408    0.54E-04    0.25E-04    0.21E-06
   1     10    11.864    13.425    0.48E-04    0.22E-04    0.18E-06
 Optimization of the real space projectors (new method)

 maximal supplied QI-value         = 16.25
 optimisation between [QCUT,QGAM] = [ 11.86, 23.89] = [ 39.41,159.82] Ry 
 Optimized for a Real-space Cutoff    1.33 Angstroem

   l    n(q)    QCUT    max X(q) W(low)/X(q) W(high)/X(q)  e(spline) 
   2      9    11.864    60.317    0.21E-03    0.51E-03    0.25E-06
   2      9    11.864    55.921    0.21E-03    0.51E-03    0.26E-06
   0      9    11.864    51.690    0.22E-03    0.30E-04    0.17E-06
   0      9    11.864    30.015    0.20E-03    0.28E-04    0.15E-06
   1      9    11.864    18.849    0.76E-04    0.33E-03    0.17E-06
   1      9    11.864    14.624    0.60E-04    0.28E-03    0.15E-06
 Optimization of the real space projectors (new method)

 maximal supplied QI-value         = 34.20
 optimisation between [QCUT,QGAM] = [ 11.97, 23.94] = [ 40.13,160.53] Ry 
 Optimized for a Real-space Cutoff    1.18 Angstroem

   l    n(q)    QCUT    max X(q) W(low)/X(q) W(high)/X(q)  e(spline) 
   0      8    11.971    19.460    0.15E-03    0.31E-03    0.25E-06
   0      8    11.971    12.209    0.13E-03    0.29E-03    0.25E-06
   1      8    11.971     4.655    0.22E-03    0.24E-03    0.21E-06
  PAW_PBE Pt 04Feb2005                  :
 energy of atom  1       EATOM= -729.1176
 kinetic energy error for atom=    0.0021 (will be added to EATOM!!)
  PAW_PBE Fe 06Sep2000                  :
 energy of atom  2       EATOM= -594.3153
 kinetic energy error for atom=    0.0024 (will be added to EATOM!!)
  PAW_PBE Co 02Aug2007                  :
 energy of atom  3       EATOM= -813.3670
 kinetic energy error for atom=    0.0026 (will be added to EATOM!!)
  PAW_PBE Cu 22Jun2005                  :
 energy of atom  4       EATOM=-1390.9808
 kinetic energy error for atom=    0.0036 (will be added to EATOM!!)
  PAW_PBE Ni 02Aug2007                  :
 energy of atom  5       EATOM=-1077.6739
 kinetic energy error for atom=    0.0027 (will be added to EATOM!!)
  PAW_PBE H 15Jun2001                   :
 energy of atom  6       EATOM=  -12.4884
 kinetic energy error for atom=    0.0008 (will be added to EATOM!!)
 
 
 POSCAR: 10.66                                   
  positions in cartesian coordinates
  No initial velocities read in
 exchange correlation table for  LEXCH =        8
   RHO(1)=    0.500       N(1)  =     2000
   RHO(2)=  100.500       N(2)  =     4000
 


--------------------------------------------------------------------------------------------------------


 ion  position               nearest neighbor table
   1  0.786  0.879  0.317-  49 2.62  28 2.63  19 2.65  59 2.65  61 2.67  33 2.68  29 2.69  60 2.70
                             2 2.74  11 2.82  12 2.83   4 2.85
   2  0.042  0.883  0.315-  79 2.56  77 2.59  60 2.64  28 2.65  30 2.67  52 2.69  33 2.69  22 2.72
                             1 2.74   6 2.75   4 2.84  16 2.88
   3  0.279  0.381  0.319-  64 2.57  39 2.58  33 2.61  31 2.63  68 2.71  19 2.73  30 2.73  43 2.74
                            13 2.78   5 2.78  18 2.83  25 2.84
   4  0.878  0.961  0.425-  81 1.84   6 2.64  16 2.65   9 2.66  12 2.70  17 2.71  11 2.73  60 2.83
                             2 2.84   1 2.85
   5  0.121  0.463  0.426-  12 2.63   7 2.65  16 2.66  10 2.66  13 2.68  25 2.69  39 2.72  33 2.73
                             3 2.78
   6  0.125  0.961  0.420-   4 2.64   8 2.65  14 2.66  10 2.67   9 2.67  16 2.68   2 2.75  52 2.75
                            22 2.84
   7  0.874  0.460  0.425-   9 2.64  15 2.64   5 2.65  12 2.66  10 2.67  27 2.68  39 2.68  75 2.75
                            29 2.78
   8  0.374  0.960  0.419-  43 2.60  14 2.63  11 2.64   6 2.65  27 2.65  13 2.66  10 2.66  52 2.68
                            61 2.71
   9  0.875  0.212  0.419-   7 2.64  15 2.66  10 2.66   4 2.66  75 2.67   6 2.67  17 2.68  60 2.71
                            22 2.79
  10  0.125  0.211  0.421-  13 2.63   5 2.66   8 2.66   9 2.66  39 2.67   7 2.67   6 2.67  43 2.72
                            22 2.77
  11  0.622  0.959  0.425-  81 1.86  27 2.64   8 2.64  13 2.67  12 2.68  17 2.72   4 2.73   1 2.82
                            61 2.84  19 2.87
  12  0.875  0.709  0.424-   5 2.63   7 2.66  16 2.67  27 2.68  33 2.68  11 2.68   4 2.70  29 2.79
                             1 2.83
  13  0.372  0.210  0.423-  10 2.63   8 2.66  11 2.67   5 2.68  25 2.69  17 2.70  43 2.74   3 2.78
                            19 2.81
  14  0.376  0.712  0.422-  27 2.63   8 2.63   6 2.66  15 2.67  25 2.68  44 2.69  16 2.69  52 2.74
                            30 2.76
  15  0.626  0.462  0.421-   7 2.64  27 2.64  17 2.65   9 2.66  14 2.67  44 2.68  25 2.69  75 2.71
                            18 2.75
  16  0.125  0.710  0.424-  25 2.65   4 2.65   5 2.66  33 2.67  12 2.67   6 2.68  14 2.69  30 2.81
                             2 2.88
  17  0.623  0.214  0.423-  81 1.87  25 2.65  15 2.65   9 2.68  13 2.70   4 2.71  11 2.72  18 2.76
                            60 2.80  19 2.88
  18  0.548  0.376  0.317-  67 2.56  60 2.62  75 2.63  68 2.65  44 2.67  26 2.67  30 2.73  15 2.75
                            19 2.75  17 2.76   3 2.83  25 2.87
  19  0.535  0.125  0.315-  80 2.55  68 2.58  43 2.59  59 2.60   1 2.65  61 2.66   3 2.73  18 2.75
                            60 2.77  13 2.81  11 2.87  17 2.88
  20  0.549  0.122  0.042-  37 2.55  57 2.55  48 2.57  62 2.66  63 2.70  34 2.71  45 2.73  47 2.74
                            56 2.74
  21  0.120  0.460  0.128-  40 2.52  36 2.53  47 2.53  42 2.60  64 2.62  69 2.62  70 2.66  50 2.67
                            58 2.71  31 2.71  57 2.74  74 2.75
  22  0.044  0.136  0.314-  65 2.51  55 2.54  77 2.57  39 2.60  43 2.61  75 2.64   2 2.72  60 2.72
                            52 2.75  10 2.77   9 2.79   6 2.84  31 3.40
  23  0.042  0.131  0.034-  70 2.57  40 2.60  41 2.61  45 2.64  62 2.65  76 2.65  24 2.69  35 2.76
                            53 2.81
  24  0.131  0.958  0.132-  79 2.51  77 2.54  35 2.57  53 2.58  55 2.59  70 2.64  38 2.66  58 2.66
                            73 2.67  23 2.69  66 2.73  41 2.75
  25  0.374  0.462  0.425-  16 2.65  17 2.65  14 2.68   5 2.69  15 2.69  13 2.69  30 2.83   3 2.84
                            18 2.87
  26  0.455  0.546  0.219-  73 2.49  74 2.54  51 2.55  79 2.63  30 2.65  64 2.66  18 2.67  78 2.70
                            68 2.70  32 2.70  44 2.74  67 2.76
  27  0.623  0.711  0.422-  14 2.63  15 2.64  11 2.64   8 2.65  12 2.68   7 2.68  44 2.68  61 2.75
                            29 2.78
  28  0.956  0.789  0.221-  58 2.56  50 2.58  66 2.58  42 2.61  49 2.63   1 2.63   2 2.65  64 2.66
                            33 2.70  59 2.73  79 2.81  77 2.81
  29  0.795  0.623  0.318-  42 2.55  39 2.56  75 2.61  32 2.62  33 2.67  49 2.67  44 2.68   1 2.69
                            61 2.70  27 2.78   7 2.78  12 2.79
  30  0.291  0.631  0.317-  79 2.56  64 2.60  52 2.63  26 2.65  44 2.65   2 2.67  33 2.68  18 2.73
                             3 2.73  14 2.76  16 2.81  25 2.83
  31  0.202  0.279  0.225-  70 2.51  55 2.57  43 2.59  65 2.59  57 2.60   3 2.63  39 2.66  21 2.71
                            80 2.72  42 2.73  68 2.79  64 2.83  22 3.40
  32  0.706  0.550  0.221-  54 2.53  69 2.56  51 2.58  49 2.60  29 2.62  42 2.63  78 2.64  65 2.65
                            44 2.68  75 2.68  26 2.70  67 2.72
  33  0.041  0.631  0.324-   3 2.61  16 2.67  39 2.67  29 2.67  30 2.68  12 2.68   1 2.68   2 2.69
                            28 2.70  64 2.70  42 2.72   5 2.73
  34  0.796  0.862  0.044-  50 2.39  66 2.51  48 2.52  36 2.55  71 2.58  63 2.62  20 2.71  62 2.79
                            35 2.80
  35  0.057  0.865  0.039-  58 2.54  72 2.55  36 2.56  24 2.57  66 2.62  53 2.68  23 2.76  62 2.76
                            34 2.80
  36  0.044  0.632  0.039-  21 2.53  34 2.55  35 2.56  58 2.58  50 2.59  47 2.67  72 2.69  71 2.74
                            40 2.76
  37  0.628  0.224  0.129-  51 2.51  67 2.52  56 2.52  74 2.53  20 2.55  68 2.56  41 2.57  59 2.57
                            62 2.59  66 2.69  57 2.76  48 2.95
  38  0.383  0.954  0.131-  53 2.46  45 2.47  80 2.48  78 2.53  73 2.56  63 2.56  48 2.56  55 2.57
                            54 2.58  57 2.65  24 2.66  70 2.70
  39  0.036  0.383  0.324-  29 2.56   3 2.58  22 2.60  75 2.61  42 2.65  31 2.66  10 2.67  33 2.67
                             7 2.68   5 2.72  65 2.74  43 2.82
  40  0.028  0.381  0.039-  69 2.42  21 2.52  71 2.54  76 2.54  70 2.56  23 2.60  36 2.76  45 2.84
                            47 2.85
  41  0.872  0.215  0.129-  76 2.45  65 2.52  77 2.53  67 2.54  37 2.57  62 2.57  69 2.59  23 2.61
                            51 2.61  70 2.68  66 2.68  24 2.75
  42  0.955  0.544  0.224-  50 2.55  29 2.55  69 2.59  21 2.60  28 2.61  32 2.63  49 2.65  65 2.65
                            39 2.65  64 2.68  33 2.72  31 2.73
  43  0.298  0.116  0.320-  55 2.53  52 2.57  61 2.58  31 2.59  19 2.59   8 2.60  22 2.61  80 2.63
                            10 2.72   3 2.74  13 2.74  39 2.82
  44  0.541  0.629  0.321-  61 2.59  52 2.61  78 2.62  30 2.65  18 2.67  29 2.68  75 2.68  32 2.68
                            15 2.68  27 2.68  14 2.69  26 2.74
  45  0.296  0.116  0.041-  38 2.47  70 2.49  57 2.57  53 2.58  23 2.64  63 2.65  20 2.73  47 2.83
                            40 2.84
  46  0.549  0.625  0.045-  51 2.38  73 2.39  54 2.41  71 2.57  53 2.59  63 2.60  76 2.62  56 2.63
                            72 2.66
  47  0.294  0.382  0.040-  74 2.41  21 2.53  57 2.64  72 2.65  56 2.66  36 2.67  20 2.74  45 2.83
                            40 2.85
  48  0.626  0.948  0.133-  49 2.40  54 2.48  80 2.49  34 2.52  63 2.56  38 2.56  59 2.56  20 2.57
                            50 2.58  57 2.68  66 2.72  37 2.95
  49  0.707  0.794  0.220-  48 2.40  50 2.48  54 2.49  80 2.56  32 2.60   1 2.62  28 2.63  78 2.63
                            61 2.63  42 2.65  29 2.67  59 2.73
  50  0.865  0.704  0.130-  34 2.39  71 2.42  49 2.48  54 2.49  42 2.55  48 2.58  28 2.58  69 2.58
                            36 2.59  21 2.67  66 2.81  58 2.90
  51  0.627  0.460  0.128-  46 2.38  76 2.44  56 2.51  37 2.51  26 2.55  32 2.58  41 2.61  67 2.63
                            73 2.63  69 2.64  74 2.65  54 2.72
  52  0.297  0.875  0.318-  55 2.44  79 2.53  78 2.53  61 2.56  43 2.57  44 2.61  30 2.63   8 2.68
                             2 2.69  14 2.74  22 2.75   6 2.75
  53  0.307  0.869  0.042-  73 2.42  38 2.46  63 2.57  24 2.58  45 2.58  46 2.59  72 2.61  35 2.68
                            23 2.81
  54  0.627  0.715  0.129-  46 2.41  71 2.46  63 2.48  48 2.48  49 2.49  50 2.49  32 2.53  38 2.58
                            73 2.58  78 2.62  69 2.70  51 2.72
  55  0.226  0.027  0.227-  52 2.44  78 2.47  79 2.50  43 2.53  22 2.54  80 2.54  31 2.57  38 2.57
                            24 2.59  70 2.72  77 2.75  65 2.91
  56  0.544  0.381  0.036-  74 2.50  51 2.51  37 2.52  76 2.61  46 2.63  72 2.64  47 2.66  62 2.72
                            20 2.74
  57  0.379  0.204  0.133-  68 2.47  80 2.54  20 2.55  45 2.57  31 2.60  47 2.64  38 2.65  74 2.66
                            70 2.66  48 2.68  21 2.74  37 2.76
  58  0.137  0.705  0.133-  72 2.46  64 2.50  35 2.54  28 2.56  79 2.57  36 2.58  74 2.66  24 2.66
                            73 2.70  21 2.71  50 2.90
  59  0.705  0.051  0.221-  66 2.53  48 2.56  37 2.57  19 2.60  67 2.61  68 2.61  60 2.62   1 2.65
                            77 2.68  80 2.71  49 2.73  28 2.73
  60  0.792  0.129  0.317-  67 2.53  77 2.59  18 2.62  59 2.62   2 2.64  75 2.67   1 2.70   9 2.71
                            22 2.72  19 2.77  17 2.80   4 2.83
  61  0.539  0.873  0.317-  78 2.49  80 2.53  52 2.56  43 2.58  44 2.59  49 2.63  19 2.66   1 2.67
                            29 2.70   8 2.71  27 2.75  11 2.84
  62  0.797  0.123  0.036-  66 2.53  41 2.57  37 2.59  23 2.65  20 2.66  76 2.68  56 2.72  35 2.76
                            34 2.79
  63  0.546  0.870  0.037-  54 2.48  38 2.56  48 2.56  53 2.57  46 2.60  34 2.62  71 2.63  45 2.65
                            20 2.70
  64  0.208  0.542  0.224-  58 2.50   3 2.57  30 2.60  21 2.62  26 2.66  28 2.66  68 2.66  74 2.67
                            42 2.68  33 2.70  79 2.76  31 2.83
  65  0.951  0.298  0.222-  22 2.51  69 2.52  41 2.52  67 2.56  77 2.58  31 2.59  75 2.61  70 2.61
                            32 2.65  42 2.65  39 2.74  55 2.91
  66  0.872  0.964  0.130-  34 2.51  59 2.53  62 2.53  77 2.57  28 2.58  35 2.62  41 2.68  37 2.69
                            48 2.72  24 2.73  50 2.81
  67  0.715  0.290  0.224-  37 2.52  60 2.53  41 2.54  77 2.54  65 2.56  18 2.56  59 2.61  75 2.62
                            51 2.63  32 2.72  68 2.74  26 2.76
  68  0.458  0.292  0.221-  57 2.47  74 2.54  37 2.56  19 2.58  59 2.61  18 2.65  64 2.66  26 2.70
                             3 2.71  67 2.74  80 2.77  31 2.79
  69  0.875  0.457  0.129-  40 2.42  71 2.45  76 2.46  65 2.52  32 2.56  50 2.58  41 2.59  42 2.59
                            21 2.62  51 2.64  70 2.68  54 2.70
  70  0.128  0.206  0.129-  45 2.49  31 2.51  40 2.56  23 2.57  65 2.61  24 2.64  21 2.66  57 2.66
                            41 2.68  69 2.68  38 2.70  55 2.72
  71  0.792  0.622  0.041-  50 2.42  69 2.45  54 2.46  40 2.54  46 2.57  34 2.58  76 2.61  63 2.63
                            36 2.74
  72  0.298  0.629  0.044-  74 2.46  58 2.46  73 2.47  35 2.55  53 2.61  56 2.64  47 2.65  46 2.66
                            36 2.69
  73  0.386  0.713  0.130-  46 2.39  53 2.42  72 2.47  26 2.49  78 2.55  38 2.56  54 2.58  79 2.62
                            51 2.63  24 2.67  58 2.70  74 2.80
  74  0.382  0.451  0.127-  47 2.41  72 2.46  56 2.50  37 2.53  68 2.54  26 2.54  51 2.65  57 2.66
                            58 2.66  64 2.67  21 2.75  73 2.80
  75  0.793  0.379  0.320-  29 2.61  65 2.61  39 2.61  67 2.62  18 2.63  22 2.64   9 2.67  60 2.67
                            44 2.68  32 2.68  15 2.71   7 2.75
  76  0.791  0.377  0.041-  51 2.44  41 2.45  69 2.46  40 2.54  56 2.61  71 2.61  46 2.62  23 2.65
                            62 2.68
  77  0.956  0.053  0.222-  41 2.53  67 2.54  24 2.54  22 2.57  66 2.57  65 2.58  60 2.59   2 2.59
                            59 2.68  79 2.74  55 2.75  28 2.81
  78  0.459  0.797  0.225-  55 2.47  61 2.49  80 2.50  52 2.53  38 2.53  73 2.55  79 2.59  54 2.62
                            44 2.62  49 2.63  32 2.64  26 2.70
  79  0.215  0.798  0.225-  55 2.50  24 2.51  52 2.53  30 2.56   2 2.56  58 2.57  78 2.59  73 2.62
                            26 2.63  77 2.74  64 2.76  28 2.81
  80  0.463  0.029  0.223-  38 2.48  48 2.49  78 2.50  61 2.53  55 2.54  57 2.54  19 2.55  49 2.56
                            43 2.63  59 2.71  31 2.72  68 2.77
  81  0.709  0.045  0.469-   4 1.84  11 1.86  17 1.87
 
  LATTYP: Found a hexagonal cell.
 ALAT       =    10.6599998474
 C/A-ratio  =     2.0637898982
  
  Lattice vectors:
  
 A1 = (   5.3299999237,  -9.2318306722,   0.0000000000)
 A2 = ( -10.6599998474,   0.0000000000,   0.0000000000)
 A3 = (   0.0000000000,   0.0000000000, -22.0000000000)


Analysis of symmetry for initial positions (statically):
=====================================================================
 Subroutine PRICEL returns:
 Original cell was already a primitive cell.
 

 Routine SETGRP: Setting up the symmetry group for a 
 hexagonal supercell.


 Subroutine GETGRP returns: Found  1 space group operations
 (whereof  1 operations were pure point group operations)
 out of a pool of 24 trial point group operations.


The static configuration has the point symmetry C_1 .


Analysis of symmetry for dynamics (positions and initial velocities):
=====================================================================
 Subroutine PRICEL returns:
 Original cell was already a primitive cell.
 

 Routine SETGRP: Setting up the symmetry group for a 
 hexagonal supercell.


 Subroutine GETGRP returns: Found  1 space group operations
 (whereof  1 operations were pure point group operations)
 out of a pool of 24 trial point group operations.


The dynamic configuration has the point symmetry C_1 .


Analysis of constrained symmetry for selective dynamics:
=====================================================================
 Subroutine PRICEL returns:
 Original cell was already a primitive cell.
 

 Routine SETGRP: Setting up the symmetry group for a 
 hexagonal supercell.


 Subroutine GETGRP returns: Found  1 space group operations
 (whereof  1 operations were pure point group operations)
 out of a pool of 24 trial point group operations.


The constrained configuration has the point symmetry C_1 .


Analysis of structural, dynamic, and magnetic symmetry:
=====================================================================
 Subroutine PRICEL returns:
 Original cell was already a primitive cell.
 

 Routine SETGRP: Setting up the symmetry group for a 
 hexagonal supercell.


 Subroutine GETGRP returns: Found  1 space group operations
 (whereof  1 operations were pure point group operations)
 out of a pool of 24 trial point group operations.


The magnetic configuration has the point symmetry C_1 .


 Subroutine INISYM returns: Found  1 space group operations
 (whereof  1 operations are pure point group operations),
 and found     1 'primitive' translations

 
 
 KPOINTS: mesh auto                               

Automatic generation of k-mesh.
Space group operators:
 irot       det(A)        alpha          n_x          n_y          n_z        tau_x        tau_y        tau_z
    1     1.000000     0.000000     1.000000     0.000000     0.000000     0.000000     0.000000     0.000000
 
 Subroutine IBZKPT returns following result:
 ===========================================
 
 Found      4 irreducible k-points:
 
 Following reciprocal coordinates:
            Coordinates               Weight
  0.000000  0.000000  0.000000      1.000000
  0.500000 -0.000000  0.000000      1.000000
  0.000000  0.500000  0.000000      1.000000
  0.500000  0.500000  0.000000      1.000000
 
 Following cartesian coordinates:
            Coordinates               Weight
  0.000000  0.000000  0.000000      1.000000
  0.046904 -0.027080  0.000000      1.000000
  0.000000  0.054160  0.000000      1.000000
  0.046904  0.027080  0.000000      1.000000
 
 TETIRR: Found     12 inequivalent tetrahedra from       24
 
 Subroutine IBZKPT_HF returns following result:
 ==============================================
 
 Found      4 k-points in 1st BZ
 the following      4 k-points will be used (e.g. in the exchange kernel)
 Following reciprocal coordinates:   # in IRBZ
  0.000000  0.000000  0.000000    0.25000000   1 t-inv F
  0.500000 -0.000000  0.000000    0.25000000   2 t-inv F
  0.000000  0.500000  0.000000    0.25000000   3 t-inv F
  0.500000  0.500000  0.000000    0.25000000   4 t-inv F


--------------------------------------------------------------------------------------------------------




 Dimension of arrays:
   k-points           NKPTS =      4   k-points in BZ     NKDIM =      4   number of bands    NBANDS=    624
   number of dos      NEDOS =    301   number of ions     NIONS =     81
   non local maximal  LDIM  =      6   non local SUM 2l+1 LMDIM =     18
   total plane-waves  NPLWV = ******
   max r-space proj   IRMAX =   7657   max aug-charges    IRDMAX=  33358
   dimension x,y,z NGX =    84 NGY =   84 NGZ =  168
   dimension x,y,z NGXF=   168 NGYF=  168 NGZF=  336
   support grid    NGXF=   168 NGYF=  168 NGZF=  336
   ions per type =              32  13  10  13  12   1
   NGX,Y,Z   is equivalent  to a cutoff of  13.10, 13.10, 12.70 a.u.
   NGXF,Y,Z  is equivalent  to a cutoff of  26.20, 26.20, 25.39 a.u.

 SYSTEM =  Pt111                                   
 POSCAR =  10.66                                   

 Startparameter for this run:
   NWRITE =      2    write-flag & timer
   PREC   = accura    normal or accurate (medium, high low for compatibility)
   ISTART =      0    job   : 0-new  1-cont  2-samecut
   ICHARG =      2    charge: 1-file 2-atom 10-const
   ISPIN  =      2    spin polarized calculation?
   LNONCOLLINEAR =      F non collinear calculations
   LSORBIT =      F    spin-orbit coupling
   INIWAV =      1    electr: 0-lowe 1-rand  2-diag
   LASPH  =      F    aspherical Exc in radial PAW
   METAGGA=      F    non-selfconsistent MetaGGA calc.

 Electronic Relaxation 1
   ENCUT  =  550.0 eV  40.42 Ry    6.36 a.u.  20.38 20.38 42.07*2*pi/ulx,y,z
   ENINI  =  550.0     initial cutoff
   ENAUG  =  587.0 eV  augmentation charge cutoff
   NELM   =    200;   NELMIN=  2; NELMDL= -5     # of ELM steps 
   EDIFF  = 0.1E-04   stopping-criterion for ELM
   LREAL  =      T    real-space projection
   NLSPLINE    = F    spline interpolate recip. space projectors
   LCOMPAT=      F    compatible to vasp.4.4
   GGA_COMPAT  = T    GGA compatible to vasp.4.4-vasp.4.6
   LMAXPAW     = -100 max onsite density
   LMAXMIX     =    2 max onsite mixed and CHGCAR
   VOSKOWN=      0    Vosko Wilk Nusair interpolation
   ROPT   =   -0.00025  -0.00025  -0.00025  -0.00025
   ROPT   =   -0.00025  -0.00025
 Ionic relaxation
   EDIFFG = -.5E-01   stopping-criterion for IOM
   NSW    =   1009    number of steps for IOM
   NBLOCK =      1;   KBLOCK =   1009    inner block; outer block 
   IBRION =      5    ionic relax: 0-MD 1-quasi-New 2-CG
   NFREE  =      2    steps in history (QN), initial steepest desc. (CG)
   ISIF   =      2    stress and relaxation
   IWAVPR =     11    prediction:  0-non 1-charg 2-wave 3-comb
   ISYM   =      2    0-nonsym 1-usesym 2-fastsym
   LCORR  =      T    Harris-Foulkes like correction to forces

   POTIM  = 0.5000    time-step for ionic-motion
   TEIN   =    0.0    initial temperature
   TEBEG  =    0.0;   TEEND  =   0.0 temperature during run
   SMASS  =  -3.00    Nose mass-parameter (am)
   estimated Nose-frequenzy (Omega)   =  0.10E-29 period in steps =****** mass=  -0.260E-26a.u.
   SCALEE = 1.0000    scale energy and forces
   NPACO  =    256;   APACO  = 16.0  distance and # of slots for P.C.
   PSTRESS=    0.0 pullay stress

  Mass of Ions in am
   POMASS = 195.08 55.85 58.93 63.55 58.69  1.00
  Ionic Valenz
   ZVAL   =  10.00  8.00  9.00 11.00 10.00  1.00
  Atomic Wigner-Seitz radii
   RWIGS  =  -1.00 -1.00 -1.00 -1.00 -1.00 -1.00
  virtual crystal weights 
   VCA    =   1.00  1.00  1.00  1.00  1.00  1.00
   NELECT =     778.0000    total number of electrons
   NUPDOWN=      -1.0000    fix difference up-down

 DOS related values:
   EMIN   =  10.00;   EMAX   =-10.00  energy-range for DOS
   EFERMI =   0.00
   ISMEAR =    -5;   SIGMA  =   0.10  broadening in eV -4-tet -1-fermi 0-gaus

 Electronic relaxation 2 (details)
   IALGO  =     68    algorithm
   LDIAG  =      T    sub-space diagonalisation (order eigenvalues)
   LSUBROT=      F    optimize rotation matrix (better conditioning)
   TURBO    =      0    0=normal 1=particle mesh
   IRESTART =      0    0=no restart 2=restart with 2 vectors
   NREBOOT  =      0    no. of reboots
   NMIN     =      0    reboot dimension
   EREF     =   0.00    reference energy to select bands
   IMIX   =      4    mixing-type and parameters
     AMIX     =   0.40;   BMIX     =  1.00
     AMIX_MAG =   1.60;   BMIX_MAG =  1.00
     AMIN     =   0.10
     WC   =   100.;   INIMIX=   1;  MIXPRE=   1;  MAXMIX= -45

 Intra band minimization:
   WEIMIN = 0.0010     energy-eigenvalue tresh-hold
   EBREAK =  0.40E-08  absolut break condition
   DEPER  =   0.30     relativ break condition  

   TIME   =   0.40     timestep for ELM

  volume/ion in A,a.u.               =      26.73       180.38
  Fermi-wavevector in a.u.,A,eV,Ry     =   1.163891  2.199434 18.431011  1.354641
  Thomas-Fermi vector in A             =   2.300435
 
 Write flags
   LWAVE        =      F    write WAVECAR
   LDOWNSAMPLE  =      F    k-point downsampling of WAVECAR
   LCHARG       =      F    write CHGCAR
   LVTOT        =      F    write LOCPOT, total local potential
   LVHAR        =      F    write LOCPOT, Hartree potential only
   LELF         =      F    write electronic localiz. function (ELF)
   LORBIT       =      0    0 simple, 1 ext, 2 COOP (PROOUT), +10 PAW based schemes


 Dipole corrections
   LMONO  =      F    monopole corrections only (constant potential shift)
   LDIPOL =      F    correct potential (dipole corrections)
   IDIPOL =      0    1-x, 2-y, 3-z, 4-all directions 
   EPSILON=  1.0000000 bulk dielectric constant

 Exchange correlation treatment:
   GGA     =    --    GGA type
   LEXCH   =     8    internal setting for exchange type
   VOSKOWN=      0    Vosko Wilk Nusair interpolation
   LHFCALC =     F    Hartree Fock is set to
   LHFONE  =     F    Hartree Fock one center treatment
   AEXX    =    0.0000 exact exchange contribution

 Linear response parameters
   LEPSILON=     F    determine dielectric tensor
   LRPA    =     F    only Hartree local field effects (RPA)
   LNABLA  =     F    use nabla operator in PAW spheres
   LVEL    =     F    velocity operator in full k-point grid
   LINTERFAST=   F  fast interpolation
   KINTER  =     0    interpolate to denser k-point grid
   CSHIFT  =0.1000    complex shift for real part using Kramers Kronig
   OMEGAMAX=  -1.0    maximum frequency
   DEG_THRESHOLD= 0.2000000E-02 threshold for treating states as degnerate
   RTIME   =   -0.100 relaxation time in fs
  (WPLASMAI=    0.000 imaginary part of plasma frequency in eV, 0.658/RTIME)
   DFIELD  = 0.0000000 0.0000000 0.0000000 field for delta impulse in time
 
 Orbital magnetization related:
   ORBITALMAG=     F  switch on orbital magnetization
   LCHIMAG   =     F  perturbation theory with respect to B field
   DQ        =  0.001000  dq finite difference perturbation B field
   LLRAUG    =     F  two centre corrections for induced B field



--------------------------------------------------------------------------------------------------------


 finite differences
   using selective dynamics as specified on POSCAR
   WARNING: If single coordinates had been selected the selection of coordinates
            is made according to the corresponding   d i r e c t   coordinates!
            Don't support selection of single cartesian coordinates -- sorry ...
  !
 charge density and potential will be updated during run
 spin polarized calculation
 RMM-DIIS sequential band-by-band and
  variant of blocked Davidson during initial phase
 perform sub-space diagonalisation
    before iterative eigenvector-optimisation
 modified Broyden-mixing scheme, WC =      100.0
 initial mixing is a Kerker type mixing with AMIX =  0.4000 and BMIX =      1.0000
 Hartree-type preconditioning will be used
 using additional bands          235
 real space projection scheme for non local part
 use partial core corrections
 calculate Harris-corrections to forces 
   (improved forces if not selfconsistent)
 use gradient corrections 
 use of overlap-Matrix (Vanderbilt PP)
 Fermi weights with tetrahedron method with Bloechl corrections


--------------------------------------------------------------------------------------------------------


  energy-cutoff  :      550.00
  volume of cell :     2165.05
      direct lattice vectors                 reciprocal lattice vectors
    10.659999847  0.000000000  0.000000000     0.093808632 -0.054160439  0.000000000
     5.329999924  9.231830672  0.000000000     0.000000000  0.108320878  0.000000000
     0.000000000  0.000000000 22.000000000     0.000000000  0.000000000  0.045454545

  length of vectors
    10.659999847 10.659999847 22.000000000     0.108320878  0.108320878  0.045454545


 
 k-points in units of 2pi/SCALE and weight: mesh auto                               
   0.00000000  0.00000000  0.00000000       0.250
   0.04690432 -0.02708022  0.00000000       0.250
   0.00000000  0.05416044  0.00000000       0.250
   0.04690432  0.02708022  0.00000000       0.250
 
 k-points in reciprocal lattice and weights: mesh auto                               
   0.00000000  0.00000000  0.00000000       0.250
   0.50000000 -0.00000000  0.00000000       0.250
   0.00000000  0.50000000  0.00000000       0.250
   0.50000000  0.50000000  0.00000000       0.250
 
 position of ions in fractional coordinates (direct lattice) 
   0.78633901  0.87946313  0.31723865
   0.04151488  0.88256576  0.31532943
   0.27922914  0.38104730  0.31857281
   0.87771959  0.96098832  0.42465967
   0.12138494  0.46252083  0.42643897
   0.12512073  0.96114783  0.41992045
   0.87419393  0.45972218  0.42499446
   0.37394981  0.96012212  0.41890536
   0.87518125  0.21194303  0.41871174
   0.12539524  0.21115016  0.42090600
   0.62211107  0.95927899  0.42518643
   0.87488597  0.70874145  0.42423220
   0.37207983  0.21033471  0.42250901
   0.37566143  0.71217359  0.42185063
   0.62570758  0.46166651  0.42082919
   0.12462121  0.71005774  0.42426538
   0.62307842  0.21435444  0.42251049
   0.54763115  0.37586450  0.31673053
   0.53523727  0.12462606  0.31491813
   0.54860226  0.12207837  0.04171946
   0.12037701  0.45967589  0.12832010
   0.04379931  0.13613224  0.31352194
   0.04184264  0.13051489  0.03430237
   0.13087669  0.95764103  0.13245935
   0.37358350  0.46191681  0.42462962
   0.45486272  0.54618917  0.21857235
   0.62272034  0.71103105  0.42203583
   0.95592713  0.78882783  0.22100283
   0.79507959  0.62257370  0.31846431
   0.29134255  0.63111605  0.31743924
   0.20236165  0.27946862  0.22533651
   0.70608281  0.54969508  0.22098390
   0.04063811  0.63104377  0.32426595
   0.79601056  0.86182010  0.04358326
   0.05654378  0.86511100  0.03922008
   0.04354811  0.63172365  0.03890931
   0.62768151  0.22351632  0.12936912
   0.38251648  0.95408414  0.13073287
   0.03585370  0.38336978  0.32369294
   0.02789537  0.38111357  0.03922688
   0.87238548  0.21524336  0.12909491
   0.95513244  0.54427780  0.22381193
   0.29757602  0.11564048  0.32041383
   0.54066521  0.62928591  0.32121247
   0.29593874  0.11566849  0.04109769
   0.54915757  0.62535345  0.04512996
   0.29444361  0.38188257  0.03954700
   0.62577798  0.94799811  0.13283874
   0.70710282  0.79354280  0.22041928
   0.86523064  0.70443471  0.12965162
   0.62674088  0.45978399  0.12791088
   0.29748010  0.87510578  0.31794255
   0.30656831  0.86859519  0.04153612
   0.62656079  0.71505450  0.12903147
   0.22562059  0.02727435  0.22742600
   0.54425403  0.38139876  0.03593963
   0.37883082  0.20414358  0.13341050
   0.13702030  0.70469682  0.13275664
   0.70515454  0.05051359  0.22063343
   0.79221797  0.12932270  0.31713392
   0.53896337  0.87319538  0.31715544
   0.79690904  0.12300803  0.03589815
   0.54639677  0.86991640  0.03703501
   0.20795177  0.54226710  0.22366260
   0.95105448  0.29758285  0.22166206
   0.87203635  0.96412677  0.12966428
   0.71535605  0.28976764  0.22379471
   0.45753477  0.29204455  0.22100063
   0.87549525  0.45703326  0.12894021
   0.12808024  0.20618715  0.12934578
   0.79201094  0.62176511  0.04149761
   0.29752238  0.62870438  0.04356032
   0.38614974  0.71252577  0.12966825
   0.38234618  0.45146388  0.12688447
   0.79300347  0.37925839  0.31982579
   0.79142063  0.37689392  0.04093851
   0.95560048  0.05297773  0.22160782
   0.45883703  0.79666064  0.22499037
   0.21503018  0.79787743  0.22464873
   0.46252530  0.02948560  0.22286469
   0.70864834  0.04509734  0.46903712
 
 position of ions in cartesian coordinates  (Angst):
  13.06991216  8.11905474  6.97925037
   5.14662405  8.14769766  6.93724744
   5.00756464  3.51776415  7.00860176
  14.47855835  8.87168141  9.34251272
   3.75919936  4.26991395  9.38165729
   6.45670484  8.87315402  9.23824995
  11.76922634  4.24407728  9.34987802
   9.10375578  8.86368487  9.21591802
  10.45908837  1.95662220  9.21165838
   2.46214356  1.94930250  9.25993209
  11.74466089  8.85590123  9.35410152
  13.10387616  6.54298103  9.33310839
   5.08745496  1.94177444  9.29519824
   7.80043593  6.57466599  9.28071383
   9.13072516  4.26202705  9.25824210
   5.11306977  6.55513287  9.33383845
   7.78452498  1.97888389  9.29523084
   7.84110569  3.46991739  6.96807157
   6.36988613  1.15052669  6.92819883
   6.49877769  1.12700682  0.91782815
   3.73329140  4.24365001  2.82304227
   1.19248546  1.25674978  6.89748263
   1.14168689  1.20489139  0.75465211
   6.49937211  8.84077982  2.91410569
   6.44441660  4.26433777  9.34185167
   7.76002471  5.04232592  4.80859162
  10.42799415  6.56411828  9.28478823
  14.39463531  7.28232496  4.86206219
  11.79386614  5.74749500  7.00621487
   6.46956007  5.82635649  6.98366319
   3.64674293  2.58000699  4.95740327
  10.45671740  5.07469189  4.86164572
   3.79666546  5.82568920  7.13385087
  13.07897347  7.95617723  0.95883175
   5.21379828  7.98655826  0.86284167
   3.83130979  5.83196573  0.85600479
   7.88242681  2.06346482  2.84612068
   9.16289403  8.80794326  2.87612304
   2.42556131  3.53920490  7.12124472
   2.32869997  3.51837592  0.86299137
  10.44687620  1.98709023  2.84008810
  13.08271226  5.02468048  4.92386236
   3.78852406  1.06757331  7.04910428
   9.11758493  5.80946094  7.06667439
   3.77121995  1.06783187  0.90414915
   9.18715339  5.77315714  0.99285907
   5.17420286  3.52547522  0.87003394
  11.72362308  8.75175804  2.92245229
  11.76729898  7.32585275  4.84922427
  12.97799537  6.50322193  2.85233561
   9.13170631  4.24464793  2.81403934
   7.83545151  8.07882834  6.99473612
   7.89763048  8.01872375  0.91379463
  10.49037833  6.60126203  2.83869239
   2.55048772  0.25179220  5.00337200
   7.83460323  3.52100880  0.79067188
   5.12642169  1.88461893  2.93503107
   5.21667036  6.50564171  2.92064609
   7.78618471  0.46633292  4.85393537
   9.13433347  1.19388531  6.97694624
  10.39948073  8.06119185  6.97741961
   9.15068307  1.13558928  0.78975929
  10.46124387  8.03092093  0.81477030
   5.10704946  5.00611801  4.92057710
  11.72435718  2.74723449  4.87656529
  14.43470298  8.90065509  2.85261421
   9.17015689  2.67508575  4.92348355
   6.43391802  2.69610580  4.86201382
  11.76876646  4.21925362  2.83668457
   2.46431279  1.90348482  2.84560726
  11.75684446  5.74003023  0.91294740
   6.52258279  5.80409234  0.95832694
   7.91411848  6.57791728  2.85270146
   6.48211261  4.16783809  2.79145838
  10.47486405  3.50124927  7.03616742
  10.44538833  3.47942085  0.90064720
  10.46907229  0.48908142  4.87537214
   9.13740379  7.35463609  4.94978806
   6.54490832  7.36586929  4.94227202
   5.08767792  0.27220606  4.90302319
   7.79456004  0.41633104 10.31881665
 


--------------------------------------------------------------------------------------------------------


 k-point  1 :   0.0000 0.0000 0.0000  plane waves:   63475
 k-point  2 :   0.5000-0.0000 0.0000  plane waves:   63428
 k-point  3 :   0.0000 0.5000 0.0000  plane waves:   63428
 k-point  4 :   0.5000 0.5000 0.0000  plane waves:   63428

 maximum and minimum number of plane-waves per node :     63475    63428

 maximum number of plane-waves:     63475
 maximum index in each direction: 
   IXMAX=   20   IYMAX=   20   IZMAX=   42
   IXMIN=  -20   IYMIN=  -20   IZMIN=  -42


 serial   3D FFT for wavefunctions
 parallel 3D FFT for charge:
    minimum data exchange during FFTs selected (reduces bandwidth)


 total amount of memory used by VASP MPI-rank0   369851. kBytes
=======================================================================

   base      :      30000. kBytes
   nonlr-proj:      96548. kBytes
   fftplans  :      12162. kBytes
   grid      :     120476. kBytes
   one-center:       2519. kBytes
   wavefun   :     108146. kBytes
 
     INWAV:  cpu time    0.0001: real time    0.0005
 Broyden mixing: mesh for mixing (old mesh)
   NGX = 41   NGY = 41   NGZ = 85
  (NGX  =168   NGY  =168   NGZ  =336)
  gives a total of 142885 points

 initial charge density was supplied:
 charge density of overlapping atoms calculated
 number of electron     778.0000000 magnetization     231.0000000
 keeping initial charge density in first step


--------------------------------------------------------------------------------------------------------


 Maximum index for non-local projection operator         7405
 Maximum index for augmentation-charges         1446 (set IRDMAX)


--------------------------------------------------------------------------------------------------------


 First call to EWALD:  gamma=   0.137
 Maximum number of real-space cells 4x 4x 2
 Maximum number of reciprocal cells 2x 2x 4

    FEWALD:  cpu time    0.0044: real time    0.0044


--------------------------------------- Iteration      1(   1)  ---------------------------------------


    POTLOK:  cpu time    0.4839: real time    0.4868
    SETDIJ:  cpu time    0.0367: real time    0.0368
     EDDAV:  cpu time   59.7934: real time   59.9841
 BZINTS: Fermi energy: 17.493950;778.000000 electrons
         Band energy:7818.556953;  BLOECHL correction: -0.018271
       DOS:  cpu time    0.0264: real time    0.0271
    --------------------------------------------
      LOOP:  cpu time   60.3405: real time   60.5348

 eigenvalue-minimisations  :  9984
 total energy-change (2. order) : 0.7574135E+04  (-0.3345306E+05)
 number of electron     778.0000000 magnetization     231.0000000
 augmentation part      778.0000000 magnetization     231.0000000

 Free energy of the ion-electron system (eV)
  ---------------------------------------------------
  alpha Z        PSCENC =      2197.15539535
  Ewald energy   TEWEN  =    222766.48109567
  -Hartree energ DENC   =   -294909.47600632
  -exchange      EXHF   =         0.00000000
  -V(xc)+E(xc)   XCENC  =      1384.67133883
  PAW double counting   =     64136.80006862   -66038.70876209
  entropy T*S    EENTRO =         0.00000000
  eigenvalues    EBANDS =      7818.55695278
  atomic energy  EATOM  =     70218.65458108
  Solvation  Ediel_sol  =         0.00000000
  ---------------------------------------------------
  free energy    TOTEN  =      7574.13466391 eV

  energy without entropy =     7574.13466391  energy(sigma->0) =     7574.13466391


--------------------------------------------------------------------------------------------------------




--------------------------------------- Iteration      1(   2)  ---------------------------------------


     EDDAV:  cpu time   60.3651: real time   60.6053
 BZINTS: Fermi energy:  5.753095;778.000000 electrons
         Band energy: 884.208650;  BLOECHL correction: -0.082028
       DOS:  cpu time    0.0235: real time    0.0392
    --------------------------------------------
      LOOP:  cpu time   60.3885: real time   60.6445

 eigenvalue-minimisations  : 10128
 total energy-change (2. order) :-0.6934348E+04  (-0.6151659E+04)
 number of electron     778.0000000 magnetization     231.0000000
 augmentation part      778.0000000 magnetization     231.0000000

 Free energy of the ion-electron system (eV)
  ---------------------------------------------------
  alpha Z        PSCENC =      2197.15539535
  Ewald energy   TEWEN  =    222766.48109567
  -Hartree energ DENC   =   -294909.47600632
  -exchange      EXHF   =         0.00000000
  -V(xc)+E(xc)   XCENC  =      1384.67133883
  PAW double counting   =     64136.80006862   -66038.70876209
  entropy T*S    EENTRO =         0.00000000
  eigenvalues    EBANDS =       884.20865017
  atomic energy  EATOM  =     70218.65458108
  Solvation  Ediel_sol  =         0.00000000
  ---------------------------------------------------
  free energy    TOTEN  =       639.78636131 eV

  energy without entropy =      639.78636131  energy(sigma->0) =      639.78636131


--------------------------------------------------------------------------------------------------------




--------------------------------------- Iteration      1(   3)  ---------------------------------------


     EDDAV:  cpu time   59.5506: real time   59.7234
 BZINTS: Fermi energy:  3.435380;778.000000 electrons
         Band energy:-184.193570;  BLOECHL correction: -0.031911
       DOS:  cpu time    0.0250: real time    0.0256
    --------------------------------------------
      LOOP:  cpu time   59.5756: real time   59.7490

 eigenvalue-minimisations  : 10032
 total energy-change (2. order) :-0.1068402E+04  (-0.8935416E+03)
 number of electron     778.0000000 magnetization     231.0000000
 augmentation part      778.0000000 magnetization     231.0000000

 Free energy of the ion-electron system (eV)
  ---------------------------------------------------
  alpha Z        PSCENC =      2197.15539535
  Ewald energy   TEWEN  =    222766.48109567
  -Hartree energ DENC   =   -294909.47600632
  -exchange      EXHF   =         0.00000000
  -V(xc)+E(xc)   XCENC  =      1384.67133883
  PAW double counting   =     64136.80006862   -66038.70876209
  entropy T*S    EENTRO =         0.00000000
  eigenvalues    EBANDS =      -184.19357025
  atomic energy  EATOM  =     70218.65458108
  Solvation  Ediel_sol  =         0.00000000
  ---------------------------------------------------
  free energy    TOTEN  =      -428.61585911 eV

  energy without entropy =     -428.61585911  energy(sigma->0) =     -428.61585911


--------------------------------------------------------------------------------------------------------




--------------------------------------- Iteration      1(   4)  ---------------------------------------


     EDDAV:  cpu time   70.6593: real time   70.9288
 BZINTS: Fermi energy:  3.304826;778.000000 electrons
         Band energy:-250.816925;  BLOECHL correction: -0.015038
       DOS:  cpu time    0.0277: real time    0.0360
    --------------------------------------------
      LOOP:  cpu time   70.6870: real time   70.9648

 eigenvalue-minimisations  : 12288
 total energy-change (2. order) :-0.6662335E+02  (-0.6390278E+02)
 number of electron     778.0000000 magnetization     231.0000000
 augmentation part      778.0000000 magnetization     231.0000000

 Free energy of the ion-electron system (eV)
  ---------------------------------------------------
  alpha Z        PSCENC =      2197.15539535
  Ewald energy   TEWEN  =    222766.48109567
  -Hartree energ DENC   =   -294909.47600632
  -exchange      EXHF   =         0.00000000
  -V(xc)+E(xc)   XCENC  =      1384.67133883
  PAW double counting   =     64136.80006862   -66038.70876209
  entropy T*S    EENTRO =         0.00000000
  eigenvalues    EBANDS =      -250.81692457
  atomic energy  EATOM  =     70218.65458108
  Solvation  Ediel_sol  =         0.00000000
  ---------------------------------------------------
  free energy    TOTEN  =      -495.23921343 eV

  energy without entropy =     -495.23921343  energy(sigma->0) =     -495.23921343


--------------------------------------------------------------------------------------------------------




--------------------------------------- Iteration      1(   5)  ---------------------------------------


     EDDAV:  cpu time   71.0008: real time   72.0872
 BZINTS: Fermi energy:  3.300857;778.000000 electrons
         Band energy:-253.006971;  BLOECHL correction: -0.014180
       DOS:  cpu time    0.0272: real time    0.0292
    CHARGE:  cpu time    2.6551: real time    2.7090
    MIXING:  cpu time    0.0103: real time    0.0105
    --------------------------------------------
      LOOP:  cpu time   73.6934: real time   74.8360

 eigenvalue-minimisations  : 12144
 total energy-change (2. order) :-0.2190046E+01  (-0.2184708E+01)
 number of electron     778.0000008 magnetization     216.5944225
 augmentation part      334.9941380 magnetization     183.9130449

 Broyden mixing:
  rms(total) = 0.11739E+02    rms(broyden)= 0.11739E+02
  rms(prec ) = 0.12056E+02
  weight for this iteration     100.00

 Free energy of the ion-electron system (eV)
  ---------------------------------------------------
  alpha Z        PSCENC =      2197.15539535
  Ewald energy   TEWEN  =    222766.48109567
  -Hartree energ DENC   =   -294909.47600632
  -exchange      EXHF   =         0.00000000
  -V(xc)+E(xc)   XCENC  =      1384.67133883
  PAW double counting   =     64136.80006862   -66038.70876209
  entropy T*S    EENTRO =         0.00000000
  eigenvalues    EBANDS =      -253.00697051
  atomic energy  EATOM  =     70218.65458108
  Solvation  Ediel_sol  =         0.00000000
  ---------------------------------------------------
  free energy    TOTEN  =      -497.42925937 eV

  energy without entropy =     -497.42925937  energy(sigma->0) =     -497.42925937


--------------------------------------------------------------------------------------------------------




--------------------------------------- Iteration      1(   6)  ---------------------------------------


    POTLOK:  cpu time    0.4478: real time    0.4499
    SETDIJ:  cpu time    0.0359: real time    0.0360
    EDDIAG:  cpu time    9.9067: real time    9.9339
  RMM-DIIS:  cpu time   37.3872: real time   37.4982
    ORTHCH:  cpu time    1.5867: real time    1.5931
 BZINTS: Fermi energy:  1.552151;778.000000 electrons
         Band energy:***********;  BLOECHL correction: -0.037890
       DOS:  cpu time    0.0287: real time    0.0288
    CHARGE:  cpu time    2.6952: real time    2.7026
    MIXING:  cpu time    0.0158: real time    0.0195
    --------------------------------------------
      LOOP:  cpu time   52.1041: real time   52.2620

 eigenvalue-minimisations  : 10032
 total energy-change (2. order) :-0.1617240E+03  (-0.8396878E+02)
 number of electron     778.0000008 magnetization     212.4830170
 augmentation part      406.2806549 magnetization     179.7757399

 Broyden mixing:
  rms(total) = 0.19648E+02    rms(broyden)= 0.19648E+02
  rms(prec ) = 0.25425E+02
  weight for this iteration     100.00

 eigenvalues of (default mixing * dielectric matrix)
  average eigenvalue GAMMA=   0.2254
  0.2254

 Free energy of the ion-electron system (eV)
  ---------------------------------------------------
  alpha Z        PSCENC =      2197.15539535
  Ewald energy   TEWEN  =    222766.48109567
  -Hartree energ DENC   =   -293297.04220179
  -exchange      EXHF   =         0.00000000
  -V(xc)+E(xc)   XCENC  =      1338.33529363
  PAW double counting   =     68953.49884817   -70645.32821497
  entropy T*S    EENTRO =         0.00000000
  eigenvalues    EBANDS =     -2190.90801139
  atomic energy  EATOM  =     70218.65458108
  Solvation  Ediel_sol  =         0.00000000
  ---------------------------------------------------
  free energy    TOTEN  =      -659.15321426 eV

  energy without entropy =     -659.15321426  energy(sigma->0) =     -659.15321426


--------------------------------------------------------------------------------------------------------




--------------------------------------- Iteration      1(   7)  ---------------------------------------


    POTLOK:  cpu time    0.4397: real time    0.4516
    SETDIJ:  cpu time    0.0363: real time    0.0364
    EDDIAG:  cpu time    9.8719: real time    9.8989
  RMM-DIIS:  cpu time   37.2860: real time   37.3862
    ORTHCH:  cpu time    1.5909: real time    1.6139
 BZINTS: Fermi energy:  3.014716;778.000000 electrons
         Band energy:***********;  BLOECHL correction: -0.009897
       DOS:  cpu time    0.0289: real time    0.0289
    CHARGE:  cpu time    2.7002: real time    2.7076
    MIXING:  cpu time    0.0113: real time    0.0114
    --------------------------------------------
      LOOP:  cpu time   51.9651: real time   52.1348

 eigenvalue-minimisations  :  9998
 total energy-change (2. order) : 0.1180963E+03  (-0.1467989E+02)
 number of electron     778.0000011 magnetization     207.8877926
 augmentation part      366.0325958 magnetization     165.1127166

 Broyden mixing:
  rms(total) = 0.15689E+02    rms(broyden)= 0.15689E+02
  rms(prec ) = 0.21165E+02
  weight for this iteration     100.00

 eigenvalues of (default mixing * dielectric matrix)
  average eigenvalue GAMMA=   0.2662
  0.3651  0.1673

 Free energy of the ion-electron system (eV)
  ---------------------------------------------------
  alpha Z        PSCENC =      2197.15539535
  Ewald energy   TEWEN  =    222766.48109567
  -Hartree energ DENC   =   -293984.25466444
  -exchange      EXHF   =         0.00000000
  -V(xc)+E(xc)   XCENC  =      1358.80361172
  PAW double counting   =     70006.66714492   -71859.74758684
  entropy T*S    EENTRO =         0.00000000
  eigenvalues    EBANDS =     -1244.81649473
  atomic energy  EATOM  =     70218.65458108
  Solvation  Ediel_sol  =         0.00000000
  ---------------------------------------------------
  free energy    TOTEN  =      -541.05691727 eV

  energy without entropy =     -541.05691727  energy(sigma->0) =     -541.05691727


--------------------------------------------------------------------------------------------------------




--------------------------------------- Iteration      1(   8)  ---------------------------------------


    POTLOK:  cpu time    0.4580: real time    0.4604
    SETDIJ:  cpu time    0.0361: real time    0.0362
    EDDIAG:  cpu time    9.9502: real time    9.9771
  RMM-DIIS:  cpu time   37.1769: real time   37.2810
    ORTHCH:  cpu time    1.5953: real time    1.6148
 BZINTS: Fermi energy:  2.609682;778.000000 electrons
         Band energy:-853.699605;  BLOECHL correction: -0.009900
       DOS:  cpu time    0.0276: real time    0.0277
    CHARGE:  cpu time    2.6800: real time    2.6875
    MIXING:  cpu time    0.0121: real time    0.0123
    --------------------------------------------
      LOOP:  cpu time   51.9363: real time   52.0971

 eigenvalue-minimisations  : 10006
[...]
      9.117585  5.809461  7.066674            0           0           0  
      3.771220  1.067832  0.904149            0           0           0  
      9.187153  5.773157  0.992859            0           0           0  
      5.174203  3.525475  0.870034            0           0           0  
     11.723623  8.751758  2.922452            0           0           0  
     11.767299  7.325853  4.849224            0           0           0  
     12.977995  6.503222  2.852336            0           0           0  
      9.131706  4.244648  2.814039            0           0           0  
      7.835452  8.078828  6.994736            0           0           0  
      7.897630  8.018724  0.913795            0           0           0  
     10.490378  6.601262  2.838692            0           0           0  
      2.550488  0.251792  5.003372            0           0           0  
      7.834603  3.521009  0.790672            0           0           0  
      5.126422  1.884619  2.935031            0           0           0  
      5.216670  6.505642  2.920646            0           0           0  
      7.786185  0.466333  4.853935            0           0           0  
      9.134333  1.193885  6.976946            0           0           0  
     10.399481  8.061192  6.977420            0           0           0  
      9.150683  1.135589  0.789759            0           0           0  
     10.461244  8.030921  0.814770            0           0           0  
      5.107049  5.006118  4.920577            0           0           0  
     11.724357  2.747234  4.876565            0           0           0  
     14.434703  8.900655  2.852614            0           0           0  
      9.170157  2.675086  4.923484            0           0           0  
      6.433918  2.696106  4.862014            0           0           0  
     11.768766  4.219254  2.836685            0           0           0  
      2.464313  1.903485  2.845607            0           0           0  
     11.756844  5.740030  0.912947            0           0           0  
      6.522583  5.804092  0.958327            0           0           0  
      7.914118  6.577917  2.852701            0           0           0  
      6.482113  4.167838  2.791458            0           0           0  
     10.474864  3.501249  7.036167            0           0           0  
     10.445388  3.479421  0.900647            0           0           0  
     10.469072  0.489081  4.875372            0           0           0  
      9.137404  7.354636  4.949788            0           0           0  
      6.544908  7.365869  4.942272            0           0           0  
      5.087678  0.272206  4.903023            0           0           0  
      7.794560  0.416331 10.318817    -0.070316    0.032341    0.997000  
 
   2 f  =   17.912489 THz   112.547489 2PiTHz  597.496306 cm-1    74.080127 meV
             X         Y         Z           dx          dy          dz
     13.069912  8.119055  6.979250            0           0           0  
      5.146624  8.147698  6.937247            0           0           0  
      5.007565  3.517764  7.008602            0           0           0  
     14.478558  8.871681  9.342513            0           0           0  
      3.759199  4.269914  9.381657            0           0           0  
      6.456705  8.873154  9.238250            0           0           0  
     11.769226  4.244077  9.349878            0           0           0  
      9.103756  8.863685  9.215918            0           0           0  
     10.459088  1.956622  9.211658            0           0           0  
      2.462144  1.949303  9.259932            0           0           0  
     11.744661  8.855901  9.354102            0           0           0  
     13.103876  6.542981  9.333108            0           0           0  
      5.087455  1.941774  9.295198            0           0           0  
      7.800436  6.574666  9.280714            0           0           0  
      9.130725  4.262027  9.258242            0           0           0  
      5.113070  6.555133  9.333838            0           0           0  
      7.784525  1.978884  9.295231            0           0           0  
      7.841106  3.469917  6.968072            0           0           0  
      6.369886  1.150527  6.928199            0           0           0  
      6.498778  1.127007  0.917828            0           0           0  
      3.733291  4.243650  2.823042            0           0           0  
      1.192485  1.256750  6.897483            0           0           0  
      1.141687  1.204891  0.754652            0           0           0  
      6.499372  8.840780  2.914106            0           0           0  
      6.444417  4.264338  9.341852            0           0           0  
      7.760025  5.042326  4.808592            0           0           0  
     10.427994  6.564118  9.284788            0           0           0  
     14.394635  7.282325  4.862062            0           0           0  
     11.793866  5.747495  7.006215            0           0           0  
      6.469560  5.826356  6.983663            0           0           0  
      3.646743  2.580007  4.957403            0           0           0  
     10.456717  5.074692  4.861646            0           0           0  
      3.796665  5.825689  7.133851            0           0           0  
     13.078973  7.956177  0.958832            0           0           0  
      5.213798  7.986558  0.862842            0           0           0  
      3.831310  5.831966  0.856005            0           0           0  
      7.882427  2.063465  2.846121            0           0           0  
      9.162894  8.807943  2.876123            0           0           0  
      2.425561  3.539205  7.121245            0           0           0  
      2.328700  3.518376  0.862991            0           0           0  
     10.446876  1.987090  2.840088            0           0           0  
     13.082712  5.024680  4.923862            0           0           0  
      3.788524  1.067573  7.049104            0           0           0  
      9.117585  5.809461  7.066674            0           0           0  
      3.771220  1.067832  0.904149            0           0           0  
      9.187153  5.773157  0.992859            0           0           0  
      5.174203  3.525475  0.870034            0           0           0  
     11.723623  8.751758  2.922452            0           0           0  
     11.767299  7.325853  4.849224            0           0           0  
     12.977995  6.503222  2.852336            0           0           0  
      9.131706  4.244648  2.814039            0           0           0  
      7.835452  8.078828  6.994736            0           0           0  
      7.897630  8.018724  0.913795            0           0           0  
     10.490378  6.601262  2.838692            0           0           0  
      2.550488  0.251792  5.003372            0           0           0  
      7.834603  3.521009  0.790672            0           0           0  
      5.126422  1.884619  2.935031            0           0           0  
      5.216670  6.505642  2.920646            0           0           0  
      7.786185  0.466333  4.853935            0           0           0  
      9.134333  1.193885  6.976946            0           0           0  
     10.399481  8.061192  6.977420            0           0           0  
      9.150683  1.135589  0.789759            0           0           0  
     10.461244  8.030921  0.814770            0           0           0  
      5.107049  5.006118  4.920577            0           0           0  
     11.724357  2.747234  4.876565            0           0           0  
     14.434703  8.900655  2.852614            0           0           0  
      9.170157  2.675086  4.923484            0           0           0  
      6.433918  2.696106  4.862014            0           0           0  
     11.768766  4.219254  2.836685            0           0           0  
      2.464313  1.903485  2.845607            0           0           0  
     11.756844  5.740030  0.912947            0           0           0  
      6.522583  5.804092  0.958327            0           0           0  
      7.914118  6.577917  2.852701            0           0           0  
      6.482113  4.167838  2.791458            0           0           0  
     10.474864  3.501249  7.036167            0           0           0  
     10.445388  3.479421  0.900647            0           0           0  
     10.469072  0.489081  4.875372            0           0           0  
      9.137404  7.354636  4.949788            0           0           0  
      6.544908  7.365869  4.942272            0           0           0  
      5.087678  0.272206  4.903023            0           0           0  
      7.794560  0.416331 10.318817    -0.989389    0.125130   -0.073839  
 
   3 f  =   16.389621 THz   102.979026 2PiTHz  546.698897 cm-1    67.782049 meV
             X         Y         Z           dx          dy          dz
     13.069912  8.119055  6.979250            0           0           0  
      5.146624  8.147698  6.937247            0           0           0  
      5.007565  3.517764  7.008602            0           0           0  
     14.478558  8.871681  9.342513            0           0           0  
      3.759199  4.269914  9.381657            0           0           0  
      6.456705  8.873154  9.238250            0           0           0  
     11.769226  4.244077  9.349878            0           0           0  
      9.103756  8.863685  9.215918            0           0           0  
     10.459088  1.956622  9.211658            0           0           0  
      2.462144  1.949303  9.259932            0           0           0  
     11.744661  8.855901  9.354102            0           0           0  
     13.103876  6.542981  9.333108            0           0           0  
      5.087455  1.941774  9.295198            0           0           0  
      7.800436  6.574666  9.280714            0           0           0  
      9.130725  4.262027  9.258242            0           0           0  
      5.113070  6.555133  9.333838            0           0           0  
      7.784525  1.978884  9.295231            0           0           0  
      7.841106  3.469917  6.968072            0           0           0  
      6.369886  1.150527  6.928199            0           0           0  
      6.498778  1.127007  0.917828            0           0           0  
      3.733291  4.243650  2.823042            0           0           0  
      1.192485  1.256750  6.897483            0           0           0  
      1.141687  1.204891  0.754652            0           0           0  
      6.499372  8.840780  2.914106            0           0           0  
      6.444417  4.264338  9.341852            0           0           0  
      7.760025  5.042326  4.808592            0           0           0  
     10.427994  6.564118  9.284788            0           0           0  
     14.394635  7.282325  4.862062            0           0           0  
     11.793866  5.747495  7.006215            0           0           0  
      6.469560  5.826356  6.983663            0           0           0  
      3.646743  2.580007  4.957403            0           0           0  
     10.456717  5.074692  4.861646            0           0           0  
      3.796665  5.825689  7.133851            0           0           0  
     13.078973  7.956177  0.958832            0           0           0  
      5.213798  7.986558  0.862842            0           0           0  
      3.831310  5.831966  0.856005            0           0           0  
      7.882427  2.063465  2.846121            0           0           0  
      9.162894  8.807943  2.876123            0           0           0  
      2.425561  3.539205  7.121245            0           0           0  
      2.328700  3.518376  0.862991            0           0           0  
     10.446876  1.987090  2.840088            0           0           0  
     13.082712  5.024680  4.923862            0           0           0  
      3.788524  1.067573  7.049104            0           0           0  
      9.117585  5.809461  7.066674            0           0           0  
      3.771220  1.067832  0.904149            0           0           0  
      9.187153  5.773157  0.992859            0           0           0  
      5.174203  3.525475  0.870034            0           0           0  
     11.723623  8.751758  2.922452            0           0           0  
     11.767299  7.325853  4.849224            0           0           0  
     12.977995  6.503222  2.852336            0           0           0  
      9.131706  4.244648  2.814039            0           0           0  
      7.835452  8.078828  6.994736            0           0           0  
      7.897630  8.018724  0.913795            0           0           0  
     10.490378  6.601262  2.838692            0           0           0  
      2.550488  0.251792  5.003372            0           0           0  
      7.834603  3.521009  0.790672            0           0           0  
      5.126422  1.884619  2.935031            0           0           0  
      5.216670  6.505642  2.920646            0           0           0  
      7.786185  0.466333  4.853935            0           0           0  
      9.134333  1.193885  6.976946            0           0           0  
     10.399481  8.061192  6.977420            0           0           0  
      9.150683  1.135589  0.789759            0           0           0  
     10.461244  8.030921  0.814770            0           0           0  
      5.107049  5.006118  4.920577            0           0           0  
     11.724357  2.747234  4.876565            0           0           0  
     14.434703  8.900655  2.852614            0           0           0  
      9.170157  2.675086  4.923484            0           0           0  
      6.433918  2.696106  4.862014            0           0           0  
     11.768766  4.219254  2.836685            0           0           0  
      2.464313  1.903485  2.845607            0           0           0  
     11.756844  5.740030  0.912947            0           0           0  
      6.522583  5.804092  0.958327            0           0           0  
      7.914118  6.577917  2.852701            0           0           0  
      6.482113  4.167838  2.791458            0           0           0  
     10.474864  3.501249  7.036167            0           0           0  
     10.445388  3.479421  0.900647            0           0           0  
     10.469072  0.489081  4.875372            0           0           0  
      9.137404  7.354636  4.949788            0           0           0  
      6.544908  7.365869  4.942272            0           0           0  
      5.087678  0.272206  4.903023            0           0           0  
      7.794560  0.416331 10.318817     0.127142    0.991613   -0.023199  
 
 Finite differences POTIM=  1.500000000000000E-002
  LATTYP: Found a hexagonal cell.
 ALAT       =    10.6599998474
 C/A-ratio  =     2.0637898982
  
  Lattice vectors:
  
 A1 = (   5.3299999237,  -9.2318306722,   0.0000000000)
 A2 = ( -10.6599998474,   0.0000000000,   0.0000000000)
 A3 = (   0.0000000000,   0.0000000000, -22.0000000000)


Analysis of symmetry for initial positions (statically):
=====================================================================
 Subroutine PRICEL returns:
 Original cell was already a primitive cell.
 

 Routine SETGRP: Setting up the symmetry group for a 
 hexagonal supercell.


 Subroutine GETGRP returns: Found  1 space group operations
 (whereof  1 operations were pure point group operations)
 out of a pool of 24 trial point group operations.


The static configuration has the point symmetry C_1 .


Analysis of symmetry for dynamics (positions and initial velocities):
=====================================================================
 Subroutine PRICEL returns:
 Original cell was already a primitive cell.
 

 Routine SETGRP: Setting up the symmetry group for a 
 hexagonal supercell.


 Subroutine GETGRP returns: Found  1 space group operations
 (whereof  1 operations were pure point group operations)
 out of a pool of 24 trial point group operations.


The dynamic configuration has the point symmetry C_1 .


Analysis of constrained symmetry for selective dynamics:
=====================================================================
 Subroutine PRICEL returns:
 Original cell was already a primitive cell.
 

 Routine SETGRP: Setting up the symmetry group for a 
 hexagonal supercell.


 Subroutine GETGRP returns: Found  1 space group operations
 (whereof  1 operations were pure point group operations)
 out of a pool of 24 trial point group operations.


The constrained configuration has the point symmetry C_1 .


Analysis of structural, dynamic, and magnetic symmetry:
=====================================================================
 Subroutine PRICEL returns:
 Original cell was already a primitive cell.
 

 Routine SETGRP: Setting up the symmetry group for a 
 hexagonal supercell.


 Subroutine GETGRP returns: Found  1 space group operations
 (whereof  1 operations were pure point group operations)
 out of a pool of 24 trial point group operations.


The magnetic configuration has the point symmetry C_1 .


 Subroutine INISYM returns: Found  1 space group operations
 (whereof  1 operations are pure point group operations),
 and found     1 'primitive' translations

 
 KPOINTS: mesh auto                               

Automatic generation of k-mesh.
Space group operators:
 irot       det(A)        alpha          n_x          n_y          n_z        tau_x        tau_y        tau_z
    1     1.000000     0.000000     1.000000     0.000000     0.000000     0.000000     0.000000     0.000000
 
 Subroutine IBZKPT returns following result:
 ===========================================
 
 Found      4 irreducible k-points:
 
 Following reciprocal coordinates:
            Coordinates               Weight
  0.000000  0.000000  0.000000      1.000000
  0.500000 -0.000000  0.000000      1.000000
  0.000000  0.500000  0.000000      1.000000
  0.500000  0.500000  0.000000      1.000000
 
 Following cartesian coordinates:
            Coordinates               Weight
  0.000000  0.000000  0.000000      1.000000
  0.046904 -0.027080  0.000000      1.000000
  0.000000  0.054160  0.000000      1.000000
  0.046904  0.027080  0.000000      1.000000
 
 TETIRR: Found     12 inequivalent tetrahedra from       24
     LOOP+:  cpu time  558.2419: real time  561.5237
    4ORBIT:  cpu time    0.0000: real time    0.0000
 BZINTS: Fermi energy:  1.933110;778.000000 electrons
         Band energy:-742.969272;  BLOECHL correction: -0.271171

 total amount of memory used by VASP MPI-rank0   369851. kBytes
=======================================================================

   base      :      30000. kBytes
   nonlr-proj:      96548. kBytes
   fftplans  :      12162. kBytes
   grid      :     120476. kBytes
   one-center:       2519. kBytes
   wavefun   :     108146. kBytes
 
  
  
 General timing and accounting informations for this job:
 ========================================================
  
                  Total CPU time used (sec):     7864.214
                            User time (sec):     7792.763
                          System time (sec):       71.452
                         Elapsed time (sec):     7917.258
  
                   Maximum memory used (kb):      687304.
                   Average memory used (kb):           0.
  
                          Minor page faults:     21454884
                          Major page faults:          164
                 Voluntary context switches:         6764
