 vasp.5.4.4.18Apr17-6-g9f103f2a35 (build Oct 25 2019 11:13:22) complex          
  
 executed on             LinuxIFC date 2021.10.28  17:48:26
 running on   48 total cores
 distrk:  each k-point on   48 cores,    1 groups
 distr:  one band on NCORES_PER_BAND=   4 cores,   12 groups


--------------------------------------------------------------------------------------------------------


 INCAR:
 POTCAR:    PAW_PBE Pt 04Feb2005                  
 POTCAR:    PAW_PBE Fe 06Sep2000                  
 POTCAR:    PAW_PBE Co 02Aug2007                  
 POTCAR:    PAW_PBE Cu 22Jun2005                  
 POTCAR:    PAW_PBE Ni 02Aug2007                  
 POTCAR:    PAW_PBE H 15Jun2001                   
 POTCAR:    PAW_PBE Pt 04Feb2005                  
   VRHFIN =Pt: s1d9                                                             
   LEXCH  = PE                                                                  
   EATOM  =   729.1176 eV,   53.5886 Ry                                         
                                                                                
   TITEL  = PAW_PBE Pt 04Feb2005                                                
   LULTRA =        F    use ultrasoft PP ?                                      
   IUNSCR =        1    unscreen: 0-lin 1-nonlin 2-no                           
   RPACOR =    2.330    partial core radius                                     
   POMASS =  195.080; ZVAL   =   10.000    mass and valenz                      
   RCORE  =    2.600    outmost cutoff radius                                   
   RWIGS  =    2.750; RWIGS  =    1.455    wigner-seitz radius (au A)           
   ENMAX  =  230.283; ENMIN  =  172.712 eV                                      
   ICORE  =        3    local potential                                         
   LCOR   =        T    correct aug charges                                     
   LPAW   =        T    paw PP                                                  
   EAUG   =  358.966                                                            
   DEXC   =    0.000                                                            
   RMAX   =    2.658    core radius for proj-oper                               
   RAUG   =    1.300    factor for augmentation sphere                          
   RDEP   =    2.761    radius for radial grids                                 
   RDEPT  =    2.203    core radius for aug-charge                              
                                                                                
   Atomic configuration                                                         
   16 entries                                                                   
     n  l   j            E        occ.                                          
     1  0  0.50    -78401.1885   2.0000                                         
     2  0  0.50    -13770.7750   2.0000                                         
     2  1  1.50    -11931.0468   6.0000                                         
     3  0  0.50     -3234.7234   2.0000                                         
     3  1  1.50     -2699.2216   6.0000                                         
     3  2  2.50     -2119.5714  10.0000                                         
     4  0  0.50      -695.1528   2.0000                                         
     4  1  1.50      -519.6034   6.0000                                         
     4  2  2.50      -306.6786  10.0000                                         
     4  3  3.50       -70.1041  14.0000                                         
     5  0  0.50      -101.7747   2.0000                                         
     5  1  1.50       -55.9873   6.0000                                         
     5  2  2.50        -6.1423   9.0000                                         
     6  0  0.50        -5.6573   1.0000                                         
     6  1  1.50        -6.8029   0.0000                                         
     5  3  2.50        -1.3606   0.0000                                         
   Description                                                                  
     l       E           TYP  RCUT    TYP  RCUT                                 
     2     -6.1423404     23  2.500                                             
     2     -7.5029230     23  2.500                                             
     0     -5.6573207     23  2.500                                             
     0      0.7416693     23  2.500                                             
     1     -2.7211652     23  2.600                                             
     1     20.4087390     23  2.600                                             
     3     -1.3605826     23  2.500                                             
  local pseudopotential read in
  partial core-charges read in
  partial kinetic energy density read in
  atomic valenz-charges read in
  non local Contribution for L=           2  read in
    real space projection operators read in
  non local Contribution for L=           2  read in
    real space projection operators read in
  non local Contribution for L=           0  read in
    real space projection operators read in
  non local Contribution for L=           0  read in
    real space projection operators read in
  non local Contribution for L=           1  read in
    real space projection operators read in
  non local Contribution for L=           1  read in
    real space projection operators read in
    PAW grid and wavefunctions read in
 
   number of l-projection  operators is LMAX  =           6
   number of lm-projection operators is LMMAX =          18
 
 POTCAR:    PAW_PBE Fe 06Sep2000                  
   VRHFIN =Fe:  d7 s1                                                           
   LEXCH  = PE                                                                  
   EATOM  =   594.3153 eV,   43.6809 Ry                                         
                                                                                
   TITEL  = PAW_PBE Fe 06Sep2000                                                
   LULTRA =        F    use ultrasoft PP ?                                      
   IUNSCR =        1    unscreen: 0-lin 1-nonlin 2-no                           
   RPACOR =    2.000    partial core radius                                     
   POMASS =   55.847; ZVAL   =    8.000    mass and valenz                      
   RCORE  =    2.300    outmost cutoff radius                                   
   RWIGS  =    2.460; RWIGS  =    1.302    wigner-seitz radius (au A)           
   ENMAX  =  267.882; ENMIN  =  200.911 eV                                      
   RCLOC  =    1.701    cutoff for local pot                                    
   LCOR   =        T    correct aug charges                                     
   LPAW   =        T    paw PP                                                  
   EAUG   =  511.368                                                            
   DEXC   =    0.000                                                            
   RMAX   =    2.356    core radius for proj-oper                               
   RAUG   =    1.300    factor for augmentation sphere                          
   RDEP   =    2.442    radius for radial grids                                 
   RDEPT  =    1.890    core radius for aug-charge                              
                                                                                
   Atomic configuration                                                         
    9 entries                                                                   
     n  l   j            E        occ.                                          
     1  0  0.50     -6993.8440   2.0000                                         
     2  0  0.50      -814.6047   2.0000                                         
     2  1  1.50      -693.3689   6.0000                                         
     3  0  0.50       -89.4732   2.0000                                         
     3  1  1.50       -55.6373   6.0000                                         
     3  2  2.50        -3.8151   7.0000                                         
     4  0  0.50        -4.2551   1.0000                                         
     4  1  1.50        -3.4015   0.0000                                         
     4  3  2.50        -1.3606   0.0000                                         
   Description                                                                  
     l       E           TYP  RCUT    TYP  RCUT                                 
     2     -3.8151135     23  2.300                                             
     2     -5.1756961     23  2.300                                             
     0     -4.2550963     23  2.300                                             
     0      7.2035603     23  2.300                                             
     1     -2.7211652     23  2.300                                             
     1     18.4316424     23  2.300                                             
  local pseudopotential read in
  partial core-charges read in
  partial kinetic energy density read in
  atomic valenz-charges read in
  non local Contribution for L=           2  read in
    real space projection operators read in
  non local Contribution for L=           2  read in
    real space projection operators read in
  non local Contribution for L=           0  read in
    real space projection operators read in
  non local Contribution for L=           0  read in
    real space projection operators read in
  non local Contribution for L=           1  read in
    real space projection operators read in
  non local Contribution for L=           1  read in
    real space projection operators read in
    PAW grid and wavefunctions read in
 
   number of l-projection  operators is LMAX  =           6
   number of lm-projection operators is LMMAX =          18
 
 POTCAR:    PAW_PBE Co 02Aug2007                  
   VRHFIN =Co: d8 s1                                                            
   LEXCH  = PE                                                                  
   EATOM  =   813.3670 eV,   59.7808 Ry                                         
                                                                                
   TITEL  = PAW_PBE Co 02Aug2007                                                
   LULTRA =        F    use ultrasoft PP ?                                      
   IUNSCR =        1    unscreen: 0-lin 1-nonlin 2-no                           
   RPACOR =    2.000    partial core radius                                     
   POMASS =   58.933; ZVAL   =    9.000    mass and valenz                      
   RCORE  =    2.300    outmost cutoff radius                                   
   RWIGS  =    2.460; RWIGS  =    1.302    wigner-seitz radius (au A)           
   ENMAX  =  267.968; ENMIN  =  200.976 eV                                      
   RCLOC  =    1.203    cutoff for local pot                                    
   LCOR   =        T    correct aug charges                                     
   LPAW   =        T    paw PP                                                  
   EAUG   =  477.818                                                            
   DEXC   =    0.000                                                            
   RMAX   =    2.360    core radius for proj-oper                               
   RAUG   =    1.300    factor for augmentation sphere                          
   RDEP   =    2.393    radius for radial grids                                 
   RDEPT  =    1.864    core radius for aug-charge                              
                                                                                
   Atomic configuration                                                         
    9 entries                                                                   
     n  l   j            E        occ.                                          
     1  0  0.50     -7587.6674   2.0000                                         
     2  0  0.50      -893.6084   2.0000                                         
     2  1  1.50      -764.5805   6.0000                                         
     3  0  0.50       -97.5973   2.0000                                         
     3  1  1.50       -60.9648   6.0000                                         
     3  2  2.50        -4.2382   8.0000                                         
     4  0  0.50        -4.3746   1.0000                                         
     4  1  1.50        -4.0817   0.0000                                         
     4  3  2.50        -1.3606   0.0000                                         
   Description                                                                  
     l       E           TYP  RCUT    TYP  RCUT                                 
     2     -4.2382362     23  2.300                                             
     2     -5.5988188     23  2.300                                             
     0     -4.3745797     23  2.300                                             
     0      5.7660125     23  2.300                                             
     1     -2.7211652     23  2.300                                             
     1     16.9860234     23  2.300                                             
  local pseudopotential read in
  partial core-charges read in
  partial kinetic energy density read in
  atomic valenz-charges read in
  non local Contribution for L=           2  read in
    real space projection operators read in
  non local Contribution for L=           2  read in
    real space projection operators read in
  non local Contribution for L=           0  read in
    real space projection operators read in
  non local Contribution for L=           0  read in
    real space projection operators read in
  non local Contribution for L=           1  read in
    real space projection operators read in
  non local Contribution for L=           1  read in
    real space projection operators read in
    PAW grid and wavefunctions read in
 
   number of l-projection  operators is LMAX  =           6
   number of lm-projection operators is LMMAX =          18
 
 POTCAR:    PAW_PBE Cu 22Jun2005                  
   VRHFIN =Cu: d10 p1                                                           
   LEXCH  = PE                                                                  
   EATOM  =  1390.9808 eV,  102.2342 Ry                                         
                                                                                
   TITEL  = PAW_PBE Cu 22Jun2005                                                
   LULTRA =        F    use ultrasoft PP ?                                      
   IUNSCR =        1    unscreen: 0-lin 1-nonlin 2-no                           
   RPACOR =    2.000    partial core radius                                     
   POMASS =   63.546; ZVAL   =   11.000    mass and valenz                      
   RCORE  =    2.300    outmost cutoff radius                                   
   RWIGS  =    2.200; RWIGS  =    1.164    wigner-seitz radius (au A)           
   ENMAX  =  295.446; ENMIN  =  221.585 eV                                      
   ICORE  =        3    local potential                                         
   LCOR   =        T    correct aug charges                                     
   LPAW   =        T    paw PP                                                  
   EAUG   =  586.980                                                            
   DEXC   =    0.000                                                            
   RMAX   =    2.344    core radius for proj-oper                               
   RAUG   =    1.300    factor for augmentation sphere                          
   RDEP   =    2.302    radius for radial grids                                 
   RDEPT  =    1.771    core radius for aug-charge                              
                                                                                
   Atomic configuration                                                         
    9 entries                                                                   
     n  l   j            E        occ.                                          
     1  0  0.50     -8850.2468   2.0000                                         
     2  0  0.50     -1062.3498   2.0000                                         
     2  1  1.50      -916.8226   6.0000                                         
     3  0  0.50      -114.6929   2.0000                                         
     3  1  1.50       -72.1325   6.0000                                         
     3  2  2.50        -5.0394  10.0000                                         
     4  0  0.50        -4.6097   1.0000                                         
     4  1  0.50        -4.0817   0.0000                                         
     4  3  2.50        -1.3606   0.0000                                         
   Description                                                                  
     l       E           TYP  RCUT    TYP  RCUT                                 
     2     -5.0393973     23  2.200                                             
     2     10.8846608     23  2.200                                             
     0     -4.6097109     23  2.200                                             
     0      8.2520465     23  2.200                                             
     1     -2.7211652     23  2.200                                             
     1     21.7055443     23  2.200                                             
     3      2.7211652     23  2.300                                             
  local pseudopotential read in
  partial core-charges read in
  partial kinetic energy density read in
  atomic valenz-charges read in
  non local Contribution for L=           2  read in
    real space projection operators read in
  non local Contribution for L=           2  read in
    real space projection operators read in
  non local Contribution for L=           0  read in
    real space projection operators read in
  non local Contribution for L=           0  read in
    real space projection operators read in
  non local Contribution for L=           1  read in
    real space projection operators read in
  non local Contribution for L=           1  read in
    real space projection operators read in
    PAW grid and wavefunctions read in
 
   number of l-projection  operators is LMAX  =           6
   number of lm-projection operators is LMMAX =          18
 
 POTCAR:    PAW_PBE Ni 02Aug2007                  
   VRHFIN =Ni:                                                                  
   LEXCH  = PE                                                                  
   EATOM  =  1077.6739 eV,   79.2068 Ry                                         
                                                                                
   TITEL  = PAW_PBE Ni 02Aug2007                                                
   LULTRA =        F    use ultrasoft PP ?                                      
   IUNSCR =        1    unscreen: 0-lin 1-nonlin 2-no                           
   RPACOR =    2.000    partial core radius                                     
   POMASS =   58.690; ZVAL   =   10.000    mass and valenz                      
   RCORE  =    2.300    outmost cutoff radius                                   
   RWIGS  =    2.430; RWIGS  =    1.286    wigner-seitz radius (au A)           
   ENMAX  =  269.532; ENMIN  =  202.149 eV                                      
   RCLOC  =    1.201    cutoff for local pot                                    
   LCOR   =        T    correct aug charges                                     
   LPAW   =        T    paw PP                                                  
   EAUG   =  544.565                                                            
   DEXC   =    0.000                                                            
   RMAX   =    2.357    core radius for proj-oper                               
   RAUG   =    1.300    factor for augmentation sphere                          
   RDEP   =    2.390    radius for radial grids                                 
   RDEPT  =    1.838    core radius for aug-charge                              
                                                                                
   Atomic configuration                                                         
    9 entries                                                                   
     n  l   j            E        occ.                                          
     1  0  0.50     -8206.4253   2.0000                                         
     2  0  0.50      -976.1748   2.0000                                         
     2  1  1.50      -839.0571   6.0000                                         
     3  0  0.50      -105.9991   2.0000                                         
     3  1  1.50       -66.4603   6.0000                                         
     3  2  2.50        -4.6458   9.0000                                         
     4  0  0.50        -4.4926   1.0000                                         
     4  1  1.50        -4.0817   0.0000                                         
     4  3  2.50        -1.3606   0.0000                                         
   Description                                                                  
     l       E           TYP  RCUT    TYP  RCUT                                 
     2     -4.6457903     23  2.300                                             
     2     -6.0063729     23  2.300                                             
     0     -4.4925590     23  2.300                                             
     0      5.0102601     23  2.300                                             
     1     -2.7211652     23  2.300                                             
     1     16.5183231     23  2.300                                             
  local pseudopotential read in
  partial core-charges read in
  partial kinetic energy density read in
  atomic valenz-charges read in
  non local Contribution for L=           2  read in
    real space projection operators read in
  non local Contribution for L=           2  read in
    real space projection operators read in
  non local Contribution for L=           0  read in
    real space projection operators read in
  non local Contribution for L=           0  read in
    real space projection operators read in
  non local Contribution for L=           1  read in
    real space projection operators read in
  non local Contribution for L=           1  read in
    real space projection operators read in
    PAW grid and wavefunctions read in
 
   number of l-projection  operators is LMAX  =           6
   number of lm-projection operators is LMMAX =          18
 
 POTCAR:    PAW_PBE H 15Jun2001                   
   VRHFIN =H: ultrasoft test                                                    
   LEXCH  = PE                                                                  
   EATOM  =    12.4884 eV,    0.9179 Ry                                         
                                                                                
   TITEL  = PAW_PBE H 15Jun2001                                                 
   LULTRA =        F    use ultrasoft PP ?                                      
   IUNSCR =        0    unscreen: 0-lin 1-nonlin 2-no                           
   RPACOR =    0.000    partial core radius                                     
   POMASS =    1.000; ZVAL   =    1.000    mass and valenz                      
   RCORE  =    1.100    outmost cutoff radius                                   
   RWIGS  =    0.700; RWIGS  =    0.370    wigner-seitz radius (au A)           
   ENMAX  =  250.000; ENMIN  =  200.000 eV                                      
   RCLOC  =    0.701    cutoff for local pot                                    
   LCOR   =        T    correct aug charges                                     
   LPAW   =        T    paw PP                                                  
   EAUG   =  400.000                                                            
   RMAX   =    1.123    core radius for proj-oper                               
   RAUG   =    1.200    factor for augmentation sphere                          
   RDEP   =    1.112    radius for radial grids                                 
   RDEPT  =    0.926    core radius for aug-charge                              
                                                                                
   Atomic configuration                                                         
    2 entries                                                                   
     n  l   j            E        occ.                                          
     1  0  0.50        -6.4927   1.0000                                         
     2  1  0.50        -3.4015   0.0000                                         
   Description                                                                  
     l       E           TYP  RCUT    TYP  RCUT                                 
     0     -6.4927494     23  1.100                                             
     0      6.8029130     23  1.100                                             
     1     -4.0817478     23  1.100                                             
  local pseudopotential read in
  atomic valenz-charges read in
  non local Contribution for L=           0  read in
    real space projection operators read in
  non local Contribution for L=           0  read in
    real space projection operators read in
  non local Contribution for L=           1  read in
    real space projection operators read in
    PAW grid and wavefunctions read in
 
   number of l-projection  operators is LMAX  =           3
   number of lm-projection operators is LMMAX =           5
 
 Optimization of the real space projectors (new method)

 maximal supplied QI-value         = 14.36
 optimisation between [QCUT,QGAM] = [ 11.92, 23.98] = [ 39.79,161.09] Ry 
 Optimized for a Real-space Cutoff    1.49 Angstroem

   l    n(q)    QCUT    max X(q) W(low)/X(q) W(high)/X(q)  e(spline) 
   2     10    11.920    66.195    0.79E-04    0.18E-03    0.24E-06
   2     10    11.920    64.643    0.81E-04    0.19E-03    0.24E-06
   0     11    11.920    95.520    0.28E-04    0.54E-04    0.18E-06
   0     11    11.920    63.403    0.27E-04    0.52E-04    0.17E-06
   1     10    11.920    19.961    0.18E-04    0.11E-03    0.23E-06
   1     10    11.920    13.289    0.25E-04    0.87E-04    0.19E-06
 Optimization of the real space projectors (new method)

 maximal supplied QI-value         = 16.25
 optimisation between [QCUT,QGAM] = [ 11.86, 23.89] = [ 39.41,159.82] Ry 
 Optimized for a Real-space Cutoff    1.49 Angstroem

   l    n(q)    QCUT    max X(q) W(low)/X(q) W(high)/X(q)  e(spline) 
   2     10    11.864    80.901    0.13E-03    0.23E-03    0.37E-06
   2     10    11.864    75.754    0.13E-03    0.23E-03    0.38E-06
   0     11    11.864    58.752    0.44E-04    0.11E-04    0.20E-06
   0     11    11.864    30.679    0.36E-04    0.10E-04    0.18E-06
   1     10    11.864    17.977    0.31E-04    0.45E-04    0.10E-06
   1     10    11.864    13.559    0.25E-04    0.37E-04    0.89E-07
 Optimization of the real space projectors (new method)

 maximal supplied QI-value         = 16.25
 optimisation between [QCUT,QGAM] = [ 11.86, 23.89] = [ 39.41,159.82] Ry 
 Optimized for a Real-space Cutoff    1.33 Angstroem

   l    n(q)    QCUT    max X(q) W(low)/X(q) W(high)/X(q)  e(spline) 
   2      9    11.864    65.824    0.22E-03    0.53E-03    0.26E-06
   2      9    11.864    61.429    0.22E-03    0.53E-03    0.26E-06
   0      9    11.864    56.174    0.21E-03    0.32E-04    0.15E-06
   0      9    11.864    31.263    0.19E-03    0.30E-04    0.14E-06
   1      9    11.864    19.828    0.63E-04    0.30E-03    0.16E-06
   1      9    11.864    15.139    0.49E-04    0.25E-03    0.13E-06
 Optimization of the real space projectors (new method)

 maximal supplied QI-value         = 16.25
 optimisation between [QCUT,QGAM] = [ 11.86, 23.89] = [ 39.41,159.82] Ry 
 Optimized for a Real-space Cutoff    1.49 Angstroem

   l    n(q)    QCUT    max X(q) W(low)/X(q) W(high)/X(q)  e(spline) 
   2     10    11.864     4.610    0.10E-03    0.20E-03    0.29E-06
   2     10    11.864     8.522    0.17E-03    0.33E-03    0.50E-06
   0     11    11.864    51.609    0.52E-04    0.55E-04    0.33E-06
   0     11    11.864    27.747    0.46E-04    0.52E-04    0.31E-06
   1     10    11.864    20.408    0.54E-04    0.25E-04    0.21E-06
   1     10    11.864    13.425    0.48E-04    0.22E-04    0.18E-06
 Optimization of the real space projectors (new method)

 maximal supplied QI-value         = 16.25
 optimisation between [QCUT,QGAM] = [ 11.86, 23.89] = [ 39.41,159.82] Ry 
 Optimized for a Real-space Cutoff    1.33 Angstroem

   l    n(q)    QCUT    max X(q) W(low)/X(q) W(high)/X(q)  e(spline) 
   2      9    11.864    60.317    0.21E-03    0.51E-03    0.25E-06
   2      9    11.864    55.921    0.21E-03    0.51E-03    0.26E-06
   0      9    11.864    51.690    0.22E-03    0.30E-04    0.17E-06
   0      9    11.864    30.015    0.20E-03    0.28E-04    0.15E-06
   1      9    11.864    18.849    0.76E-04    0.33E-03    0.17E-06
   1      9    11.864    14.624    0.60E-04    0.28E-03    0.15E-06
 Optimization of the real space projectors (new method)

 maximal supplied QI-value         = 34.20
 optimisation between [QCUT,QGAM] = [ 11.97, 23.94] = [ 40.13,160.53] Ry 
 Optimized for a Real-space Cutoff    1.18 Angstroem

   l    n(q)    QCUT    max X(q) W(low)/X(q) W(high)/X(q)  e(spline) 
   0      8    11.971    19.460    0.15E-03    0.31E-03    0.25E-06
   0      8    11.971    12.209    0.13E-03    0.29E-03    0.25E-06
   1      8    11.971     4.655    0.22E-03    0.24E-03    0.21E-06
  PAW_PBE Pt 04Feb2005                  :
 energy of atom  1       EATOM= -729.1176
 kinetic energy error for atom=    0.0021 (will be added to EATOM!!)
  PAW_PBE Fe 06Sep2000                  :
 energy of atom  2       EATOM= -594.3153
 kinetic energy error for atom=    0.0024 (will be added to EATOM!!)
  PAW_PBE Co 02Aug2007                  :
 energy of atom  3       EATOM= -813.3670
 kinetic energy error for atom=    0.0026 (will be added to EATOM!!)
  PAW_PBE Cu 22Jun2005                  :
 energy of atom  4       EATOM=-1390.9808
 kinetic energy error for atom=    0.0036 (will be added to EATOM!!)
  PAW_PBE Ni 02Aug2007                  :
 energy of atom  5       EATOM=-1077.6739
 kinetic energy error for atom=    0.0027 (will be added to EATOM!!)
  PAW_PBE H 15Jun2001                   :
 energy of atom  6       EATOM=  -12.4884
 kinetic energy error for atom=    0.0008 (will be added to EATOM!!)
 
 
 POSCAR: 11.26                                   
  positions in cartesian coordinates
  No initial velocities read in
 exchange correlation table for  LEXCH =        8
   RHO(1)=    0.500       N(1)  =     2000
   RHO(2)=  100.500       N(2)  =     4000
 


--------------------------------------------------------------------------------------------------------


 ion  position               nearest neighbor table
   1  0.782  0.872  0.305-  49 2.53  59 2.61  28 2.68  61 2.75  19 2.79  33 2.79   4 2.79  11 2.80
                             2 2.81  29 2.83  12 2.85  60 2.87
   2  0.032  0.871  0.300-  79 2.51  77 2.55  28 2.77  33 2.78  30 2.78   1 2.81   4 2.81  60 2.83
                             6 2.84  16 2.91  22 2.97  52 3.09
   3  0.277  0.362  0.314-  64 2.55  31 2.66  68 2.66  39 2.71   5 2.73  43 2.75  13 2.76  25 2.77
                            19 2.81  30 2.82  33 2.86  18 2.96
   4  0.871  0.958  0.406-  60 2.65   9 2.76   6 2.77  17 2.78   1 2.79  16 2.80  11 2.80   2 2.81
                            12 2.82
   5  0.109  0.464  0.413-  39 2.62  33 2.69  12 2.72   3 2.73   7 2.75  16 2.75  10 2.79  25 2.84
                            13 3.01
   6  0.122  0.948  0.406-  81 1.72  52 2.61  22 2.72  14 2.75  16 2.76   4 2.77   8 2.83   2 2.84
                             9 2.85  10 2.93
   7  0.872  0.448  0.416-  39 2.61  75 2.63  29 2.74   9 2.75   5 2.75  10 2.78  15 2.78  27 2.86
                            12 2.90
   8  0.372  0.952  0.415-  52 2.54  43 2.58  61 2.71  13 2.76  27 2.78  14 2.79  10 2.81  11 2.83
                             6 2.83
   9  0.870  0.204  0.407-  75 2.62  60 2.65   7 2.75  22 2.75   4 2.76  17 2.78  15 2.80   6 2.85
                            10 2.89
  10  0.126  0.207  0.413-  39 2.64  43 2.65  22 2.72  13 2.75   7 2.78   5 2.79   8 2.81   9 2.89
                             6 2.93
  11  0.625  0.950  0.412-  61 2.66  12 2.72  19 2.74  13 2.78   4 2.80   1 2.80  27 2.82   8 2.83
                            17 2.84
  12  0.869  0.708  0.412-  29 2.68  33 2.68   5 2.72  11 2.72  16 2.76   4 2.82   1 2.85  27 2.85
                             7 2.90
  13  0.376  0.196  0.415-  43 2.64  19 2.74  10 2.75   3 2.76   8 2.76  11 2.78  17 2.81  25 2.84
                             5 3.01
  14  0.369  0.705  0.407-  44 2.56  52 2.62   6 2.75  27 2.77   8 2.79  15 2.83  30 2.83  16 2.84
                            25 2.84
  15  0.621  0.454  0.412-  44 2.59  75 2.60  18 2.76  27 2.77   7 2.78  17 2.80   9 2.80  14 2.83
                            25 2.86
  16  0.116  0.705  0.410-  81 1.84  33 2.65  30 2.69   5 2.75   6 2.76  12 2.76   4 2.80  25 2.82
                            14 2.84   2 2.91
  17  0.623  0.204  0.410-  60 2.69  18 2.74  19 2.77   4 2.78   9 2.78  15 2.80  13 2.81  25 2.84
                            11 2.84
  18  0.536  0.372  0.310-  67 2.53  68 2.63  26 2.68  17 2.74  15 2.76  44 2.77  60 2.78  25 2.78
                            75 2.83  30 2.87  19 2.89   3 2.96
  19  0.532  0.117  0.311-  80 2.52  68 2.54  59 2.57  43 2.68  13 2.74  11 2.74  61 2.75  17 2.77
                             1 2.79   3 2.81  60 2.89  18 2.89
  20  0.557  0.109  0.059-  37 2.52  48 2.53  57 2.55  62 2.63  34 2.71  63 2.75  56 2.89  45 3.25

  21  0.093  0.426  0.123-  47 2.48  40 2.50  36 2.53  70 2.60  42 2.61  69 2.66  31 2.74  57 2.74
                            64 2.76  50 2.79
  22  0.051  0.125  0.311-  77 2.51  65 2.53  55 2.57  43 2.69  39 2.71   6 2.72  10 2.72   9 2.75
                            52 2.77  75 2.95   2 2.97  60 2.98  31 3.30
  23  0.024  0.112  0.042-  40 2.53  41 2.56  70 2.59  62 2.65  24 2.72  45 2.74  35 2.80  76 2.81
                            53 2.86
  24  0.129  0.948  0.141-  79 2.49  35 2.53  77 2.57  55 2.58  70 2.60  53 2.61  58 2.68  73 2.68
                            23 2.72  66 2.78  38 2.80  41 2.95
  25  0.367  0.453  0.412-   3 2.77  30 2.78  18 2.78  16 2.82  17 2.84   5 2.84  13 2.84  14 2.84
                            15 2.86
  26  0.446  0.559  0.220-  73 2.48  74 2.49  51 2.53  79 2.55  30 2.61  44 2.62  18 2.68  32 2.72
                            78 2.74  67 2.97  58 3.06  68 3.13  64 3.14
  27  0.617  0.702  0.413-  44 2.61  61 2.67  29 2.74  15 2.77  14 2.77   8 2.78  11 2.82  12 2.85
                             7 2.86
  28  0.950  0.757  0.209-  58 2.57  50 2.57  66 2.61  42 2.62  33 2.64   1 2.68  49 2.69   2 2.77
                            64 2.78
  29  0.794  0.615  0.316-  42 2.55  49 2.61  32 2.64  39 2.65  75 2.68  12 2.68  33 2.73   7 2.74
                            27 2.74   1 2.83  61 2.85  44 2.86
  30  0.271  0.617  0.309-  79 2.52  26 2.61  33 2.64  64 2.69  16 2.69   2 2.78  25 2.78   3 2.82
                            14 2.83  18 2.87  44 3.02  52 3.15
  31  0.189  0.266  0.225-  70 2.50  55 2.57  57 2.59  43 2.61  39 2.62  65 2.65   3 2.66  21 2.74
                            64 2.76  42 2.84  80 2.85  68 3.01  22 3.30
  32  0.693  0.549  0.221-  69 2.52  54 2.57  49 2.58  51 2.59  44 2.62  29 2.64  78 2.67  75 2.67
                            42 2.71  26 2.72  67 2.75  65 2.79  50 3.30
  33  0.032  0.626  0.314-  30 2.64  28 2.64  16 2.65  64 2.67  12 2.68   5 2.69  42 2.73  29 2.73
                             2 2.78   1 2.79  39 2.81   3 2.86
  34  0.791  0.861  0.064-  48 2.37  50 2.40  66 2.51  36 2.70  20 2.71  62 2.82  63 2.83  35 2.86

  35  0.050  0.852  0.056-  36 2.39  24 2.53  66 2.57  58 2.66  72 2.69  23 2.80  34 2.86  53 2.90
                            62 2.93
  36  0.048  0.640  0.066-  35 2.39  47 2.52  21 2.53  58 2.57  50 2.59  34 2.70  72 2.75
  37  0.628  0.231  0.134-  67 2.48  51 2.49  74 2.50  56 2.50  20 2.52  41 2.53  59 2.53  62 2.56
                            68 2.61  66 2.82
  38  0.378  0.948  0.136-  45 2.38  80 2.45  55 2.46  53 2.47  73 2.51  63 2.51  78 2.52  54 2.58
                            48 2.62  57 2.79  24 2.80  70 2.85
  39  0.029  0.377  0.320-  42 2.61   7 2.61   5 2.62  31 2.62  10 2.64  65 2.64  29 2.65   3 2.71
                            22 2.71  75 2.73  33 2.81  43 3.01
  40  0.980  0.356  0.044-  69 2.33  76 2.41  21 2.50  23 2.53  71 2.54  70 2.64  45 3.11
  41  0.864  0.208  0.134-  77 2.39  76 2.41  69 2.49  67 2.50  37 2.53  23 2.56  65 2.57  62 2.59
                            66 2.61  70 2.67  51 2.84  24 2.95
  42  0.945  0.527  0.221-  50 2.47  29 2.55  65 2.61  39 2.61  21 2.61  28 2.62  69 2.65  32 2.71
                            64 2.71  33 2.73  49 2.75  31 2.84
  43  0.298  0.108  0.320-  55 2.52  52 2.53   8 2.58  31 2.61  80 2.62  13 2.64  10 2.65  19 2.68
                            22 2.69  61 2.71   3 2.75  39 3.01
  44  0.539  0.617  0.319-  14 2.56  15 2.59  27 2.61  32 2.62  26 2.62  78 2.64  75 2.69  18 2.77
                            61 2.82  52 2.84  29 2.86  30 3.02
  45  0.273  0.099  0.052-  38 2.38  53 2.39  70 2.41  57 2.59  63 2.73  23 2.74  40 3.11  20 3.25

  46  0.533  0.620  0.050-  51 2.36  73 2.40  54 2.41  71 2.45  72 2.60  56 2.76  53 2.78  76 2.82
                            63 2.89
  47  0.277  0.422  0.059-  74 2.25  72 2.41  21 2.48  36 2.52  56 2.59  57 2.67
  48  0.621  0.927  0.141-  49 2.29  34 2.37  80 2.44  54 2.48  63 2.51  20 2.53  38 2.62  59 2.63
                            50 2.71
  49  0.703  0.775  0.220-  48 2.29  50 2.43  54 2.51   1 2.53  32 2.58  78 2.59  29 2.61  61 2.64
                            28 2.69  42 2.75  80 2.80
  50  0.841  0.670  0.130-  71 2.37  34 2.40  49 2.43  54 2.44  42 2.47  28 2.57  69 2.58  36 2.59
                            48 2.71  21 2.79  32 3.30
  51  0.611  0.461  0.131-  46 2.36  76 2.42  37 2.49  26 2.53  56 2.54  74 2.57  69 2.58  32 2.59
                            67 2.64  73 2.79  54 2.82  41 2.84
  52  0.300  0.882  0.318-  55 2.38  79 2.38  43 2.53   8 2.54  78 2.54   6 2.61  14 2.62  61 2.62
                            22 2.77  44 2.84   2 3.09  30 3.15
  53  0.294  0.876  0.048-  45 2.39  73 2.42  38 2.47  24 2.61  63 2.70  46 2.78  72 2.80  23 2.86
                            35 2.90
  54  0.604  0.716  0.131-  46 2.41  50 2.44  71 2.46  63 2.47  73 2.47  48 2.48  49 2.51  78 2.54
                            32 2.57  38 2.58  51 2.82  69 2.98
  55  0.236  0.017  0.228-  52 2.38  38 2.46  79 2.46  80 2.51  43 2.52  78 2.53  31 2.57  22 2.57
                            24 2.58  70 2.67  77 3.03
  56  0.524  0.379  0.043-  74 2.46  37 2.50  51 2.54  76 2.59  47 2.59  72 2.66  46 2.76  20 2.89

  57  0.355  0.208  0.134-  68 2.51  20 2.55  31 2.59  45 2.59  80 2.65  47 2.67  21 2.74  38 2.79
                            74 2.84  70 2.86
  58  0.173  0.691  0.152-  79 2.43  72 2.43  64 2.43  73 2.56  36 2.57  28 2.57  35 2.66  24 2.68
                            74 2.68  26 3.06
  59  0.692  0.057  0.219-  66 2.44  37 2.53  60 2.55  19 2.57  68 2.60   1 2.61  48 2.63  80 2.85
                            77 2.89
  60  0.784  0.126  0.311-  77 2.48  67 2.49  59 2.55   9 2.65   4 2.65  17 2.69  18 2.78   2 2.83
                             1 2.87  75 2.87  19 2.89  22 2.98
  61  0.540  0.868  0.316-  78 2.43  80 2.55  52 2.62  49 2.64  11 2.66  27 2.67  43 2.71   8 2.71
                            19 2.75   1 2.75  44 2.82  29 2.85
  62  0.788  0.110  0.045-  66 2.50  37 2.56  41 2.59  76 2.62  20 2.63  23 2.65  34 2.82  35 2.93

  63  0.533  0.878  0.044-  54 2.47  48 2.51  38 2.51  53 2.70  45 2.73  20 2.75  34 2.83  46 2.89

  64  0.196  0.508  0.218-  58 2.43   3 2.55  74 2.63  33 2.67  30 2.69  42 2.71  68 2.73  31 2.76
                            21 2.76  28 2.78  26 3.14
  65  0.939  0.298  0.225-  69 2.45  22 2.53  75 2.54  77 2.55  67 2.56  41 2.57  42 2.61  70 2.62
                            39 2.64  31 2.65  32 2.79
  66  0.870  0.973  0.141-  59 2.44  77 2.46  62 2.50  34 2.51  35 2.57  41 2.61  28 2.61  24 2.78
                            37 2.82
  67  0.712  0.295  0.226-  37 2.48  60 2.49  41 2.50  18 2.53  75 2.54  65 2.56  77 2.58  51 2.64
                            32 2.75  26 2.97
  68  0.451  0.278  0.221-  74 2.41  57 2.51  19 2.54  59 2.60  37 2.61  18 2.63   3 2.66  64 2.73
                            80 2.80  31 3.01  26 3.13
  69  0.852  0.435  0.132-  40 2.33  71 2.42  65 2.45  76 2.49  41 2.49  32 2.52  51 2.58  50 2.58
                            42 2.65  21 2.66  70 2.85  54 2.98
  70  0.111  0.187  0.135-  45 2.41  31 2.50  23 2.59  24 2.60  21 2.60  65 2.62  40 2.64  41 2.67
                            55 2.67  38 2.85  69 2.85  57 2.86
  71  0.764  0.591  0.047-  50 2.37  69 2.42  46 2.45  54 2.46  40 2.54  76 2.65
  72  0.300  0.624  0.056-  47 2.41  58 2.43  73 2.46  74 2.54  46 2.60  56 2.66  35 2.69  36 2.75
                            53 2.80
  73  0.380  0.724  0.134-  46 2.40  53 2.42  72 2.46  54 2.47  26 2.48  38 2.51  78 2.53  79 2.56
                            58 2.56  24 2.68  51 2.79
  74  0.394  0.439  0.138-  47 2.25  68 2.41  56 2.46  26 2.49  37 2.50  72 2.54  51 2.57  64 2.63
                            58 2.68  57 2.84
  75  0.783  0.382  0.318-  65 2.54  67 2.54  15 2.60   9 2.62   7 2.63  32 2.67  29 2.68  44 2.69
                            39 2.73  18 2.83  60 2.87  22 2.95
  76  0.767  0.354  0.047-  41 2.41  40 2.41  51 2.42  69 2.49  56 2.59  62 2.62  71 2.65  23 2.81
                            46 2.82
  77  0.944  0.068  0.223-  41 2.39  66 2.46  60 2.48  22 2.51   2 2.55  65 2.55  24 2.57  67 2.58
                            59 2.89  55 3.03
  78  0.463  0.794  0.228-  61 2.43  38 2.52  79 2.52  55 2.53  73 2.53  54 2.54  52 2.54  80 2.57
                            49 2.59  44 2.64  32 2.67  26 2.74
  79  0.236  0.798  0.232-  52 2.38  58 2.43  55 2.46  24 2.49   2 2.51  78 2.52  30 2.52  26 2.55
                            73 2.56
  80  0.455  0.026  0.224-  48 2.44  38 2.45  55 2.51  19 2.52  61 2.55  78 2.57  43 2.62  57 2.65
                            49 2.80  68 2.80  31 2.85  59 2.85
  81  0.133  0.830  0.458-   6 1.72  16 1.84
 
  LATTYP: Found a hexagonal cell.
 ALAT       =    11.2227001190
 C/A-ratio  =     1.9603125600
  
  Lattice vectors:
  
 A1 = (   5.6113500595,  -9.7191434021,   0.0000000000)
 A2 = ( -11.2227001190,   0.0000000000,   0.0000000000)
 A3 = (   0.0000000000,   0.0000000000, -22.0000000000)


Analysis of symmetry for initial positions (statically):
=====================================================================
 Subroutine PRICEL returns:
 Original cell was already a primitive cell.
 

 Routine SETGRP: Setting up the symmetry group for a 
 hexagonal supercell.


 Subroutine GETGRP returns: Found  1 space group operations
 (whereof  1 operations were pure point group operations)
 out of a pool of 24 trial point group operations.


The static configuration has the point symmetry C_1 .


Analysis of symmetry for dynamics (positions and initial velocities):
=====================================================================
 Subroutine PRICEL returns:
 Original cell was already a primitive cell.
 

 Routine SETGRP: Setting up the symmetry group for a 
 hexagonal supercell.


 Subroutine GETGRP returns: Found  1 space group operations
 (whereof  1 operations were pure point group operations)
 out of a pool of 24 trial point group operations.


The dynamic configuration has the point symmetry C_1 .


Analysis of constrained symmetry for selective dynamics:
=====================================================================
 Subroutine PRICEL returns:
 Original cell was already a primitive cell.
 

 Routine SETGRP: Setting up the symmetry group for a 
 hexagonal supercell.


 Subroutine GETGRP returns: Found  1 space group operations
 (whereof  1 operations were pure point group operations)
 out of a pool of 24 trial point group operations.


The constrained configuration has the point symmetry C_1 .


Analysis of structural, dynamic, and magnetic symmetry:
=====================================================================
 Subroutine PRICEL returns:
 Original cell was already a primitive cell.
 

 Routine SETGRP: Setting up the symmetry group for a 
 hexagonal supercell.


 Subroutine GETGRP returns: Found  1 space group operations
 (whereof  1 operations were pure point group operations)
 out of a pool of 24 trial point group operations.


The magnetic configuration has the point symmetry C_1 .


 Subroutine INISYM returns: Found  1 space group operations
 (whereof  1 operations are pure point group operations),
 and found     1 'primitive' translations

 
 
 KPOINTS: mesh auto                               

Automatic generation of k-mesh.
Space group operators:
 irot       det(A)        alpha          n_x          n_y          n_z        tau_x        tau_y        tau_z
    1     1.000000     0.000000     1.000000     0.000000     0.000000     0.000000     0.000000     0.000000
 
 Subroutine IBZKPT returns following result:
 ===========================================
 
 Found      4 irreducible k-points:
 
 Following reciprocal coordinates:
            Coordinates               Weight
  0.000000  0.000000  0.000000      1.000000
  0.500000  0.000000  0.000000      1.000000
  0.000000  0.500000  0.000000      1.000000
  0.500000  0.500000  0.000000      1.000000
 
 Following cartesian coordinates:
            Coordinates               Weight
  0.000000  0.000000  0.000000      1.000000
  0.044553 -0.025722  0.000000      1.000000
  0.000000  0.051445  0.000000      1.000000
  0.044553  0.025722  0.000000      1.000000
 


--------------------------------------------------------------------------------------------------------




 Dimension of arrays:
   k-points           NKPTS =      4   k-points in BZ     NKDIM =      4   number of bands    NBANDS=    588
   number of dos      NEDOS =    301   number of ions     NIONS =     81
   non local maximal  LDIM  =      6   non local SUM 2l+1 LMDIM =     18
   total plane-waves  NPLWV = ******
   max r-space proj   IRMAX =   7929   max aug-charges    IRDMAX=  34542
   dimension x,y,z NGX =    90 NGY =   90 NGZ =  168
   dimension x,y,z NGXF=   180 NGYF=  180 NGZF=  336
   support grid    NGXF=   180 NGYF=  180 NGZF=  336
   ions per type =              32  13  10  13  12   1
   NGX,Y,Z   is equivalent  to a cutoff of  13.33, 13.33, 12.70 a.u.
   NGXF,Y,Z  is equivalent  to a cutoff of  26.66, 26.66, 25.39 a.u.

 SYSTEM =  Pt111                                   
 POSCAR =  11.26                                   

 Startparameter for this run:
   NWRITE =      2    write-flag & timer
   PREC   = accura    normal or accurate (medium, high low for compatibility)
   ISTART =      0    job   : 0-new  1-cont  2-samecut
   ICHARG =      2    charge: 1-file 2-atom 10-const
   ISPIN  =      2    spin polarized calculation?
   LNONCOLLINEAR =      F non collinear calculations
   LSORBIT =      F    spin-orbit coupling
   INIWAV =      1    electr: 0-lowe 1-rand  2-diag
   LASPH  =      F    aspherical Exc in radial PAW
   METAGGA=      F    non-selfconsistent MetaGGA calc.

 Electronic Relaxation 1
   ENCUT  =  550.0 eV  40.42 Ry    6.36 a.u.  21.46 21.46 42.07*2*pi/ulx,y,z
   ENINI  =  550.0     initial cutoff
   ENAUG  =  587.0 eV  augmentation charge cutoff
   NELM   =    200;   NELMIN=  2; NELMDL= -5     # of ELM steps 
   EDIFF  = 0.1E-04   stopping-criterion for ELM
   LREAL  =      T    real-space projection
   NLSPLINE    = F    spline interpolate recip. space projectors
   LCOMPAT=      F    compatible to vasp.4.4
   GGA_COMPAT  = T    GGA compatible to vasp.4.4-vasp.4.6
   LMAXPAW     = -100 max onsite density
   LMAXMIX     =    2 max onsite mixed and CHGCAR
   VOSKOWN=      0    Vosko Wilk Nusair interpolation
   ROPT   =   -0.00025  -0.00025  -0.00025  -0.00025
   ROPT   =   -0.00025  -0.00025
 Ionic relaxation
   EDIFFG = -.5E-01   stopping-criterion for IOM
   NSW    =    300    number of steps for IOM
   NBLOCK =      1;   KBLOCK =    300    inner block; outer block 
   IBRION =      2    ionic relax: 0-MD 1-quasi-New 2-CG
   NFREE  =      1    steps in history (QN), initial steepest desc. (CG)
   ISIF   =      2    stress and relaxation
   IWAVPR =     11    prediction:  0-non 1-charg 2-wave 3-comb
   ISYM   =      2    0-nonsym 1-usesym 2-fastsym
   LCORR  =      T    Harris-Foulkes like correction to forces

   POTIM  = 0.5000    time-step for ionic-motion
   TEIN   =    0.0    initial temperature
   TEBEG  =    0.0;   TEEND  =   0.0 temperature during run
   SMASS  =  -3.00    Nose mass-parameter (am)
   estimated Nose-frequenzy (Omega)   =  0.10E-29 period in steps =****** mass=  -0.288E-26a.u.
   SCALEE = 1.0000    scale energy and forces
   NPACO  =    256;   APACO  = 16.0  distance and # of slots for P.C.
   PSTRESS=    0.0 pullay stress

  Mass of Ions in am
   POMASS = 195.08 55.85 58.93 63.55 58.69  1.00
  Ionic Valenz
   ZVAL   =  10.00  8.00  9.00 11.00 10.00  1.00
  Atomic Wigner-Seitz radii
   RWIGS  =  -1.00 -1.00 -1.00 -1.00 -1.00 -1.00
  virtual crystal weights 
   VCA    =   1.00  1.00  1.00  1.00  1.00  1.00
   NELECT =     778.0000    total number of electrons
   NUPDOWN=      -1.0000    fix difference up-down

 DOS related values:
   EMIN   =  10.00;   EMAX   =-10.00  energy-range for DOS
   EFERMI =   0.00
   ISMEAR =     1;   SIGMA  =   0.10  broadening in eV -4-tet -1-fermi 0-gaus

 Electronic relaxation 2 (details)
   IALGO  =     68    algorithm
   LDIAG  =      T    sub-space diagonalisation (order eigenvalues)
   LSUBROT=      F    optimize rotation matrix (better conditioning)
   TURBO    =      0    0=normal 1=particle mesh
   IRESTART =      0    0=no restart 2=restart with 2 vectors
   NREBOOT  =      0    no. of reboots
   NMIN     =      0    reboot dimension
   EREF     =   0.00    reference energy to select bands
   IMIX   =      4    mixing-type and parameters
     AMIX     =   0.40;   BMIX     =  1.00
     AMIX_MAG =   1.60;   BMIX_MAG =  1.00
     AMIN     =   0.10
     WC   =   100.;   INIMIX=   1;  MIXPRE=   1;  MAXMIX= -45

 Intra band minimization:
   WEIMIN = 0.0010     energy-eigenvalue tresh-hold
   EBREAK =  0.43E-08  absolut break condition
   DEPER  =   0.30     relativ break condition  

   TIME   =   0.40     timestep for ELM

  volume/ion in A,a.u.               =      29.63       199.92
  Fermi-wavevector in a.u.,A,eV,Ry     =   1.124653  2.125287 17.209264  1.264845
  Thomas-Fermi vector in A             =   2.261326
 
 Write flags
   LWAVE        =      F    write WAVECAR
   LDOWNSAMPLE  =      F    k-point downsampling of WAVECAR
   LCHARG       =      F    write CHGCAR
   LVTOT        =      F    write LOCPOT, total local potential
   LVHAR        =      F    write LOCPOT, Hartree potential only
   LELF         =      F    write electronic localiz. function (ELF)
   LORBIT       =      0    0 simple, 1 ext, 2 COOP (PROOUT), +10 PAW based schemes


 Dipole corrections
   LMONO  =      F    monopole corrections only (constant potential shift)
   LDIPOL =      F    correct potential (dipole corrections)
   IDIPOL =      0    1-x, 2-y, 3-z, 4-all directions 
   EPSILON=  1.0000000 bulk dielectric constant

 Exchange correlation treatment:
   GGA     =    --    GGA type
   LEXCH   =     8    internal setting for exchange type
   VOSKOWN=      0    Vosko Wilk Nusair interpolation
   LHFCALC =     F    Hartree Fock is set to
   LHFONE  =     F    Hartree Fock one center treatment
   AEXX    =    0.0000 exact exchange contribution

 Linear response parameters
   LEPSILON=     F    determine dielectric tensor
   LRPA    =     F    only Hartree local field effects (RPA)
   LNABLA  =     F    use nabla operator in PAW spheres
   LVEL    =     F    velocity operator in full k-point grid
   LINTERFAST=   F  fast interpolation
   KINTER  =     0    interpolate to denser k-point grid
   CSHIFT  =0.1000    complex shift for real part using Kramers Kronig
   OMEGAMAX=  -1.0    maximum frequency
   DEG_THRESHOLD= 0.2000000E-02 threshold for treating states as degnerate
   RTIME   =   -0.100 relaxation time in fs
  (WPLASMAI=    0.000 imaginary part of plasma frequency in eV, 0.658/RTIME)
   DFIELD  = 0.0000000 0.0000000 0.0000000 field for delta impulse in time
 
 Orbital magnetization related:
   ORBITALMAG=     F  switch on orbital magnetization
   LCHIMAG   =     F  perturbation theory with respect to B field
   DQ        =  0.001000  dq finite difference perturbation B field
   LLRAUG    =     F  two centre corrections for induced B field



--------------------------------------------------------------------------------------------------------


 conjugate gradient relaxation of ions
   using selective dynamics as specified on POSCAR
   WARNING: If single coordinates had been selected the selection of coordinates
            is made according to the corresponding   d i r e c t   coordinates!
            Don't support selection of single cartesian coordinates -- sorry ...
  !
 charge density and potential will be updated during run
 spin polarized calculation
 RMM-DIIS sequential band-by-band and
  variant of blocked Davidson during initial phase
 perform sub-space diagonalisation
    before iterative eigenvector-optimisation
 modified Broyden-mixing scheme, WC =      100.0
 initial mixing is a Kerker type mixing with AMIX =  0.4000 and BMIX =      1.0000
 Hartree-type preconditioning will be used
 using additional bands          199
 real space projection scheme for non local part
 use partial core corrections
 calculate Harris-corrections to forces 
   (improved forces if not selfconsistent)
 use gradient corrections 
 use of overlap-Matrix (Vanderbilt PP)
 Methfessel and Paxton  Order N= 1 SIGMA  =   0.10


--------------------------------------------------------------------------------------------------------


  energy-cutoff  :      550.00
  volume of cell :     2399.65
      direct lattice vectors                 reciprocal lattice vectors
    11.222700119  0.000000000  0.000000000     0.089105116 -0.051444863  0.000000000
     5.611350060  9.719143402  0.000000000     0.000000000  0.102889726  0.000000000
     0.000000000  0.000000000 22.000000000     0.000000000  0.000000000  0.045454545

  length of vectors
    11.222700119 11.222700119 22.000000000     0.102889726  0.102889726  0.045454545


 
 k-points in units of 2pi/SCALE and weight: mesh auto                               
   0.00000000  0.00000000  0.00000000       0.250
   0.04455256 -0.02572243  0.00000000       0.250
   0.00000000  0.05144486  0.00000000       0.250
   0.04455256  0.02572243  0.00000000       0.250
 
 k-points in reciprocal lattice and weights: mesh auto                               
   0.00000000  0.00000000  0.00000000       0.250
   0.50000000  0.00000000  0.00000000       0.250
   0.00000000  0.50000000  0.00000000       0.250
   0.50000000  0.50000000  0.00000000       0.250
 
 position of ions in fractional coordinates (direct lattice) 
   0.78227325  0.87164116  0.30470289
   0.03227993  0.87136042  0.29973651
   0.27728001  0.36244394  0.31429590
   0.87058824  0.95756222  0.40559131
   0.10866189  0.46386943  0.41291611
   0.12177569  0.94842861  0.40600492
   0.87191031  0.44768891  0.41583023
   0.37171145  0.95211233  0.41460972
   0.87009840  0.20396544  0.40697379
   0.12562463  0.20717991  0.41309946
   0.62510669  0.94978139  0.41159550
   0.86863929  0.70801062  0.41239574
   0.37634462  0.19571128  0.41533570
   0.36891433  0.70530436  0.40727027
   0.62108692  0.45400327  0.41162629
   0.11617468  0.70526882  0.40992958
   0.62268934  0.20393093  0.40974855
   0.53608260  0.37235980  0.31007092
   0.53152314  0.11675657  0.31138000
   0.55692262  0.10867087  0.05929620
   0.09307450  0.42598565  0.12293655
   0.05071767  0.12533338  0.31067264
   0.02354762  0.11168372  0.04155547
   0.12934290  0.94753793  0.14102189
   0.36680313  0.45338433  0.41195494
   0.44637331  0.55905996  0.22016864
   0.61717511  0.70241869  0.41278995
   0.94964130  0.75661422  0.20918095
   0.79444491  0.61476973  0.31565961
   0.27066468  0.61695295  0.30857387
   0.18916729  0.26577042  0.22500552
   0.69331571  0.54941703  0.22131212
   0.03179695  0.62579508  0.31392886
   0.79089767  0.86073985  0.06435510
   0.04977444  0.85151792  0.05631440
   0.04826920  0.64045736  0.06647525
   0.62777074  0.23120905  0.13428462
   0.37821722  0.94839968  0.13570486
   0.02892206  0.37679023  0.31950175
   0.98045914  0.35575072  0.04365247
   0.86400499  0.20769280  0.13403509
   0.94513991  0.52665350  0.22111509
   0.29780368  0.10840289  0.32007059
   0.53905385  0.61675846  0.31857589
   0.27311239  0.09854881  0.05169877
   0.53344737  0.62035913  0.04989301
   0.27709958  0.42151638  0.05873407
   0.62105549  0.92704305  0.14079463
   0.70256414  0.77474047  0.22043961
   0.84112258  0.67046951  0.13000222
   0.61054862  0.46109348  0.13099914
   0.29967937  0.88169850  0.31782812
   0.29403624  0.87607977  0.04755154
   0.60419350  0.71580297  0.13078218
   0.23607313  0.01744661  0.22801544
   0.52427450  0.37929122  0.04256148
   0.35517448  0.20764286  0.13362546
   0.17310396  0.69108932  0.15152403
   0.69239094  0.05686880  0.21913015
   0.78442321  0.12600490  0.31060201
   0.53959270  0.86806835  0.31598229
   0.78831858  0.11030536  0.04466843
   0.53349640  0.87793834  0.04447670
   0.19566736  0.50762622  0.21805632
   0.93892711  0.29758564  0.22543502
   0.86994429  0.97289395  0.14053585
   0.71226583  0.29537725  0.22570431
   0.45081333  0.27787635  0.22064287
   0.85205380  0.43519614  0.13248332
   0.11139628  0.18699688  0.13457379
   0.76443045  0.59137860  0.04711528
   0.29982353  0.62410945  0.05627082
   0.38008827  0.72390987  0.13437281
   0.39368214  0.43926066  0.13808739
   0.78291185  0.38225598  0.31778050
   0.76664133  0.35423705  0.04671393
   0.94422288  0.06776962  0.22339891
   0.46282378  0.79411299  0.22762031
   0.23638717  0.79795330  0.23161990
   0.45533617  0.02622849  0.22369377
   0.13308672  0.82962682  0.45825810
 
 position of ions in cartesian coordinates  (Angst):
  13.67030183  8.47160546  6.70346348
   5.25177627  8.46887688  6.59420312
   5.14563025  3.52264460  6.91450981
  15.14356757  9.30668449  8.92300873
   3.82241354  4.50841352  9.08415442
   6.68861703  9.21791370  8.93210833
  12.29732718  4.35115272  9.14826516
   9.51424168  9.25371630  9.12141387
  10.90937488  1.98236935  8.95342334
   2.57240651  2.01361126  9.08818806
  12.34494077  9.23106149  9.05510091
  13.72137366  6.88125672  9.07270633
   5.32180739  1.90214603  9.13738550
   8.09792459  6.85495418  8.95994605
   9.51784356  4.41252292  9.05577839
   5.26130381  6.85460885  9.01845076
   8.13258359  1.98203399  9.01446800
   8.10573545  3.61901827  6.82156025
   6.62028681  1.13477385  6.85035998
   6.85996581  1.05618773  1.30451636
   3.43490181  4.14021561  2.70460400
   1.27247863  1.21813307  6.83479811
   0.89096431  1.08547011  0.91422026
   6.76854352  9.20925697  3.10248152
   6.66061971  4.40650733  9.06300864
   8.14659498  5.43358394  4.84371012
  10.86788838  6.82690799  9.08137883
  14.90316679  7.35364214  4.60198092
  12.36550522  5.97503520  6.94451149
   6.49952746  5.99625415  6.78862514
   3.61429860  2.58306084  4.95012137
  10.86384554  5.33986286  4.86886670
   3.86840286  6.08219209  6.90643485
  13.70591998  8.36565399  1.41581219
   5.33676874  8.27602479  1.23891672
   4.13554117  6.22469690  1.46245553
   8.34267765  2.24715390  2.95426165
   9.56642101  9.21763246  2.98550702
   2.43888550  3.66207833  7.02903845
  12.99964072  3.45759222  0.96035424
  10.86190596  2.01859611  2.94877201
  13.56225892  5.11862090  4.86453198
   3.95044794  1.05358322  7.04155298
   9.51048736  5.99436393  7.00866963
   3.61805025  0.95780999  1.13737292
   9.46777205  6.02935935  1.09764617
   5.47508143  4.09677819  1.29214950
  12.17188259  9.01006439  3.09748181
  12.23200665  7.52981374  4.84967140
  13.20190561  6.51638927  2.86004892
   9.43936095  4.48143362  2.88198110
   8.31073063  8.56935413  6.99221864
   8.21587077  8.51474490  1.04613384
  10.79730350  6.95699172  2.87720796
   2.74727701  0.16956608  5.01633965
   8.01211124  3.68638574  0.93635256
   5.15117345  2.01811075  2.93976007
   5.82063796  6.71679623  3.33352866
   8.08960660  0.55271604  4.82086337
   9.51040407  1.22465972  6.83324412
  10.92672237  8.43688074  6.95161048
   9.46602504  1.07207359  0.98270539
  10.91368944  8.53280861  0.97848749
   5.04438452  4.93369204  4.79723900
  12.20715453  2.89227750  4.95957041
  15.22237238  9.45569577  3.09178877
   9.65101098  2.87081385  4.96549483
   6.61860428  2.70072011  4.85414311
  12.00438214  4.22973372  2.91463294
   2.29947203  1.81744949  2.96062332
  11.89740601  5.74769339  1.03653615
   6.86692611  6.06580922  1.23795794
   8.32772832  7.03578381  2.95620177
   6.88302189  4.26923733  3.03792250
  10.93135701  3.71520072  6.99117111
  10.59153387  3.44288072  1.02770640
  10.97700931  0.65866264  4.91477592
   9.65017844  7.71809802  5.00764693
   7.13049760  7.75542255  5.09563785
   5.25727851  0.25491847  4.92126292
   6.14891878  8.06326200 10.08167827
 


--------------------------------------------------------------------------------------------------------


 k-point  1 :   0.0000 0.0000 0.0000  plane waves:   70321
 k-point  2 :   0.5000 0.0000 0.0000  plane waves:   70264
 k-point  3 :   0.0000 0.5000 0.0000  plane waves:   70264
 k-point  4 :   0.5000 0.5000 0.0000  plane waves:   70264

 maximum and minimum number of plane-waves per node :     17611    17530

 maximum number of plane-waves:     70321
 maximum index in each direction: 
   IXMAX=   21   IYMAX=   21   IZMAX=   42
   IXMIN=  -21   IYMIN=  -21   IZMIN=  -42


 real space projection operators:
  total allocation   :      79080.48 KBytes
  max/ min on nodes  :      20231.95      19315.63


 parallel 3D FFT for wavefunctions:
    minimum data exchange during FFTs selected (reduces bandwidth)
 parallel 3D FFT for charge:
    minimum data exchange during FFTs selected (reduces bandwidth)


 total amount of memory used by VASP MPI-rank0   252379. kBytes
=======================================================================

   base      :      30000. kBytes
   nonlr-proj:      35790. kBytes
   fftplans  :      18297. kBytes
   grid      :      55120. kBytes
   one-center:        653. kBytes
   wavefun   :     112519. kBytes
 
     INWAV:  cpu time    0.0000: real time    0.0000
 Broyden mixing: mesh for mixing (old mesh)
   NGX = 43   NGY = 43   NGZ = 85
  (NGX  =180   NGY  =180   NGZ  =336)
  gives a total of 157165 points

 initial charge density was supplied:
 charge density of overlapping atoms calculated
 number of electron     778.0000000 magnetization     231.0000000
 keeping initial charge density in first step


--------------------------------------------------------------------------------------------------------


 Maximum index for non-local projection operator         2119
 Maximum index for augmentation-charges         1123 (set IRDMAX)


--------------------------------------------------------------------------------------------------------


 First call to EWALD:  gamma=   0.132
 Maximum number of real-space cells 4x 4x 2
 Maximum number of reciprocal cells 2x 2x 4

    FEWALD:  cpu time    0.0041: real time    0.0041


--------------------------------------- Iteration      1(   1)  ---------------------------------------


    POTLOK:  cpu time    0.4356: real time    0.5003
    SETDIJ:  cpu time    0.0315: real time    0.0316
     EDDAV:  cpu time   67.0445: real time   67.3633
       DOS:  cpu time    0.0036: real time    0.1125
    --------------------------------------------
      LOOP:  cpu time   67.5155: real time   68.0081

 eigenvalue-minimisations  :  9408
 total energy-change (2. order) : 0.7539685E+04  (-0.3282376E+05)
 number of electron     778.0000000 magnetization     231.0000000
 augmentation part      778.0000000 magnetization     231.0000000

 Free energy of the ion-electron system (eV)
  ---------------------------------------------------
  alpha Z        PSCENC =      1982.35054298
  Ewald energy   TEWEN  =    223361.52563570
  -Hartree energ DENC   =   -294820.18657275
  -exchange      EXHF   =         0.00000000
  -V(xc)+E(xc)   XCENC  =      1372.86478045
  PAW double counting   =     64136.80006862   -66038.70876209
  entropy T*S    EENTRO =        -0.00297623
  eigenvalues    EBANDS =      7326.38811289
  atomic energy  EATOM  =     70218.65458108
  Solvation  Ediel_sol  =         0.00000000
  ---------------------------------------------------
  free energy    TOTEN  =      7539.68541065 eV

  energy without entropy =     7539.68838687  energy(sigma->0) =     7539.68640272


--------------------------------------------------------------------------------------------------------




--------------------------------------- Iteration      1(   2)  ---------------------------------------


     EDDAV:  cpu time   66.8573: real time   67.0990
       DOS:  cpu time    0.0023: real time    0.0214
    --------------------------------------------
      LOOP:  cpu time   66.8596: real time   67.1204

 eigenvalue-minimisations  :  9408
 total energy-change (2. order) :-0.6806055E+04  (-0.6111990E+04)
 number of electron     778.0000000 magnetization     231.0000000
 augmentation part      778.0000000 magnetization     231.0000000

 Free energy of the ion-electron system (eV)
  ---------------------------------------------------
  alpha Z        PSCENC =      1982.35054298
  Ewald energy   TEWEN  =    223361.52563570
  -Hartree energ DENC   =   -294820.18657275
  -exchange      EXHF   =         0.00000000
  -V(xc)+E(xc)   XCENC  =      1372.86478045
  PAW double counting   =     64136.80006862   -66038.70876209
  entropy T*S    EENTRO =         0.00627828
  eigenvalues    EBANDS =       520.32383472
  atomic energy  EATOM  =     70218.65458108
  Solvation  Ediel_sol  =         0.00000000
  ---------------------------------------------------
  free energy    TOTEN  =       733.63038699 eV

  energy without entropy =      733.62410871  energy(sigma->0) =      733.62829423


--------------------------------------------------------------------------------------------------------




--------------------------------------- Iteration      1(   3)  ---------------------------------------


     EDDAV:  cpu time   66.6666: real time   67.0235
       DOS:  cpu time    0.0029: real time    0.0039
    --------------------------------------------
      LOOP:  cpu time   66.6694: real time   67.0274

 eigenvalue-minimisations  :  9408
 total energy-change (2. order) :-0.1109905E+04  (-0.9011689E+03)
 number of electron     778.0000000 magnetization     231.0000000
 augmentation part      778.0000000 magnetization     231.0000000

 Free energy of the ion-electron system (eV)
  ---------------------------------------------------
  alpha Z        PSCENC =      1982.35054298
  Ewald energy   TEWEN  =    223361.52563570
  -Hartree energ DENC   =   -294820.18657275
  -exchange      EXHF   =         0.00000000
  -V(xc)+E(xc)   XCENC  =      1372.86478045
  PAW double counting   =     64136.80006862   -66038.70876209
  entropy T*S    EENTRO =         0.00552507
  eigenvalues    EBANDS =      -589.58021204
  atomic energy  EATOM  =     70218.65458108
  Solvation  Ediel_sol  =         0.00000000
  ---------------------------------------------------
  free energy    TOTEN  =      -376.27441298 eV

  energy without entropy =     -376.27993805  energy(sigma->0) =     -376.27625467


--------------------------------------------------------------------------------------------------------




--------------------------------------- Iteration      1(   4)  ---------------------------------------


     EDDAV:  cpu time   80.7337: real time   81.0056
       DOS:  cpu time    0.0029: real time    0.0037
    --------------------------------------------
      LOOP:  cpu time   80.7366: real time   81.0093

 eigenvalue-minimisations  : 11988
 total energy-change (2. order) :-0.1100978E+03  (-0.1001846E+03)
 number of electron     778.0000000 magnetization     231.0000000
 augmentation part      778.0000000 magnetization     231.0000000

 Free energy of the ion-electron system (eV)
  ---------------------------------------------------
  alpha Z        PSCENC =      1982.35054298
  Ewald energy   TEWEN  =    223361.52563570
  -Hartree energ DENC   =   -294820.18657275
  -exchange      EXHF   =         0.00000000
  -V(xc)+E(xc)   XCENC  =      1372.86478045
  PAW double counting   =     64136.80006862   -66038.70876209
  entropy T*S    EENTRO =         0.00551473
  eigenvalues    EBANDS =      -699.67802005
  atomic energy  EATOM  =     70218.65458108
  Solvation  Ediel_sol  =         0.00000000
  ---------------------------------------------------
  free energy    TOTEN  =      -486.37223133 eV

  energy without entropy =     -486.37774606  energy(sigma->0) =     -486.37406957


--------------------------------------------------------------------------------------------------------




--------------------------------------- Iteration      1(   5)  ---------------------------------------


     EDDAV:  cpu time   76.8109: real time   77.0978
       DOS:  cpu time    0.0049: real time    0.0473
    CHARGE:  cpu time    4.3771: real time    4.3898
    MIXING:  cpu time    0.0121: real time    0.0122
    --------------------------------------------
      LOOP:  cpu time   81.2050: real time   81.5471

 eigenvalue-minimisations  : 11220
 total energy-change (2. order) :-0.4250758E+01  (-0.4212190E+01)
 number of electron     778.0000024 magnetization     216.6897417
 augmentation part      335.8506299 magnetization     183.4618437

 Broyden mixing:
  rms(total) = 0.11131E+02    rms(broyden)= 0.11131E+02
  rms(prec ) = 0.11521E+02
  weight for this iteration     100.00

 Free energy of the ion-electron system (eV)
  ---------------------------------------------------
  alpha Z        PSCENC =      1982.35054298
  Ewald energy   TEWEN  =    223361.52563570
  -Hartree energ DENC   =   -294820.18657275
  -exchange      EXHF   =         0.00000000
  -V(xc)+E(xc)   XCENC  =      1372.86478045
  PAW double counting   =     64136.80006862   -66038.70876209
  entropy T*S    EENTRO =         0.00318608
  eigenvalues    EBANDS =      -703.92644921
  atomic energy  EATOM  =     70218.65458108
  Solvation  Ediel_sol  =         0.00000000
  ---------------------------------------------------
  free energy    TOTEN  =      -490.62298915 eV

  energy without entropy =     -490.62617522  energy(sigma->0) =     -490.62405117


--------------------------------------------------------------------------------------------------------




--------------------------------------- Iteration      1(   6)  ---------------------------------------


    POTLOK:  cpu time    0.4200: real time    0.4308
    SETDIJ:  cpu time    0.0331: real time    0.0332
    EDDIAG:  cpu time   12.0536: real time   12.0885
  RMM-DIIS:  cpu time   43.0827: real time   43.2201
    ORTHCH:  cpu time    1.3637: real time    1.3708
       DOS:  cpu time    0.0024: real time    0.0024
    CHARGE:  cpu time    4.3471: real time    4.3600
    MIXING:  cpu time    0.0126: real time    0.0132
    --------------------------------------------
      LOOP:  cpu time   61.3151: real time   61.5189

 eigenvalue-minimisations  :  9690
 total energy-change (2. order) :-0.2577447E+03  (-0.1035670E+03)
 number of electron     778.0000027 magnetization     213.1787630
 augmentation part      407.6483673 magnetization     177.8217515

 Broyden mixing:
  rms(total) = 0.21409E+02    rms(broyden)= 0.21409E+02
  rms(prec ) = 0.28139E+02
  weight for this iteration     100.00

 eigenvalues of (default mixing * dielectric matrix)
  average eigenvalue GAMMA=   0.1869
  0.1869

 Free energy of the ion-electron system (eV)
  ---------------------------------------------------
  alpha Z        PSCENC =      1982.35054298
  Ewald energy   TEWEN  =    223361.52563570
  -Hartree energ DENC   =   -293224.57146170
  -exchange      EXHF   =         0.00000000
  -V(xc)+E(xc)   XCENC  =      1332.46416802
  PAW double counting   =     68354.86578706   -70031.36632738
  entropy T*S    EENTRO =        -0.00909544
  eigenvalues    EBANDS =     -2742.28150504
  atomic energy  EATOM  =     70218.65458108
  Solvation  Ediel_sol  =         0.00000000
  ---------------------------------------------------
  free energy    TOTEN  =      -748.36767472 eV

  energy without entropy =     -748.35857928  energy(sigma->0) =     -748.36464291


--------------------------------------------------------------------------------------------------------




--------------------------------------- Iteration      1(   7)  ---------------------------------------


    POTLOK:  cpu time    0.4091: real time    0.4217
    SETDIJ:  cpu time    0.0334: real time    0.0335
    EDDIAG:  cpu time   12.0482: real time   12.0848
  RMM-DIIS:  cpu time   41.9889: real time   42.1242
    ORTHCH:  cpu time    1.3519: real time    1.3591
       DOS:  cpu time    0.0026: real time    0.0026
    CHARGE:  cpu time    4.3057: real time    4.3214
    MIXING:  cpu time    0.0128: real time    0.0131
    --------------------------------------------
      LOOP:  cpu time   60.1526: real time   60.3604

 eigenvalue-minimisations  :  9433
 total energy-change (2. order) : 0.2806219E+03  (-0.1594880E+02)
 number of electron     778.0000027 magnetization     208.2775034
 augmentation part      375.4781698 magnetization     164.2364023

 Broyden mixing:
  rms(total) = 0.13548E+02    rms(broyden)= 0.13548E+02
  rms(prec ) = 0.17109E+02
  weight for this iteration     100.00

 eigenvalues of (default mixing * dielectric matrix)
  average eigenvalue GAMMA=   0.2636
  0.3509  0.1763

 Free energy of the ion-electron system (eV)
  ---------------------------------------------------
  alpha Z        PSCENC =      1982.35054298
  Ewald energy   TEWEN  =    223361.52563570
  -Hartree energ DENC   =   -293871.00986767
  -exchange      EXHF   =         0.00000000
  -V(xc)+E(xc)   XCENC  =      1350.77749193
  PAW double counting   =     69261.38091163   -71085.27602091
  entropy T*S    EENTRO =         0.00729666
  eigenvalues    EBANDS =     -1686.15636821
  atomic energy  EATOM  =     70218.65458108
  Solvation  Ediel_sol  =         0.00000000
  ---------------------------------------------------
  free energy    TOTEN  =      -467.74579682 eV

  energy without entropy =     -467.75309348  energy(sigma->0) =     -467.74822904


--------------------------------------------------------------------------------------------------------




--------------------------------------- Iteration      1(   8)  ---------------------------------------


    POTLOK:  cpu time    0.4312: real time    0.4951
    SETDIJ:  cpu time    0.0334: real time    0.0335
    EDDIAG:  cpu time   12.0613: real time   12.0968
  RMM-DIIS:  cpu time   42.0821: real time   42.2052
    ORTHCH:  cpu time    1.3856: real time    1.3919
       DOS:  cpu time    0.0027: real time    0.0027
    CHARGE:  cpu time    4.1978: real time    4.2103
    MIXING:  cpu time    0.0133: real time    0.0135
    --------------------------------------------
      LOOP:  cpu time   60.2074: real time   60.4491

 eigenvalue-minimisations  :  9435
 total energy-change (2. order) : 0.5162616E+01  (-0.1572558E+02)
 number of electron     778.0000028 magnetization     200.9869853
 augmentation part      376.4289058 magnetization     162.5239492

 Broyden mixing:
  rms(total) = 0.15808E+02    rms(broyden)= 0.15808E+02
  rms(prec ) = 0.18373E+02
  weight for this iteration     100.00

 eigenvalues of (default mixing * dielectric matrix)
  average eigenvalue GAMMA=   0.3207
  0.6034  0.2706  0.0880

 Free energy of the ion-electron system (eV)
  ---------------------------------------------------
  alpha Z        PSCENC =      1982.35054298
  Ewald energy   TEWEN  =    223361.52563570
  -Hartree energ DENC   =   -294056.70596355
  -exchange      EXHF   =         0.00000000
  -V(xc)+E(xc)   XCENC  =      1359.87763148
  PAW double counting   =     70419.67733593   -72326.23197420
  entropy T*S    EENTRO =         0.00558569
  eigenvalues    EBANDS =     -1421.73655640
  atomic energy  EATOM  =     70218.65458108
  Solvation  Ediel_sol  =         0.00000000
  ---------------------------------------------------
  free energy    TOTEN  =      -462.58318129 eV

  energy without entropy =     -462.58876698  energy(sigma->0) =     -462.58504319


--------------------------------------------------------------------------------------------------------




--------------------------------------- Iteration      1(   9)  ---------------------------------------


    POTLOK:  cpu time    0.4187: real time    0.4208
    SETDIJ:  cpu time    0.0328: real time    0.0330
    EDDIAG:  cpu time   12.0480: real time   12.0832
  RMM-DIIS:  cpu time   42.1781: real time   42.3012
    ORTHCH:  cpu time    1.3472: real time    1.3567
       DOS:  cpu time    0.0025: real time    0.0026
    CHARGE:  cpu time    4.2785: real time    4.2911
    MIXING:  cpu time    0.0136: real time    0.0138
    --------------------------------------------
      LOOP:  cpu time   60.3194: real time   60.5025

 eigenvalue-minimisations  :  9447
 total energy-change (2. order) : 0.6677347E+02  (-0.1677488E+02)
 number of electron     778.0000023 magnetization     193.8436549
 augmentation part      378.8669207 magnetization     145.3933999

 Broyden mixing:
  rms(total) = 0.13284E+02    rms(broyden)= 0.13283E+02
  rms(prec ) = 0.15050E+02
  weight for this iteration     100.00

 eigenvalues of (default mixing * dielectric matrix)
  average eigenvalue GAMMA=   0.3468
  0.7972  0.3651  0.1123  0.1123

 Free energy of the ion-electron system (eV)
  ---------------------------------------------------
  alpha Z        PSCENC =      1982.35054298
  Ewald energy   TEWEN  =    223361.52563570
  -Hartree energ DENC   =   -293920.24824050
  -exchange      EXHF   =         0.00000000
  -V(xc)+E(xc)   XCENC  =      1377.74717634
  PAW double counting   =     71722.22325599   -73686.58296780
  entropy T*S    EENTRO =         0.00120987
  eigenvalues    EBANDS =     -1451.48090231
  atomic energy  EATOM  =     70218.65458108
  Solvation  Ediel_sol  =         0.00000000
  ---------------------------------------------------
  free energy    TOTEN  =      -395.80970866 eV

  energy without entropy =     -395.81091853  energy(sigma->0) =     -395.81011195


--------------------------------------------------------------------------------------------------------




--------------------------------------- Iteration      1(  10)  ---------------------------------------


    POTLOK:  cpu time    0.4189: real time    0.4211
    SETDIJ:  cpu time    0.0338: real time    0.0339
    EDDIAG:  cpu time   12.0818: real time   12.1164
  RMM-DIIS:  cpu time   42.1748: real time   42.3160
[...]
   -.254E+02 0.545E+02 -.268E+04   0.249E+02 -.537E+02 0.268E+04   0.534E+00 -.822E+00 0.178E+01   0.629E-02 -.877E-02 -.119E-01
   -.360E+02 0.273E+01 -.272E+04   0.351E+02 -.153E+01 0.271E+04   0.951E+00 -.124E+01 0.244E+01   0.283E-02 0.192E-01 -.724E-02
   0.309E+02 0.235E+01 -.268E+04   -.309E+02 -.325E+01 0.268E+04   0.306E-01 0.857E+00 0.713E-01   -.154E-01 0.317E-03 -.154E-01
   -.292E+02 -.155E+02 -.281E+04   0.294E+02 0.144E+02 0.280E+04   -.208E+00 0.105E+01 0.258E+01   0.111E-01 -.151E-02 -.614E-02
   0.311E+02 -.845E+01 -.283E+04   -.311E+02 0.890E+01 0.283E+04   0.181E-01 -.453E+00 0.314E+01   -.282E-02 0.117E-01 -.256E-02
   -.246E+02 0.465E+02 -.275E+04   0.242E+02 -.460E+02 0.275E+04   0.387E+00 -.522E+00 0.214E+01   0.467E-02 -.802E-02 -.790E-02
   0.544E+01 -.311E+01 -.276E+04   -.467E+01 0.347E+01 0.275E+04   -.759E+00 -.376E+00 0.277E+01   0.840E-02 0.740E-02 -.228E-02
   -.494E+02 -.114E+02 -.277E+04   0.495E+02 0.107E+02 0.277E+04   -.212E+00 0.627E+00 0.176E+01   0.215E-01 0.832E-03 0.137E-02
   -.375E+02 -.986E+01 -.272E+04   0.374E+02 0.958E+01 0.272E+04   0.743E-01 0.276E+00 0.211E+01   0.879E-02 0.723E-02 -.783E-02
   -.105E+02 -.562E+02 -.278E+04   0.102E+02 0.554E+02 0.278E+04   0.281E+00 0.901E+00 0.226E+01   0.570E-03 -.220E-02 -.650E-02
   0.700E+02 0.285E+02 -.269E+04   -.680E+02 -.285E+02 0.269E+04   -.204E+01 0.808E-01 0.280E+01   -.164E-01 -.524E-02 0.205E-02
   0.554E+02 -.853E+01 -.278E+04   -.546E+02 0.898E+01 0.278E+04   -.764E+00 -.420E+00 0.248E+01   -.951E-02 -.962E-02 0.916E-03
   -.777E+00 -.539E+01 -.269E+04   0.533E+00 0.453E+01 0.269E+04   0.270E+00 0.869E+00 0.959E+00   -.647E-02 -.133E-02 -.341E-01
   0.299E+02 -.689E+01 -.276E+04   -.296E+02 0.734E+01 0.276E+04   -.254E+00 -.448E+00 0.217E+01   -.264E-02 -.198E-01 -.737E-04
   0.890E+02 -.667E+02 -.140E+04   -.879E+02 0.671E+02 0.140E+04   -.107E+01 -.413E+00 0.158E+01   0.377E-02 -.106E-01 -.108E-01
   -.499E+01 -.401E+02 -.144E+04   0.389E+01 0.397E+02 0.143E+04   0.115E+01 0.430E+00 0.243E+01   -.216E-02 -.918E-03 -.836E-02
   0.995E+02 -.568E+01 0.273E+04   -.981E+02 0.429E+01 -.272E+04   -.155E+01 0.142E+01 -.297E+01   0.155E-01 -.258E-01 0.458E-02
   -.677E+02 -.690E+02 0.176E+04   0.669E+02 0.695E+02 -.176E+04   0.928E+00 -.427E+00 0.155E+01   -.434E-01 0.519E-02 0.201E-01
   -.187E+02 0.263E+02 -.142E+04   0.197E+02 -.265E+02 0.142E+04   -.998E+00 0.270E+00 0.161E+01   -.479E-02 0.876E-02 0.137E-01
   -.678E+02 0.907E+02 0.291E+04   0.684E+02 -.895E+02 -.291E+04   -.491E+00 -.142E+01 -.231E+01   -.690E-02 -.195E-02 0.665E-03
   0.748E+02 -.259E+02 0.142E+04   -.745E+02 0.253E+02 -.142E+04   -.228E+00 0.505E+00 -.794E+00   0.213E-03 0.197E-02 -.327E-01
   0.857E+01 -.203E+02 -.272E+04   -.891E+01 0.198E+02 0.272E+04   0.347E+00 0.478E+00 0.199E+01   -.167E-01 0.822E-02 -.980E-02
   0.584E+02 0.576E+02 -.504E+02   -.581E+02 -.572E+02 0.500E+02   -.557E+00 -.477E+00 0.494E+00   0.256E-01 -.100E-01 -.201E-01
   -.152E+02 0.217E+02 -.279E+04   0.145E+02 -.218E+02 0.279E+04   0.749E+00 0.171E+00 0.246E+01   0.174E-01 0.107E-01 -.329E-03
   -.290E+02 0.978E+01 0.274E+03   0.278E+02 -.116E+02 -.274E+03   0.116E+01 0.174E+01 -.650E+00   -.259E-02 0.686E-02 0.561E-02
   -.848E+02 -.126E+02 -.143E+04   0.856E+02 0.114E+02 0.142E+04   -.733E+00 0.124E+01 0.254E+01   0.617E-02 0.295E-02 -.727E-02
   0.410E+02 0.850E+01 -.137E+04   -.417E+02 -.778E+01 0.137E+04   0.777E+00 -.685E+00 0.176E+01   -.328E-01 -.466E-02 0.139E-01
   -.305E+02 -.783E+02 -.295E+02   0.297E+02 0.779E+02 0.298E+02   0.903E+00 0.374E+00 -.334E+00   -.796E-03 0.275E-02 0.775E-02
   -.350E+02 -.199E+02 -.900E+01   0.355E+02 0.205E+02 0.869E+01   -.459E+00 -.742E+00 0.302E+00   -.108E-01 -.469E-02 -.319E-01
   -.409E+01 -.794E+01 -.108E+04   0.421E+01 0.801E+01 0.108E+04   -.122E+00 -.331E-02 0.271E+00   0.602E-02 0.551E-02 0.293E-02
   -.689E+02 0.805E+02 0.217E+04   0.700E+02 -.807E+02 -.216E+04   -.916E+00 0.568E-01 -.310E+01   -.542E-02 0.728E-03 0.566E-02
   0.794E+02 0.322E+02 0.223E+04   -.797E+02 -.336E+02 -.223E+04   0.354E+00 0.135E+01 -.283E+01   0.453E-02 0.129E-01 -.359E-02
   0.114E+03 0.420E+01 0.212E+04   -.113E+03 -.327E+01 -.211E+04   -.111E+01 -.887E+00 -.203E+01   -.212E-01 0.340E-01 0.181E-02
   0.813E+02 0.914E+02 0.119E+04   -.805E+02 -.906E+02 -.119E+04   -.855E+00 -.869E+00 0.822E-01   0.242E-01 0.556E-02 -.209E-02
   -.805E+01 -.112E+03 0.121E+04   0.816E+01 0.111E+03 -.121E+04   -.183E+00 0.566E+00 -.689E+00   0.712E-02 -.240E-01 -.201E-01
   -.705E+02 -.265E+02 -.117E+04   0.706E+02 0.267E+02 0.117E+04   -.110E+00 -.207E+00 0.581E-01   0.379E-02 0.448E-02 -.101E-02
   -.254E+03 -.242E+02 0.237E+04   0.251E+03 0.238E+02 -.237E+04   0.278E+01 0.430E+00 -.416E+01   -.280E-01 -.479E-02 0.203E-02
   -.322E+02 0.743E+02 0.121E+04   0.314E+02 -.739E+02 -.121E+04   0.840E+00 -.521E+00 -.594E+00   -.778E-02 0.170E-01 -.132E-01
   -.107E+03 -.269E+02 0.269E+02   0.107E+03 0.274E+02 -.266E+02   0.333E+00 -.564E+00 -.352E+00   -.670E-02 0.330E-02 -.155E-02
   0.784E+01 -.943E+02 -.121E+04   -.810E+01 0.942E+02 0.121E+04   0.277E+00 0.113E+00 0.331E+00   0.953E-02 0.124E-01 0.233E-02
   0.444E+02 0.937E+01 -.119E+04   -.445E+02 -.972E+01 0.119E+04   0.116E+00 0.305E+00 -.563E+00   0.364E-02 -.387E-02 -.199E-01
   -.832E+02 -.156E+03 0.229E+04   0.812E+02 0.153E+03 -.229E+04   0.207E+01 0.310E+01 -.374E+01   -.150E-01 -.303E-01 -.283E-02
   0.136E+02 -.515E+02 0.264E+04   -.138E+02 0.518E+02 -.263E+04   0.391E-01 -.212E+00 -.298E+01   0.123E-01 0.254E-02 0.180E-01
   0.233E+03 0.979E+02 0.253E+04   -.232E+03 -.954E+02 -.253E+04   -.653E+00 -.242E+01 -.310E+01   0.190E-02 0.215E-02 -.215E-04
   -.111E+03 -.729E+02 0.129E+04   0.110E+03 0.720E+02 -.129E+04   0.962E+00 0.956E+00 0.824E-01   -.600E-02 -.139E-01 -.881E-02
   -.136E+03 0.132E+02 0.305E+02   0.136E+03 -.133E+02 -.306E+02   -.451E-01 0.494E-02 0.430E-01   -.565E-02 -.621E-03 -.204E-01
   -.211E+03 -.161E+02 0.146E+04   0.211E+03 0.168E+02 -.146E+04   -.340E+00 -.838E+00 0.759E-01   -.197E-01 0.929E-02 -.194E-02
   0.687E+01 -.630E+01 0.131E+04   -.673E+01 0.591E+01 -.131E+04   -.145E+00 0.526E+00 -.403E+00   0.228E-01 0.763E-02 -.142E-01
   0.985E+02 0.402E+02 -.140E+04   -.982E+02 -.398E+02 0.140E+04   -.547E+00 -.351E+00 0.404E+00   0.717E-02 0.155E-02 0.656E-02
   0.773E+02 -.441E+02 0.263E+04   -.768E+02 0.445E+02 -.263E+04   -.650E+00 -.488E+00 -.317E+01   0.869E-02 -.920E-02 -.593E-02
   -.712E+02 -.917E+01 0.138E+04   0.713E+02 0.954E+01 -.138E+04   -.120E+00 -.415E+00 -.461E+00   -.124E-01 -.949E-02 -.129E-01
   0.561E+02 -.990E+02 -.281E+02   -.554E+02 0.986E+02 0.284E+02   -.694E+00 0.408E+00 -.459E+00   0.913E-02 0.894E-02 -.121E-01
   0.131E+03 0.937E+02 0.327E+04   -.131E+03 -.922E+02 -.327E+04   -.344E-01 -.152E+01 -.479E+01   0.791E-01 0.107E-02 0.584E-02
   0.373E+02 -.217E+02 0.179E+04   -.375E+02 0.214E+02 -.179E+04   0.245E+00 0.306E+00 0.478E+00   0.224E-03 -.386E-01 0.235E-01
   0.239E+03 -.355E+02 0.132E+04   -.239E+03 0.360E+02 -.132E+04   0.485E+00 -.470E+00 0.615E+00   -.491E-02 0.195E-01 0.408E-02
   0.293E+02 0.118E+03 0.153E+03   -.299E+02 -.118E+03 -.152E+03   0.644E+00 -.460E+00 -.530E+00   0.192E-02 -.524E-02 -.605E-02
   0.973E+01 0.875E+02 -.158E+04   -.919E+01 -.876E+02 0.158E+04   -.537E+00 0.401E-01 0.454E+00   -.185E-02 -.110E-01 -.578E-02
   -.657E+02 0.322E+02 -.163E+04   0.652E+02 -.318E+02 0.163E+04   0.595E+00 -.299E+00 0.137E+01   0.160E-01 0.729E-02 -.658E-02
   0.662E+02 0.171E+03 0.319E+04   -.659E+02 -.171E+03 -.319E+04   -.358E+00 -.852E-01 -.363E+01   0.121E-01 0.110E-01 0.434E-02
   -.103E+03 -.885E+02 0.324E+04   0.101E+03 0.892E+02 -.324E+04   0.120E+01 -.772E+00 -.450E+01   -.179E-01 -.251E-01 0.152E-01
   0.108E+03 -.338E+02 0.104E+03   -.109E+03 0.338E+02 -.103E+03   0.477E+00 -.287E-01 -.106E+01   -.541E-02 0.862E-02 0.229E-01
   -.152E+03 -.198E+02 -.487E+02   0.151E+03 0.193E+02 0.489E+02   0.613E+00 0.429E+00 -.319E+00   -.159E-01 0.126E-01 -.105E-01
   0.336E+02 0.202E+03 0.156E+04   -.335E+02 -.202E+03 -.156E+04   -.323E-01 -.773E+00 -.116E+01   -.522E-02 0.463E-02 -.873E-02
   0.872E+02 -.528E+02 -.171E+02   -.868E+02 0.515E+02 0.174E+02   -.488E+00 0.138E+01 -.452E+00   0.682E-02 0.126E-01 -.210E-01
   0.552E+02 -.314E+02 0.453E+02   -.546E+02 0.311E+02 -.448E+02   -.668E+00 0.358E+00 -.493E+00   0.919E-02 -.911E-02 0.842E-02
   -.148E+03 -.414E+02 0.148E+04   0.148E+03 0.418E+02 -.148E+04   0.338E+00 -.387E+00 -.646E+00   -.360E-01 0.264E-02 -.671E-02
   -.806E+02 -.125E+02 0.153E+04   0.812E+02 0.122E+02 -.153E+04   -.575E+00 0.346E+00 -.694E+00   -.188E-01 -.386E-03 -.879E-02
   -.234E+03 -.103E+03 0.295E+04   0.233E+03 0.102E+03 -.294E+04   0.115E+01 0.954E+00 -.331E+01   -.333E-01 0.142E-02 0.207E-01
   0.145E+03 -.768E+02 0.285E+04   -.146E+03 0.770E+02 -.285E+04   0.411E+00 -.131E+00 -.817E+00   0.491E-01 0.480E-01 -.450E-02
   0.429E+02 -.262E+02 0.149E+04   -.426E+02 0.262E+02 -.149E+04   -.308E+00 0.400E-01 0.176E+00   0.422E-01 -.286E-02 -.302E-01
   0.124E+03 0.251E+02 0.137E+04   -.123E+03 -.254E+02 -.137E+04   -.962E+00 0.278E+00 -.850E+00   0.579E-01 0.274E-02 0.352E-01
   -.242E+02 -.324E+02 -.151E+04   0.242E+02 0.326E+02 0.151E+04   0.864E-01 -.257E+00 -.212E-01   0.111E-02 -.205E-02 -.198E-01
   -.271E+02 0.264E+02 0.291E+04   0.275E+02 -.257E+02 -.291E+04   -.374E+00 -.617E+00 -.171E+01   -.121E-01 0.939E-02 0.150E-01
   -.389E+02 0.172E+03 0.130E+02   0.392E+02 -.172E+03 -.124E+02   -.250E+00 -.100E+00 -.667E+00   -.154E-01 0.481E-02 -.775E-02
   -.132E+02 0.530E+02 -.854E+02   0.131E+02 -.522E+02 0.854E+02   0.111E+00 -.846E+00 -.689E-01   0.219E-01 -.179E-01 -.327E-01
   0.164E+03 0.186E+01 -.200E+03   -.164E+03 -.113E+01 0.200E+03   -.188E-01 -.707E+00 -.484E+00   -.119E-01 -.106E-01 -.986E-02
   -.438E+02 -.936E+02 0.540E+02   0.433E+02 0.933E+02 -.539E+02   0.409E+00 0.354E+00 -.136E+00   0.126E-01 -.528E-02 -.696E-02
   -.304E+00 0.312E+01 -.324E+03   0.378E+00 -.351E+01 0.326E+03   -.487E-01 0.355E+00 -.175E+01   -.107E-02 -.157E-03 -.551E-03
 -----------------------------------------------------------------------------------------------
   -.340E+01 -.111E+01 0.710E+01   -.843E-13 0.105E-11 -.106E-10   0.333E+01 0.106E+01 -.683E+01   0.662E-01 0.162E-01 -.286E+00
 
 
 POSITION                                       TOTAL-FORCE (eV/Angst)
 -----------------------------------------------------------------------------------
     13.66813      8.47089      6.69624         0.004329     -0.002703      0.008696
      5.24973      8.46725      6.61730         0.004601      0.001055     -0.009941
      5.14603      3.52342      6.90960         0.003881      0.010320      0.002642
     15.09426      9.32098      8.91154        -0.007927      0.004678      0.019769
      3.82553      4.50599      9.07960         0.011272     -0.021657      0.005988
      6.68615      9.27217      8.97728        -0.002162     -0.021490      0.018455
     12.30376      4.35072      9.14871         0.001014     -0.009062     -0.001961
      9.53798      9.25885      9.11918        -0.001736     -0.002549     -0.002751
     10.90373      1.99747      8.95451        -0.002944     -0.011800     -0.000556
      2.56319      2.00757      9.08524        -0.005773     -0.012758     -0.000454
     12.33531      9.22158      9.05411        -0.005722     -0.008788     -0.004464
     13.70582      6.87237      9.07220         0.013219      0.001913      0.004607
      5.31786      1.91149      9.13860        -0.011041      0.006000     -0.001673
      8.12829      6.83238      8.94761        -0.002615      0.009257      0.013978
      9.52992      4.40890      9.05656         0.006331     -0.002927      0.001273
      5.24400      6.81988      9.09396         0.007166     -0.008236     -0.020139
      8.13758      1.99486      9.00996         0.004951      0.003912     -0.004174
      8.10451      3.62837      6.81639        -0.005341      0.003536      0.006209
      6.61645      1.13538      6.85324         0.002490      0.002030     -0.001392
      6.85997      1.05619      1.30452        -0.002542     -0.007241     -0.014571
      3.43490      4.14022      2.70460         0.007213     -0.005413      0.014573
      1.27112      1.20059      6.83444        -0.006999      0.012227     -0.003339
      0.89096      1.08547      0.91422         0.025312      0.018957     -0.007031
      6.76854      9.20926      3.10248         0.029347      0.001029      0.009323
      6.66540      4.38642      9.05958        -0.007866      0.019012      0.002619
      8.14659      5.43358      4.84371        -0.078618      0.025729      0.061449
     10.87511      6.82570      9.08422        -0.009777      0.002364      0.002128
     14.90317      7.35364      4.60198         0.045389     -0.014802     -0.006740
     12.36272      5.96821      6.94137         0.013358     -0.003116      0.001081
      6.48617      6.01237      6.79879         0.012619     -0.008247      0.004868
      3.61430      2.58306      4.95012         0.001207      0.009981     -0.045159
     10.86385      5.33986      4.86887         0.008295     -0.014534     -0.034799
      3.86257      6.07427      6.90139         0.010831      0.006388      0.011901
     13.70592      8.36565      1.41581        -0.010951     -0.002957     -0.008959
      5.33677      8.27602      1.23892        -0.003536     -0.005716     -0.041477
      4.13554      6.22470      1.46246         0.001318      0.011684      0.008989
      8.34268      2.24715      2.95426        -0.008356     -0.001298      0.006725
      9.56642      9.21763      2.98551         0.003546      0.003978      0.002549
      2.44093      3.65771      7.02817        -0.002940     -0.006618      0.004506
     12.99964      3.45759      0.96035        -0.002527      0.003819     -0.010104
     10.86191      2.01860      2.94877         0.006084      0.005311      0.035960
     13.56226      5.11862      4.86453         0.006911      0.014021     -0.005404
      3.94875      1.05342      7.03845         0.001657     -0.011521      0.006785
      9.51582      5.98512      7.00512         0.004188     -0.007166     -0.001514
      3.61805      0.95781      1.13737         0.008924     -0.008726     -0.012953
      9.46777      6.02936      1.09765        -0.019746     -0.007686      0.020243
      5.47508      4.09678      1.29215         0.013464     -0.010674     -0.010452
     12.17188      9.01006      3.09748         0.002953     -0.001798     -0.002644
     12.23201      7.52981      4.84967        -0.010499     -0.027352     -0.010153
     13.20191      6.51639      2.86005         0.018899     -0.007159      0.004889
      9.43936      4.48143      2.88198         0.016399      0.043121     -0.004600
      8.31319      8.56861      7.00463        -0.029553      0.023406     -0.004946
      8.21587      8.51474      1.04613         0.011886     -0.014251      0.017638
     10.79730      6.95699      2.87721        -0.026636     -0.015202     -0.011763
      2.74728      0.16957      5.01634         0.013309     -0.010730     -0.005224
      8.01211      3.68639      0.93635         0.021062      0.012551      0.009352
      5.15117      2.01811      2.93976        -0.000081     -0.004146     -0.001161
      5.82064      6.71680      3.33353         0.001146     -0.000979      0.012820
      8.08961      0.55272      4.82086        -0.015468      0.021959      0.010366
      9.51141      1.22808      6.82797        -0.001665      0.005109      0.012493
     10.92935      8.43275      6.94731        -0.012610     -0.006045     -0.001870
      9.46603      1.07207      0.98271        -0.015170      0.015981     -0.008731
     10.91369      8.53281      0.97849        -0.007672     -0.020023      0.008645
      5.04438      4.93369      4.79724         0.014789      0.026765     -0.003504
     12.20715      2.89228      4.95957        -0.021653      0.014756     -0.036111
     15.22237      9.45570      3.09179        -0.011055      0.000198     -0.001354
      9.65101      2.87081      4.96549         0.004195     -0.006897     -0.009130
      6.61860      2.70072      4.85414         0.018054     -0.010085     -0.001872
     12.00438      4.22973      2.91463        -0.003472      0.005714     -0.031718
      2.29947      1.81745      2.96062         0.005126      0.001028      0.005645
     11.89741      5.74769      1.03654        -0.011179      0.018982     -0.001788
      6.86693      6.06581      1.23796         0.028464     -0.014633      0.005504
      8.32773      7.03578      2.95620         0.020126      0.020001     -0.043035
      6.88302      4.26924      3.03792        -0.008740     -0.010387      0.007566
     10.93816      3.70807      6.98579         0.010513     -0.015466      0.006505
     10.59153      3.44288      1.02771        -0.008286      0.017953      0.000558
     10.97701      0.65866      4.91478        -0.026469     -0.044431     -0.011339
      9.65018      7.71810      5.00765        -0.029046      0.012866      0.015532
      7.13050      7.75542      5.09564        -0.046208      0.042935      0.064743
      5.25728      0.25492      4.92126         0.011445      0.000896     -0.011879
      6.16157      8.04687     10.05570         0.027297     -0.034154     -0.004739
 -----------------------------------------------------------------------------------
    total drift:                                0.000832     -0.032752     -0.013731


--------------------------------------------------------------------------------------------------------



  FREE ENERGIE OF THE ION-ELECTRON SYSTEM (eV)
  ---------------------------------------------------
  free  energy   TOTEN  =      -501.53538730 eV

  energy  without entropy=     -501.55735347  energy(sigma->0) =     -501.54270936
 
 d Force = 0.1368831E-02[ 0.754E-03, 0.198E-02]  d Energy = 0.1306920E-02 0.619E-04
 d Force = 0.2456277E+02[ 0.246E+02, 0.246E+02]  d Ewald  = 0.2456277E+02 0.128E-05


--------------------------------------------------------------------------------------------------------


    POTLOK:  cpu time    0.4457: real time    0.4616


--------------------------------------------------------------------------------------------------------


 Conjugate gradient step on ions:
 trial-energy change:   -0.001307  1 .order   -0.001369   -0.001984   -0.000754
  (g-gl).g = 0.131E-02      g.g   = 0.134E-02  gl.gl    = 0.340E-02
 g(Force)  = 0.134E-02   g(Stress)= 0.000E+00 ortho     =-0.820E-04
 gamma     =   0.38419
 trial     =   1.51269
 opt step  =   2.43959  (harmonic =   2.43959) maximal distance =0.00721379
 next E    =  -501.535680   (d E  =  -0.00160)


--------------------------------------------------------------------------------------------------------


  
 reached required accuracy - stopping structural energy minimisation
     LOOP+:  cpu time  842.4854: real time  846.2846
    4ORBIT:  cpu time    0.0000: real time    0.0000

 total amount of memory used by VASP MPI-rank0   252379. kBytes
=======================================================================

   base      :      30000. kBytes
   nonlr-proj:      35790. kBytes
   fftplans  :      18297. kBytes
   grid      :      55120. kBytes
   one-center:        653. kBytes
   wavefun   :     112519. kBytes
 
  
  
 General timing and accounting informations for this job:
 ========================================================
  
                  Total CPU time used (sec):    11696.963
                            User time (sec):    11386.434
                          System time (sec):      310.529
                         Elapsed time (sec):    11762.415
  
                   Maximum memory used (kb):      412760.
                   Average memory used (kb):           0.
  
                          Minor page faults:     14102429
                          Major page faults:          233
                 Voluntary context switches:         8985
