 vasp.5.4.4.18Apr17-6-g9f103f2a35 (build Oct 25 2019 11:13:22) complex          
  
 executed on             LinuxIFC date 2021.10.16  21:08:19
 running on   48 total cores
 distrk:  each k-point on   48 cores,    1 groups
 distr:  one band on NCORES_PER_BAND=   4 cores,   12 groups


--------------------------------------------------------------------------------------------------------


 INCAR:
 POTCAR:    PAW_PBE Pt 04Feb2005                  
 POTCAR:    PAW_PBE Fe 06Sep2000                  
 POTCAR:    PAW_PBE Co 02Aug2007                  
 POTCAR:    PAW_PBE Cu 22Jun2005                  
 POTCAR:    PAW_PBE Ni 02Aug2007                  
 POTCAR:    PAW_PBE H 15Jun2001                   
 POTCAR:    PAW_PBE Pt 04Feb2005                  
   VRHFIN =Pt: s1d9                                                             
   LEXCH  = PE                                                                  
   EATOM  =   729.1176 eV,   53.5886 Ry                                         
                                                                                
   TITEL  = PAW_PBE Pt 04Feb2005                                                
   LULTRA =        F    use ultrasoft PP ?                                      
   IUNSCR =        1    unscreen: 0-lin 1-nonlin 2-no                           
   RPACOR =    2.330    partial core radius                                     
   POMASS =  195.080; ZVAL   =   10.000    mass and valenz                      
   RCORE  =    2.600    outmost cutoff radius                                   
   RWIGS  =    2.750; RWIGS  =    1.455    wigner-seitz radius (au A)           
   ENMAX  =  230.283; ENMIN  =  172.712 eV                                      
   ICORE  =        3    local potential                                         
   LCOR   =        T    correct aug charges                                     
   LPAW   =        T    paw PP                                                  
   EAUG   =  358.966                                                            
   DEXC   =    0.000                                                            
   RMAX   =    2.658    core radius for proj-oper                               
   RAUG   =    1.300    factor for augmentation sphere                          
   RDEP   =    2.761    radius for radial grids                                 
   RDEPT  =    2.203    core radius for aug-charge                              
                                                                                
   Atomic configuration                                                         
   16 entries                                                                   
     n  l   j            E        occ.                                          
     1  0  0.50    -78401.1885   2.0000                                         
     2  0  0.50    -13770.7750   2.0000                                         
     2  1  1.50    -11931.0468   6.0000                                         
     3  0  0.50     -3234.7234   2.0000                                         
     3  1  1.50     -2699.2216   6.0000                                         
     3  2  2.50     -2119.5714  10.0000                                         
     4  0  0.50      -695.1528   2.0000                                         
     4  1  1.50      -519.6034   6.0000                                         
     4  2  2.50      -306.6786  10.0000                                         
     4  3  3.50       -70.1041  14.0000                                         
     5  0  0.50      -101.7747   2.0000                                         
     5  1  1.50       -55.9873   6.0000                                         
     5  2  2.50        -6.1423   9.0000                                         
     6  0  0.50        -5.6573   1.0000                                         
     6  1  1.50        -6.8029   0.0000                                         
     5  3  2.50        -1.3606   0.0000                                         
   Description                                                                  
     l       E           TYP  RCUT    TYP  RCUT                                 
     2     -6.1423404     23  2.500                                             
     2     -7.5029230     23  2.500                                             
     0     -5.6573207     23  2.500                                             
     0      0.7416693     23  2.500                                             
     1     -2.7211652     23  2.600                                             
     1     20.4087390     23  2.600                                             
     3     -1.3605826     23  2.500                                             
  local pseudopotential read in
  partial core-charges read in
  partial kinetic energy density read in
  atomic valenz-charges read in
  non local Contribution for L=           2  read in
    real space projection operators read in
  non local Contribution for L=           2  read in
    real space projection operators read in
  non local Contribution for L=           0  read in
    real space projection operators read in
  non local Contribution for L=           0  read in
    real space projection operators read in
  non local Contribution for L=           1  read in
    real space projection operators read in
  non local Contribution for L=           1  read in
    real space projection operators read in
    PAW grid and wavefunctions read in
 
   number of l-projection  operators is LMAX  =           6
   number of lm-projection operators is LMMAX =          18
 
 POTCAR:    PAW_PBE Fe 06Sep2000                  
   VRHFIN =Fe:  d7 s1                                                           
   LEXCH  = PE                                                                  
   EATOM  =   594.3153 eV,   43.6809 Ry                                         
                                                                                
   TITEL  = PAW_PBE Fe 06Sep2000                                                
   LULTRA =        F    use ultrasoft PP ?                                      
   IUNSCR =        1    unscreen: 0-lin 1-nonlin 2-no                           
   RPACOR =    2.000    partial core radius                                     
   POMASS =   55.847; ZVAL   =    8.000    mass and valenz                      
   RCORE  =    2.300    outmost cutoff radius                                   
   RWIGS  =    2.460; RWIGS  =    1.302    wigner-seitz radius (au A)           
   ENMAX  =  267.882; ENMIN  =  200.911 eV                                      
   RCLOC  =    1.701    cutoff for local pot                                    
   LCOR   =        T    correct aug charges                                     
   LPAW   =        T    paw PP                                                  
   EAUG   =  511.368                                                            
   DEXC   =    0.000                                                            
   RMAX   =    2.356    core radius for proj-oper                               
   RAUG   =    1.300    factor for augmentation sphere                          
   RDEP   =    2.442    radius for radial grids                                 
   RDEPT  =    1.890    core radius for aug-charge                              
                                                                                
   Atomic configuration                                                         
    9 entries                                                                   
     n  l   j            E        occ.                                          
     1  0  0.50     -6993.8440   2.0000                                         
     2  0  0.50      -814.6047   2.0000                                         
     2  1  1.50      -693.3689   6.0000                                         
     3  0  0.50       -89.4732   2.0000                                         
     3  1  1.50       -55.6373   6.0000                                         
     3  2  2.50        -3.8151   7.0000                                         
     4  0  0.50        -4.2551   1.0000                                         
     4  1  1.50        -3.4015   0.0000                                         
     4  3  2.50        -1.3606   0.0000                                         
   Description                                                                  
     l       E           TYP  RCUT    TYP  RCUT                                 
     2     -3.8151135     23  2.300                                             
     2     -5.1756961     23  2.300                                             
     0     -4.2550963     23  2.300                                             
     0      7.2035603     23  2.300                                             
     1     -2.7211652     23  2.300                                             
     1     18.4316424     23  2.300                                             
  local pseudopotential read in
  partial core-charges read in
  partial kinetic energy density read in
  atomic valenz-charges read in
  non local Contribution for L=           2  read in
    real space projection operators read in
  non local Contribution for L=           2  read in
    real space projection operators read in
  non local Contribution for L=           0  read in
    real space projection operators read in
  non local Contribution for L=           0  read in
    real space projection operators read in
  non local Contribution for L=           1  read in
    real space projection operators read in
  non local Contribution for L=           1  read in
    real space projection operators read in
    PAW grid and wavefunctions read in
 
   number of l-projection  operators is LMAX  =           6
   number of lm-projection operators is LMMAX =          18
 
 POTCAR:    PAW_PBE Co 02Aug2007                  
   VRHFIN =Co: d8 s1                                                            
   LEXCH  = PE                                                                  
   EATOM  =   813.3670 eV,   59.7808 Ry                                         
                                                                                
   TITEL  = PAW_PBE Co 02Aug2007                                                
   LULTRA =        F    use ultrasoft PP ?                                      
   IUNSCR =        1    unscreen: 0-lin 1-nonlin 2-no                           
   RPACOR =    2.000    partial core radius                                     
   POMASS =   58.933; ZVAL   =    9.000    mass and valenz                      
   RCORE  =    2.300    outmost cutoff radius                                   
   RWIGS  =    2.460; RWIGS  =    1.302    wigner-seitz radius (au A)           
   ENMAX  =  267.968; ENMIN  =  200.976 eV                                      
   RCLOC  =    1.203    cutoff for local pot                                    
   LCOR   =        T    correct aug charges                                     
   LPAW   =        T    paw PP                                                  
   EAUG   =  477.818                                                            
   DEXC   =    0.000                                                            
   RMAX   =    2.360    core radius for proj-oper                               
   RAUG   =    1.300    factor for augmentation sphere                          
   RDEP   =    2.393    radius for radial grids                                 
   RDEPT  =    1.864    core radius for aug-charge                              
                                                                                
   Atomic configuration                                                         
    9 entries                                                                   
     n  l   j            E        occ.                                          
     1  0  0.50     -7587.6674   2.0000                                         
     2  0  0.50      -893.6084   2.0000                                         
     2  1  1.50      -764.5805   6.0000                                         
     3  0  0.50       -97.5973   2.0000                                         
     3  1  1.50       -60.9648   6.0000                                         
     3  2  2.50        -4.2382   8.0000                                         
     4  0  0.50        -4.3746   1.0000                                         
     4  1  1.50        -4.0817   0.0000                                         
     4  3  2.50        -1.3606   0.0000                                         
   Description                                                                  
     l       E           TYP  RCUT    TYP  RCUT                                 
     2     -4.2382362     23  2.300                                             
     2     -5.5988188     23  2.300                                             
     0     -4.3745797     23  2.300                                             
     0      5.7660125     23  2.300                                             
     1     -2.7211652     23  2.300                                             
     1     16.9860234     23  2.300                                             
  local pseudopotential read in
  partial core-charges read in
  partial kinetic energy density read in
  atomic valenz-charges read in
  non local Contribution for L=           2  read in
    real space projection operators read in
  non local Contribution for L=           2  read in
    real space projection operators read in
  non local Contribution for L=           0  read in
    real space projection operators read in
  non local Contribution for L=           0  read in
    real space projection operators read in
  non local Contribution for L=           1  read in
    real space projection operators read in
  non local Contribution for L=           1  read in
    real space projection operators read in
    PAW grid and wavefunctions read in
 
   number of l-projection  operators is LMAX  =           6
   number of lm-projection operators is LMMAX =          18
 
 POTCAR:    PAW_PBE Cu 22Jun2005                  
   VRHFIN =Cu: d10 p1                                                           
   LEXCH  = PE                                                                  
   EATOM  =  1390.9808 eV,  102.2342 Ry                                         
                                                                                
   TITEL  = PAW_PBE Cu 22Jun2005                                                
   LULTRA =        F    use ultrasoft PP ?                                      
   IUNSCR =        1    unscreen: 0-lin 1-nonlin 2-no                           
   RPACOR =    2.000    partial core radius                                     
   POMASS =   63.546; ZVAL   =   11.000    mass and valenz                      
   RCORE  =    2.300    outmost cutoff radius                                   
   RWIGS  =    2.200; RWIGS  =    1.164    wigner-seitz radius (au A)           
   ENMAX  =  295.446; ENMIN  =  221.585 eV                                      
   ICORE  =        3    local potential                                         
   LCOR   =        T    correct aug charges                                     
   LPAW   =        T    paw PP                                                  
   EAUG   =  586.980                                                            
   DEXC   =    0.000                                                            
   RMAX   =    2.344    core radius for proj-oper                               
   RAUG   =    1.300    factor for augmentation sphere                          
   RDEP   =    2.302    radius for radial grids                                 
   RDEPT  =    1.771    core radius for aug-charge                              
                                                                                
   Atomic configuration                                                         
    9 entries                                                                   
     n  l   j            E        occ.                                          
     1  0  0.50     -8850.2468   2.0000                                         
     2  0  0.50     -1062.3498   2.0000                                         
     2  1  1.50      -916.8226   6.0000                                         
     3  0  0.50      -114.6929   2.0000                                         
     3  1  1.50       -72.1325   6.0000                                         
     3  2  2.50        -5.0394  10.0000                                         
     4  0  0.50        -4.6097   1.0000                                         
     4  1  0.50        -4.0817   0.0000                                         
     4  3  2.50        -1.3606   0.0000                                         
   Description                                                                  
     l       E           TYP  RCUT    TYP  RCUT                                 
     2     -5.0393973     23  2.200                                             
     2     10.8846608     23  2.200                                             
     0     -4.6097109     23  2.200                                             
     0      8.2520465     23  2.200                                             
     1     -2.7211652     23  2.200                                             
     1     21.7055443     23  2.200                                             
     3      2.7211652     23  2.300                                             
  local pseudopotential read in
  partial core-charges read in
  partial kinetic energy density read in
  atomic valenz-charges read in
  non local Contribution for L=           2  read in
    real space projection operators read in
  non local Contribution for L=           2  read in
    real space projection operators read in
  non local Contribution for L=           0  read in
    real space projection operators read in
  non local Contribution for L=           0  read in
    real space projection operators read in
  non local Contribution for L=           1  read in
    real space projection operators read in
  non local Contribution for L=           1  read in
    real space projection operators read in
    PAW grid and wavefunctions read in
 
   number of l-projection  operators is LMAX  =           6
   number of lm-projection operators is LMMAX =          18
 
 POTCAR:    PAW_PBE Ni 02Aug2007                  
   VRHFIN =Ni:                                                                  
   LEXCH  = PE                                                                  
   EATOM  =  1077.6739 eV,   79.2068 Ry                                         
                                                                                
   TITEL  = PAW_PBE Ni 02Aug2007                                                
   LULTRA =        F    use ultrasoft PP ?                                      
   IUNSCR =        1    unscreen: 0-lin 1-nonlin 2-no                           
   RPACOR =    2.000    partial core radius                                     
   POMASS =   58.690; ZVAL   =   10.000    mass and valenz                      
   RCORE  =    2.300    outmost cutoff radius                                   
   RWIGS  =    2.430; RWIGS  =    1.286    wigner-seitz radius (au A)           
   ENMAX  =  269.532; ENMIN  =  202.149 eV                                      
   RCLOC  =    1.201    cutoff for local pot                                    
   LCOR   =        T    correct aug charges                                     
   LPAW   =        T    paw PP                                                  
   EAUG   =  544.565                                                            
   DEXC   =    0.000                                                            
   RMAX   =    2.357    core radius for proj-oper                               
   RAUG   =    1.300    factor for augmentation sphere                          
   RDEP   =    2.390    radius for radial grids                                 
   RDEPT  =    1.838    core radius for aug-charge                              
                                                                                
   Atomic configuration                                                         
    9 entries                                                                   
     n  l   j            E        occ.                                          
     1  0  0.50     -8206.4253   2.0000                                         
     2  0  0.50      -976.1748   2.0000                                         
     2  1  1.50      -839.0571   6.0000                                         
     3  0  0.50      -105.9991   2.0000                                         
     3  1  1.50       -66.4603   6.0000                                         
     3  2  2.50        -4.6458   9.0000                                         
     4  0  0.50        -4.4926   1.0000                                         
     4  1  1.50        -4.0817   0.0000                                         
     4  3  2.50        -1.3606   0.0000                                         
   Description                                                                  
     l       E           TYP  RCUT    TYP  RCUT                                 
     2     -4.6457903     23  2.300                                             
     2     -6.0063729     23  2.300                                             
     0     -4.4925590     23  2.300                                             
     0      5.0102601     23  2.300                                             
     1     -2.7211652     23  2.300                                             
     1     16.5183231     23  2.300                                             
  local pseudopotential read in
  partial core-charges read in
  partial kinetic energy density read in
  atomic valenz-charges read in
  non local Contribution for L=           2  read in
    real space projection operators read in
  non local Contribution for L=           2  read in
    real space projection operators read in
  non local Contribution for L=           0  read in
    real space projection operators read in
  non local Contribution for L=           0  read in
    real space projection operators read in
  non local Contribution for L=           1  read in
    real space projection operators read in
  non local Contribution for L=           1  read in
    real space projection operators read in
    PAW grid and wavefunctions read in
 
   number of l-projection  operators is LMAX  =           6
   number of lm-projection operators is LMMAX =          18
 
 POTCAR:    PAW_PBE H 15Jun2001                   
   VRHFIN =H: ultrasoft test                                                    
   LEXCH  = PE                                                                  
   EATOM  =    12.4884 eV,    0.9179 Ry                                         
                                                                                
   TITEL  = PAW_PBE H 15Jun2001                                                 
   LULTRA =        F    use ultrasoft PP ?                                      
   IUNSCR =        0    unscreen: 0-lin 1-nonlin 2-no                           
   RPACOR =    0.000    partial core radius                                     
   POMASS =    1.000; ZVAL   =    1.000    mass and valenz                      
   RCORE  =    1.100    outmost cutoff radius                                   
   RWIGS  =    0.700; RWIGS  =    0.370    wigner-seitz radius (au A)           
   ENMAX  =  250.000; ENMIN  =  200.000 eV                                      
   RCLOC  =    0.701    cutoff for local pot                                    
   LCOR   =        T    correct aug charges                                     
   LPAW   =        T    paw PP                                                  
   EAUG   =  400.000                                                            
   RMAX   =    1.123    core radius for proj-oper                               
   RAUG   =    1.200    factor for augmentation sphere                          
   RDEP   =    1.112    radius for radial grids                                 
   RDEPT  =    0.926    core radius for aug-charge                              
                                                                                
   Atomic configuration                                                         
    2 entries                                                                   
     n  l   j            E        occ.                                          
     1  0  0.50        -6.4927   1.0000                                         
     2  1  0.50        -3.4015   0.0000                                         
   Description                                                                  
     l       E           TYP  RCUT    TYP  RCUT                                 
     0     -6.4927494     23  1.100                                             
     0      6.8029130     23  1.100                                             
     1     -4.0817478     23  1.100                                             
  local pseudopotential read in
  atomic valenz-charges read in
  non local Contribution for L=           0  read in
    real space projection operators read in
  non local Contribution for L=           0  read in
    real space projection operators read in
  non local Contribution for L=           1  read in
    real space projection operators read in
    PAW grid and wavefunctions read in
 
   number of l-projection  operators is LMAX  =           3
   number of lm-projection operators is LMMAX =           5
 
 Optimization of the real space projectors (new method)

 maximal supplied QI-value         = 14.36
 optimisation between [QCUT,QGAM] = [ 11.92, 23.98] = [ 39.79,161.09] Ry 
 Optimized for a Real-space Cutoff    1.49 Angstroem

   l    n(q)    QCUT    max X(q) W(low)/X(q) W(high)/X(q)  e(spline) 
   2     10    11.920    66.195    0.79E-04    0.18E-03    0.24E-06
   2     10    11.920    64.643    0.81E-04    0.19E-03    0.24E-06
   0     11    11.920    95.520    0.28E-04    0.54E-04    0.18E-06
   0     11    11.920    63.403    0.27E-04    0.52E-04    0.17E-06
   1     10    11.920    19.961    0.18E-04    0.11E-03    0.23E-06
   1     10    11.920    13.289    0.25E-04    0.87E-04    0.19E-06
 Optimization of the real space projectors (new method)

 maximal supplied QI-value         = 16.25
 optimisation between [QCUT,QGAM] = [ 11.86, 23.89] = [ 39.41,159.82] Ry 
 Optimized for a Real-space Cutoff    1.49 Angstroem

   l    n(q)    QCUT    max X(q) W(low)/X(q) W(high)/X(q)  e(spline) 
   2     10    11.864    80.901    0.13E-03    0.23E-03    0.37E-06
   2     10    11.864    75.754    0.13E-03    0.23E-03    0.38E-06
   0     11    11.864    58.752    0.44E-04    0.11E-04    0.20E-06
   0     11    11.864    30.679    0.36E-04    0.10E-04    0.18E-06
   1     10    11.864    17.977    0.31E-04    0.45E-04    0.10E-06
   1     10    11.864    13.559    0.25E-04    0.37E-04    0.89E-07
 Optimization of the real space projectors (new method)

 maximal supplied QI-value         = 16.25
 optimisation between [QCUT,QGAM] = [ 11.86, 23.89] = [ 39.41,159.82] Ry 
 Optimized for a Real-space Cutoff    1.33 Angstroem

   l    n(q)    QCUT    max X(q) W(low)/X(q) W(high)/X(q)  e(spline) 
   2      9    11.864    65.824    0.22E-03    0.53E-03    0.26E-06
   2      9    11.864    61.429    0.22E-03    0.53E-03    0.26E-06
   0      9    11.864    56.174    0.21E-03    0.32E-04    0.15E-06
   0      9    11.864    31.263    0.19E-03    0.30E-04    0.14E-06
   1      9    11.864    19.828    0.63E-04    0.30E-03    0.16E-06
   1      9    11.864    15.139    0.49E-04    0.25E-03    0.13E-06
 Optimization of the real space projectors (new method)

 maximal supplied QI-value         = 16.25
 optimisation between [QCUT,QGAM] = [ 11.86, 23.89] = [ 39.41,159.82] Ry 
 Optimized for a Real-space Cutoff    1.49 Angstroem

   l    n(q)    QCUT    max X(q) W(low)/X(q) W(high)/X(q)  e(spline) 
   2     10    11.864     4.610    0.10E-03    0.20E-03    0.29E-06
   2     10    11.864     8.522    0.17E-03    0.33E-03    0.50E-06
   0     11    11.864    51.609    0.52E-04    0.55E-04    0.33E-06
   0     11    11.864    27.747    0.46E-04    0.52E-04    0.31E-06
   1     10    11.864    20.408    0.54E-04    0.25E-04    0.21E-06
   1     10    11.864    13.425    0.48E-04    0.22E-04    0.18E-06
 Optimization of the real space projectors (new method)

 maximal supplied QI-value         = 16.25
 optimisation between [QCUT,QGAM] = [ 11.86, 23.89] = [ 39.41,159.82] Ry 
 Optimized for a Real-space Cutoff    1.33 Angstroem

   l    n(q)    QCUT    max X(q) W(low)/X(q) W(high)/X(q)  e(spline) 
   2      9    11.864    60.317    0.21E-03    0.51E-03    0.25E-06
   2      9    11.864    55.921    0.21E-03    0.51E-03    0.26E-06
   0      9    11.864    51.690    0.22E-03    0.30E-04    0.17E-06
   0      9    11.864    30.015    0.20E-03    0.28E-04    0.15E-06
   1      9    11.864    18.849    0.76E-04    0.33E-03    0.17E-06
   1      9    11.864    14.624    0.60E-04    0.28E-03    0.15E-06
 Optimization of the real space projectors (new method)

 maximal supplied QI-value         = 34.20
 optimisation between [QCUT,QGAM] = [ 11.97, 23.94] = [ 40.13,160.53] Ry 
 Optimized for a Real-space Cutoff    1.18 Angstroem

   l    n(q)    QCUT    max X(q) W(low)/X(q) W(high)/X(q)  e(spline) 
   0      8    11.971    19.460    0.15E-03    0.31E-03    0.25E-06
   0      8    11.971    12.209    0.13E-03    0.29E-03    0.25E-06
   1      8    11.971     4.655    0.22E-03    0.24E-03    0.21E-06
  PAW_PBE Pt 04Feb2005                  :
 energy of atom  1       EATOM= -729.1176
 kinetic energy error for atom=    0.0021 (will be added to EATOM!!)
  PAW_PBE Fe 06Sep2000                  :
 energy of atom  2       EATOM= -594.3153
 kinetic energy error for atom=    0.0024 (will be added to EATOM!!)
  PAW_PBE Co 02Aug2007                  :
 energy of atom  3       EATOM= -813.3670
 kinetic energy error for atom=    0.0026 (will be added to EATOM!!)
  PAW_PBE Cu 22Jun2005                  :
 energy of atom  4       EATOM=-1390.9808
 kinetic energy error for atom=    0.0036 (will be added to EATOM!!)
  PAW_PBE Ni 02Aug2007                  :
 energy of atom  5       EATOM=-1077.6739
 kinetic energy error for atom=    0.0027 (will be added to EATOM!!)
  PAW_PBE H 15Jun2001                   :
 energy of atom  6       EATOM=  -12.4884
 kinetic energy error for atom=    0.0008 (will be added to EATOM!!)
 
 
 POSCAR: 11.06                                   
  positions in direct lattice
  velocities in cartesian coordinates
 exchange correlation table for  LEXCH =        8
   RHO(1)=    0.500       N(1)  =     2000
   RHO(2)=  100.500       N(2)  =     4000
 


--------------------------------------------------------------------------------------------------------


 ion  position               nearest neighbor table
   1  0.788  0.880  0.311-  49 2.57  59 2.62  28 2.65  11 2.76  19 2.76  33 2.76  61 2.77  29 2.78
                            60 2.78   4 2.79   2 2.83  12 2.85
   2  0.044  0.880  0.308-  79 2.55  77 2.60  28 2.73  30 2.73  33 2.75  60 2.76  52 2.79   6 2.82
                             1 2.83  22 2.84   4 2.88  16 2.95
   3  0.280  0.378  0.315-  64 2.55  68 2.65  31 2.66  39 2.67   5 2.74  33 2.75  13 2.77  25 2.80
                            43 2.81  19 2.81  30 2.84  18 2.96
   4  0.871  0.965  0.415-  17 2.71  60 2.72  11 2.75   9 2.76   1 2.79  12 2.80   6 2.83  16 2.85
                             2 2.88
   5  0.118  0.466  0.417-  81 1.61  39 2.64  33 2.70  12 2.71   7 2.71  16 2.71   3 2.74  10 2.74
                            25 2.80  13 2.87
   6  0.128  0.962  0.414-  52 2.67   8 2.71  10 2.77  22 2.79  14 2.79   9 2.81   2 2.82   4 2.83
                            16 2.84
   7  0.878  0.457  0.418-  39 2.63  75 2.66   5 2.71   9 2.72  15 2.72  10 2.74  29 2.75  12 2.79
                            27 2.82
   8  0.375  0.959  0.414-  43 2.56  52 2.63  61 2.68   6 2.71  14 2.74  27 2.74  13 2.75  10 2.77
                            11 2.77
   9  0.872  0.214  0.412-  75 2.63  60 2.67   7 2.72  15 2.72  17 2.74   4 2.76  22 2.78   6 2.81
                            10 2.83
  10  0.128  0.212  0.415-  81 1.62  39 2.64  43 2.68  13 2.72  22 2.73   7 2.74   5 2.74   8 2.77
                             6 2.77   9 2.83
  11  0.626  0.958  0.414-  61 2.71  12 2.74  27 2.75  13 2.75   4 2.75   1 2.76   8 2.77  17 2.78
                            19 2.78
  12  0.874  0.711  0.417-  33 2.69  29 2.70   5 2.71  11 2.74  27 2.77  16 2.78   7 2.79   4 2.80
                             1 2.85
  13  0.378  0.206  0.416-  43 2.68  10 2.72   8 2.75  11 2.75  19 2.76  17 2.77   3 2.77  25 2.78
                             5 2.87
  14  0.380  0.710  0.415-  44 2.61  52 2.65  27 2.70   8 2.74  15 2.74  30 2.76   6 2.79  25 2.80
                            16 2.81
  15  0.629  0.462  0.415-  44 2.62  75 2.64   9 2.72  27 2.72   7 2.72  18 2.73  14 2.74  17 2.81
                            25 2.83
  16  0.128  0.706  0.418-  33 2.66   5 2.71  25 2.72  30 2.76  12 2.78  14 2.81   6 2.84   4 2.85
                             2 2.95
  17  0.626  0.210  0.413-   4 2.71  18 2.71  60 2.73   9 2.74  13 2.77  25 2.78  11 2.78  19 2.81
                            15 2.81
  18  0.547  0.378  0.315-  67 2.54  68 2.61  26 2.67  17 2.71  44 2.73  15 2.73  60 2.74  75 2.76
                            25 2.79  30 2.83  19 2.86   3 2.96
  19  0.535  0.125  0.311-  80 2.53  68 2.56  59 2.57  43 2.66  13 2.76   1 2.76  61 2.77  11 2.78
                             3 2.81  17 2.81  18 2.86  60 2.89
  20  0.552  0.124  0.052-  37 2.54  57 2.54  48 2.56  62 2.67  63 2.77  47 2.79  34 2.81  56 2.83
                            45 2.95
  21  0.117  0.448  0.127-  47 2.51  36 2.52  40 2.52  42 2.62  70 2.69  69 2.70  64 2.70  31 2.74
                            50 2.78  57 2.79  74 3.04  58 3.09
  22  0.048  0.135  0.312-  65 2.53  77 2.54  55 2.56  43 2.69  39 2.70  10 2.73   9 2.78   6 2.79
                            75 2.81   2 2.84  52 2.84  60 2.84  31 3.35
  23  0.032  0.132  0.039-  70 2.56  41 2.58  40 2.58  62 2.69  76 2.70  24 2.71  45 2.77  35 2.89
                            53 2.93
  24  0.132  0.957  0.136-  79 2.51  35 2.56  77 2.57  53 2.57  55 2.59  70 2.65  58 2.68  23 2.71
                            73 2.74  38 2.74  66 2.81  41 2.91
  25  0.374  0.460  0.417-  16 2.72  17 2.78  13 2.78  30 2.78  18 2.79   5 2.80  14 2.80   3 2.80
                            15 2.83
  26  0.458  0.551  0.220-  74 2.50  73 2.52  51 2.55  79 2.63  30 2.64  18 2.67  44 2.68  32 2.73
                            78 2.74  68 2.81  67 2.84  64 2.85
  27  0.623  0.712  0.416-  44 2.64  61 2.68  14 2.70  15 2.72   8 2.74  11 2.75  29 2.77  12 2.77
                             7 2.82
  28  0.955  0.779  0.215-  58 2.56  50 2.56  66 2.61   1 2.65  42 2.65  33 2.67  49 2.68   2 2.73
                            64 2.75  59 2.94  77 3.16  79 3.16
  29  0.800  0.624  0.317-  42 2.55  32 2.63  39 2.63  49 2.64  75 2.68  12 2.70  33 2.73   7 2.75
                            27 2.77   1 2.78  61 2.79  44 2.83
  30  0.288  0.630  0.314-  79 2.53  64 2.63  26 2.64  33 2.71   2 2.73  52 2.75  16 2.76  14 2.76
                            25 2.78  44 2.80  18 2.83   3 2.84
  31  0.197  0.274  0.226-  70 2.49  43 2.57  57 2.57  55 2.61  39 2.62  65 2.63   3 2.66  21 2.74
                            42 2.80  80 2.84  64 2.96  68 3.01  22 3.35
  32  0.704  0.554  0.222-  54 2.55  69 2.55  51 2.59  49 2.63  29 2.63  44 2.66  78 2.67  75 2.67
                            65 2.72  42 2.73  26 2.73  67 2.77
  33  0.041  0.635  0.319-  16 2.66  28 2.67  64 2.68  12 2.69   5 2.70  30 2.71  42 2.71  29 2.73
                             2 2.75   3 2.75   1 2.76  39 2.80
  34  0.794  0.860  0.055-  50 2.37  48 2.43  66 2.54  36 2.60  63 2.69  71 2.72  20 2.81  35 2.85

  35  0.050  0.863  0.048-  36 2.43  58 2.54  24 2.56  66 2.58  72 2.69  34 2.85  23 2.89  53 2.90
                            62 2.92
  36  0.046  0.646  0.053-  35 2.43  21 2.52  58 2.52  50 2.58  34 2.60  72 2.68  47 2.90  71 3.06

  37  0.627  0.234  0.134-  67 2.50  56 2.50  51 2.50  20 2.54  59 2.54  74 2.55  68 2.55  62 2.57
                            41 2.59  66 2.76
  38  0.383  0.952  0.134-  45 2.42  53 2.43  80 2.46  55 2.52  78 2.52  63 2.54  73 2.58  54 2.59
                            48 2.62  24 2.74  57 2.75  70 2.83
  39  0.035  0.384  0.321-  42 2.60  31 2.62   7 2.63  29 2.63  10 2.64   5 2.64   3 2.67  65 2.68
                            75 2.68  22 2.70  33 2.80  43 2.96
  40  0.009  0.376  0.044-  69 2.35  76 2.47  21 2.52  23 2.58  70 2.59  71 2.60  45 3.03
  41  0.868  0.220  0.132-  76 2.44  77 2.46  67 2.52  65 2.54  62 2.56  23 2.58  37 2.59  69 2.60
                            51 2.66  66 2.68  70 2.71  24 2.91
  42  0.958  0.538  0.223-  50 2.48  29 2.55  39 2.60  21 2.62  69 2.62  28 2.65  65 2.66  33 2.71
                            32 2.73  64 2.76  49 2.77  31 2.80
  43  0.301  0.114  0.319-  55 2.51   8 2.56  31 2.57  80 2.58  19 2.66  10 2.68  52 2.68  13 2.68
                            61 2.68  22 2.69   3 2.81  39 2.96
  44  0.543  0.626  0.320-  14 2.61  78 2.62  15 2.62  27 2.64  32 2.66  26 2.68  61 2.71  75 2.71
                            52 2.71  18 2.73  30 2.80  29 2.83
  45  0.291  0.112  0.049-  38 2.42  70 2.44  53 2.53  57 2.59  63 2.71  23 2.77  20 2.95  40 3.03
                            47 3.10
  46  0.550  0.626  0.049-  54 2.38  51 2.39  73 2.40  71 2.55  76 2.70  56 2.73  53 2.75  63 2.76
                            72 2.80
  47  0.309  0.384  0.051-  74 2.30  21 2.51  56 2.59  57 2.60  72 2.60  20 2.79  36 2.90  45 3.10

  48  0.625  0.943  0.137-  49 2.35  34 2.43  80 2.48  54 2.52  63 2.52  20 2.56  59 2.58  38 2.62
                            50 2.70  57 2.82  66 2.91
  49  0.707  0.789  0.221-  48 2.35  50 2.43  54 2.50   1 2.57  61 2.62  32 2.63  29 2.64  80 2.66
                            78 2.67  28 2.68  42 2.77  59 2.93
  50  0.857  0.689  0.133-  71 2.36  34 2.37  49 2.43  42 2.48  54 2.49  69 2.53  28 2.56  36 2.58
                            48 2.70  21 2.78
  51  0.628  0.460  0.130-  46 2.39  76 2.43  37 2.50  56 2.51  26 2.55  32 2.59  67 2.62  69 2.64
                            41 2.66  74 2.68  73 2.76  54 2.82
  52  0.299  0.873  0.317-  55 2.43  79 2.45  78 2.55   8 2.63  14 2.65   6 2.67  43 2.68  61 2.69
                            44 2.71  30 2.75   2 2.79  22 2.84
  53  0.305  0.877  0.046-  73 2.41  38 2.43  45 2.53  24 2.57  63 2.65  46 2.75  72 2.84  35 2.90
                            23 2.93
  54  0.618  0.719  0.131-  46 2.38  71 2.46  63 2.47  50 2.49  49 2.50  48 2.52  32 2.55  78 2.57
                            73 2.58  38 2.59  51 2.82  69 2.86
  55  0.233  0.022  0.228-  52 2.43  79 2.51  43 2.51  38 2.52  78 2.53  80 2.53  22 2.56  24 2.59
                            31 2.61  70 2.73  77 2.91
  56  0.542  0.383  0.041-  74 2.49  37 2.50  51 2.51  47 2.59  76 2.65  72 2.69  46 2.73  62 2.77
                            20 2.83
  57  0.375  0.205  0.139-  68 2.48  20 2.54  80 2.57  31 2.57  45 2.59  47 2.60  38 2.75  21 2.79
                            70 2.82  48 2.82  74 2.83
  58  0.156  0.704  0.140-  72 2.42  64 2.44  79 2.47  36 2.52  35 2.54  28 2.56  73 2.63  24 2.68
                            74 2.68  21 3.09
  59  0.702  0.057  0.220-  66 2.47  37 2.54  19 2.57  48 2.58  60 2.59   1 2.62  68 2.69  67 2.75
                            77 2.81  80 2.86  49 2.93  28 2.94
  60  0.794  0.129  0.313-  67 2.51  77 2.53  59 2.59   9 2.67   4 2.72  17 2.73  18 2.74   2 2.76
                             1 2.78  75 2.83  22 2.84  19 2.89
  61  0.542  0.871  0.316-  78 2.47  80 2.48  49 2.62  27 2.68   8 2.68  43 2.68  52 2.69  44 2.71
                            11 2.71  19 2.77   1 2.77  29 2.79
  62  0.790  0.129  0.042-  66 2.50  41 2.56  37 2.57  20 2.67  76 2.69  23 2.69  56 2.77  35 2.92

  63  0.544  0.878  0.042-  54 2.47  48 2.52  38 2.54  53 2.65  34 2.69  45 2.71  71 2.75  46 2.76
                            20 2.77
  64  0.208  0.536  0.222-  58 2.44   3 2.55  74 2.62  30 2.63  33 2.68  68 2.69  21 2.70  28 2.75
                            42 2.76  26 2.85  31 2.96
  65  0.946  0.304  0.224-  69 2.49  22 2.53  41 2.54  75 2.56  67 2.57  77 2.61  70 2.62  31 2.63
                            42 2.66  39 2.68  32 2.72
  66  0.869  0.977  0.134-  59 2.47  62 2.50  77 2.52  34 2.54  35 2.58  28 2.61  41 2.68  37 2.76
                            24 2.81  48 2.91
  67  0.717  0.297  0.226-  37 2.50  60 2.51  41 2.52  18 2.54  65 2.57  77 2.58  75 2.58  51 2.62
                            59 2.75  32 2.77  26 2.84
  68  0.456  0.298  0.222-  57 2.48  74 2.48  37 2.55  19 2.56  18 2.61   3 2.65  64 2.69  59 2.69
                            26 2.81  31 3.01
  69  0.869  0.454  0.131-  40 2.35  76 2.47  71 2.47  65 2.49  50 2.53  32 2.55  41 2.60  42 2.62
                            51 2.64  21 2.70  70 2.79  54 2.86
  70  0.122  0.202  0.132-  45 2.44  31 2.49  23 2.56  40 2.59  65 2.62  24 2.65  21 2.69  41 2.71
                            55 2.73  69 2.79  57 2.82  38 2.83
  71  0.783  0.620  0.045-  50 2.36  54 2.46  69 2.47  46 2.55  40 2.60  76 2.70  34 2.72  63 2.75
                            36 3.06
  72  0.298  0.624  0.049-  58 2.42  74 2.44  73 2.50  47 2.60  36 2.68  35 2.69  56 2.69  46 2.80
                            53 2.84
  73  0.386  0.717  0.131-  46 2.40  53 2.41  72 2.50  26 2.52  79 2.55  78 2.57  54 2.58  38 2.58
                            58 2.63  24 2.74  51 2.76  74 2.90
  74  0.388  0.454  0.132-  47 2.30  72 2.44  68 2.48  56 2.49  26 2.50  37 2.55  64 2.62  51 2.68
                            58 2.68  57 2.83  73 2.90  21 3.04
  75  0.792  0.386  0.319-  65 2.56  67 2.58   9 2.63  15 2.64   7 2.66  32 2.67  29 2.68  39 2.68
                            44 2.71  18 2.76  22 2.81  60 2.83
  76  0.786  0.375  0.044-  51 2.43  41 2.44  69 2.47  40 2.47  56 2.65  62 2.69  46 2.70  71 2.70
                            23 2.70
  77  0.951  0.066  0.221-  41 2.46  66 2.52  60 2.53  22 2.54  24 2.57  67 2.58   2 2.60  65 2.61
                            59 2.81  55 2.91  79 3.04  28 3.16
  78  0.464  0.795  0.226-  61 2.47  80 2.52  38 2.52  55 2.53  52 2.55  79 2.57  73 2.57  54 2.57
                            44 2.62  32 2.67  49 2.67  26 2.74
  79  0.231  0.796  0.226-  52 2.45  58 2.47  55 2.51  24 2.51  30 2.53   2 2.55  73 2.55  78 2.57
                            26 2.63  77 3.04  28 3.16
  80  0.461  0.024  0.225-  38 2.46  48 2.48  61 2.48  78 2.52  55 2.53  19 2.53  57 2.57  43 2.58
                            49 2.66  31 2.84  59 2.86
  81  0.121  0.339  0.455-   5 1.61  10 1.62
 
  LATTYP: Found a hexagonal cell.
 ALAT       =    11.0600004197
 C/A-ratio  =     1.9891500149
  
  Lattice vectors:
  
 A1 = (   5.5300002098,  -9.5782413293,   0.0000000000)
 A2 = ( -11.0600004196,   0.0000000000,   0.0000000000)
 A3 = (   0.0000000000,   0.0000000000, -22.0000000000)


Analysis of symmetry for initial positions (statically):
=====================================================================
 Subroutine PRICEL returns:
 Original cell was already a primitive cell.
 

 Routine SETGRP: Setting up the symmetry group for a 
 hexagonal supercell.


 Subroutine GETGRP returns: Found  1 space group operations
 (whereof  1 operations were pure point group operations)
 out of a pool of 24 trial point group operations.


The static configuration has the point symmetry C_1 .


Analysis of symmetry for dynamics (positions and initial velocities):
=====================================================================
 Subroutine PRICEL returns:
 Original cell was already a primitive cell.
 

 Routine SETGRP: Setting up the symmetry group for a 
 hexagonal supercell.


 Subroutine GETGRP returns: Found  1 space group operations
 (whereof  1 operations were pure point group operations)
 out of a pool of 24 trial point group operations.


The dynamic configuration has the point symmetry C_1 .


Analysis of constrained symmetry for selective dynamics:
=====================================================================
 Subroutine PRICEL returns:
 Original cell was already a primitive cell.
 

 Routine SETGRP: Setting up the symmetry group for a 
 hexagonal supercell.


 Subroutine GETGRP returns: Found  1 space group operations
 (whereof  1 operations were pure point group operations)
 out of a pool of 24 trial point group operations.


The constrained configuration has the point symmetry C_1 .


Analysis of structural, dynamic, and magnetic symmetry:
=====================================================================
 Subroutine PRICEL returns:
 Original cell was already a primitive cell.
 

 Routine SETGRP: Setting up the symmetry group for a 
 hexagonal supercell.


 Subroutine GETGRP returns: Found  1 space group operations
 (whereof  1 operations were pure point group operations)
 out of a pool of 24 trial point group operations.


The magnetic configuration has the point symmetry C_1 .


 Subroutine INISYM returns: Found  1 space group operations
 (whereof  1 operations are pure point group operations),
 and found     1 'primitive' translations

 
 
 KPOINTS: mesh auto                               

Automatic generation of k-mesh.
Space group operators:
 irot       det(A)        alpha          n_x          n_y          n_z        tau_x        tau_y        tau_z
    1     1.000000     0.000000     1.000000     0.000000     0.000000     0.000000     0.000000     0.000000
 
 Subroutine IBZKPT returns following result:
 ===========================================
 
 Found      4 irreducible k-points:
 
 Following reciprocal coordinates:
            Coordinates               Weight
  0.000000  0.000000  0.000000      1.000000
  0.500000  0.000000  0.000000      1.000000
  0.000000  0.500000  0.000000      1.000000
  0.500000  0.500000  0.000000      1.000000
 
 Following cartesian coordinates:
            Coordinates               Weight
  0.000000  0.000000  0.000000      1.000000
  0.045208 -0.026101  0.000000      1.000000
  0.000000  0.052202  0.000000      1.000000
  0.045208  0.026101  0.000000      1.000000
 


--------------------------------------------------------------------------------------------------------




 Dimension of arrays:
   k-points           NKPTS =      4   k-points in BZ     NKDIM =      4   number of bands    NBANDS=    588
   number of dos      NEDOS =    301   number of ions     NIONS =     81
   non local maximal  LDIM  =      6   non local SUM 2l+1 LMDIM =     18
   total plane-waves  NPLWV = ******
   max r-space proj   IRMAX =   8163   max aug-charges    IRDMAX=  35560
   dimension x,y,z NGX =    90 NGY =   90 NGZ =  168
   dimension x,y,z NGXF=   180 NGYF=  180 NGZF=  336
   support grid    NGXF=   180 NGYF=  180 NGZF=  336
   ions per type =              32  13  10  13  12   1
   NGX,Y,Z   is equivalent  to a cutoff of  13.53, 13.53, 12.70 a.u.
   NGXF,Y,Z  is equivalent  to a cutoff of  27.06, 27.06, 25.39 a.u.

 SYSTEM =  Pt111                                   
 POSCAR =  11.06                                   

 Startparameter for this run:
   NWRITE =      2    write-flag & timer
   PREC   = accura    normal or accurate (medium, high low for compatibility)
   ISTART =      0    job   : 0-new  1-cont  2-samecut
   ICHARG =      2    charge: 1-file 2-atom 10-const
   ISPIN  =      2    spin polarized calculation?
   LNONCOLLINEAR =      F non collinear calculations
   LSORBIT =      F    spin-orbit coupling
   INIWAV =      1    electr: 0-lowe 1-rand  2-diag
   LASPH  =      F    aspherical Exc in radial PAW
   METAGGA=      F    non-selfconsistent MetaGGA calc.

 Electronic Relaxation 1
   ENCUT  =  550.0 eV  40.42 Ry    6.36 a.u.  21.15 21.15 42.07*2*pi/ulx,y,z
   ENINI  =  550.0     initial cutoff
   ENAUG  =  587.0 eV  augmentation charge cutoff
   NELM   =    200;   NELMIN=  2; NELMDL= -5     # of ELM steps 
   EDIFF  = 0.1E-04   stopping-criterion for ELM
   LREAL  =      T    real-space projection
   NLSPLINE    = F    spline interpolate recip. space projectors
   LCOMPAT=      F    compatible to vasp.4.4
   GGA_COMPAT  = T    GGA compatible to vasp.4.4-vasp.4.6
   LMAXPAW     = -100 max onsite density
   LMAXMIX     =    2 max onsite mixed and CHGCAR
   VOSKOWN=      0    Vosko Wilk Nusair interpolation
   ROPT   =   -0.00025  -0.00025  -0.00025  -0.00025
   ROPT   =   -0.00025  -0.00025
 Ionic relaxation
   EDIFFG = -.5E-01   stopping-criterion for IOM
   NSW    =    300    number of steps for IOM
   NBLOCK =      1;   KBLOCK =    300    inner block; outer block 
   IBRION =      2    ionic relax: 0-MD 1-quasi-New 2-CG
   NFREE  =      1    steps in history (QN), initial steepest desc. (CG)
   ISIF   =      2    stress and relaxation
   IWAVPR =     11    prediction:  0-non 1-charg 2-wave 3-comb
   ISYM   =      2    0-nonsym 1-usesym 2-fastsym
   LCORR  =      T    Harris-Foulkes like correction to forces

   POTIM  = 0.5000    time-step for ionic-motion
   TEIN   =    0.0    initial temperature
   TEBEG  =    0.0;   TEEND  =   0.0 temperature during run
   SMASS  =  -3.00    Nose mass-parameter (am)
   estimated Nose-frequenzy (Omega)   =  0.10E-29 period in steps =****** mass=  -0.280E-26a.u.
   SCALEE = 1.0000    scale energy and forces
   NPACO  =    256;   APACO  = 16.0  distance and # of slots for P.C.
   PSTRESS=    0.0 pullay stress

  Mass of Ions in am
   POMASS = 195.08 55.85 58.93 63.55 58.69  1.00
  Ionic Valenz
   ZVAL   =  10.00  8.00  9.00 11.00 10.00  1.00
  Atomic Wigner-Seitz radii
   RWIGS  =  -1.00 -1.00 -1.00 -1.00 -1.00 -1.00
  virtual crystal weights 
   VCA    =   1.00  1.00  1.00  1.00  1.00  1.00
   NELECT =     778.0000    total number of electrons
   NUPDOWN=      -1.0000    fix difference up-down

 DOS related values:
   EMIN   =  10.00;   EMAX   =-10.00  energy-range for DOS
   EFERMI =   0.00
   ISMEAR =     1;   SIGMA  =   0.10  broadening in eV -4-tet -1-fermi 0-gaus

 Electronic relaxation 2 (details)
   IALGO  =     68    algorithm
   LDIAG  =      T    sub-space diagonalisation (order eigenvalues)
   LSUBROT=      F    optimize rotation matrix (better conditioning)
   TURBO    =      0    0=normal 1=particle mesh
   IRESTART =      0    0=no restart 2=restart with 2 vectors
   NREBOOT  =      0    no. of reboots
   NMIN     =      0    reboot dimension
   EREF     =   0.00    reference energy to select bands
   IMIX   =      4    mixing-type and parameters
     AMIX     =   0.40;   BMIX     =  1.00
     AMIX_MAG =   1.60;   BMIX_MAG =  1.00
     AMIN     =   0.10
     WC   =   100.;   INIMIX=   1;  MIXPRE=   1;  MAXMIX= -45

 Intra band minimization:
   WEIMIN = 0.0010     energy-eigenvalue tresh-hold
   EBREAK =  0.43E-08  absolut break condition
   DEPER  =   0.30     relativ break condition  

   TIME   =   0.40     timestep for ELM

  volume/ion in A,a.u.               =      28.77       194.17
  Fermi-wavevector in a.u.,A,eV,Ry     =   1.135656  2.146079 17.547634  1.289715
  Thomas-Fermi vector in A             =   2.272361
 
 Write flags
   LWAVE        =      F    write WAVECAR
   LDOWNSAMPLE  =      F    k-point downsampling of WAVECAR
   LCHARG       =      F    write CHGCAR
   LVTOT        =      F    write LOCPOT, total local potential
   LVHAR        =      F    write LOCPOT, Hartree potential only
   LELF         =      F    write electronic localiz. function (ELF)
   LORBIT       =      0    0 simple, 1 ext, 2 COOP (PROOUT), +10 PAW based schemes


 Dipole corrections
   LMONO  =      F    monopole corrections only (constant potential shift)
   LDIPOL =      F    correct potential (dipole corrections)
   IDIPOL =      0    1-x, 2-y, 3-z, 4-all directions 
   EPSILON=  1.0000000 bulk dielectric constant

 Exchange correlation treatment:
   GGA     =    --    GGA type
   LEXCH   =     8    internal setting for exchange type
   VOSKOWN=      0    Vosko Wilk Nusair interpolation
   LHFCALC =     F    Hartree Fock is set to
   LHFONE  =     F    Hartree Fock one center treatment
   AEXX    =    0.0000 exact exchange contribution

 Linear response parameters
   LEPSILON=     F    determine dielectric tensor
   LRPA    =     F    only Hartree local field effects (RPA)
   LNABLA  =     F    use nabla operator in PAW spheres
   LVEL    =     F    velocity operator in full k-point grid
   LINTERFAST=   F  fast interpolation
   KINTER  =     0    interpolate to denser k-point grid
   CSHIFT  =0.1000    complex shift for real part using Kramers Kronig
   OMEGAMAX=  -1.0    maximum frequency
   DEG_THRESHOLD= 0.2000000E-02 threshold for treating states as degnerate
   RTIME   =   -0.100 relaxation time in fs
  (WPLASMAI=    0.000 imaginary part of plasma frequency in eV, 0.658/RTIME)
   DFIELD  = 0.0000000 0.0000000 0.0000000 field for delta impulse in time
 
 Orbital magnetization related:
   ORBITALMAG=     F  switch on orbital magnetization
   LCHIMAG   =     F  perturbation theory with respect to B field
   DQ        =  0.001000  dq finite difference perturbation B field
   LLRAUG    =     F  two centre corrections for induced B field



--------------------------------------------------------------------------------------------------------


 conjugate gradient relaxation of ions
   using selective dynamics as specified on POSCAR
 charge density and potential will be updated during run
 spin polarized calculation
 RMM-DIIS sequential band-by-band and
  variant of blocked Davidson during initial phase
 perform sub-space diagonalisation
    before iterative eigenvector-optimisation
 modified Broyden-mixing scheme, WC =      100.0
 initial mixing is a Kerker type mixing with AMIX =  0.4000 and BMIX =      1.0000
 Hartree-type preconditioning will be used
 using additional bands          199
 real space projection scheme for non local part
 use partial core corrections
 calculate Harris-corrections to forces 
   (improved forces if not selfconsistent)
 use gradient corrections 
 use of overlap-Matrix (Vanderbilt PP)
 Methfessel and Paxton  Order N= 1 SIGMA  =   0.10


--------------------------------------------------------------------------------------------------------


  energy-cutoff  :      550.00
  volume of cell :     2330.58
      direct lattice vectors                 reciprocal lattice vectors
    11.060000420  0.000000000  0.000000000     0.090415910 -0.052201650  0.000000000
     5.530000210  9.578241329  0.000000000     0.000000000  0.104403300  0.000000000
     0.000000000  0.000000000 22.000000000     0.000000000  0.000000000  0.045454545

  length of vectors
    11.060000420 11.060000420 22.000000000     0.104403300  0.104403300  0.045454545


 
 k-points in units of 2pi/SCALE and weight: mesh auto                               
   0.00000000  0.00000000  0.00000000       0.250
   0.04520795 -0.02610082  0.00000000       0.250
   0.00000000  0.05220165  0.00000000       0.250
   0.04520795  0.02610082  0.00000000       0.250
 
 k-points in reciprocal lattice and weights: mesh auto                               
   0.00000000  0.00000000  0.00000000       0.250
   0.50000000  0.00000000  0.00000000       0.250
   0.00000000  0.50000000  0.00000000       0.250
   0.50000000  0.50000000  0.00000000       0.250
 
 position of ions in fractional coordinates (direct lattice) 
   0.78823787  0.88021057  0.31082543
   0.04389558  0.88029656  0.30761130
   0.27979023  0.37779810  0.31482156
   0.87114770  0.96541387  0.41451940
   0.11792891  0.46563769  0.41727737
   0.12841254  0.96231874  0.41353778
   0.87772827  0.45656902  0.41844822
   0.37538483  0.95915941  0.41373714
   0.87179380  0.21414066  0.41170303
   0.12846683  0.21248764  0.41461771
   0.62614745  0.95818746  0.41432624
   0.87352906  0.71084715  0.41736755
   0.37755671  0.20630205  0.41598139
   0.37978235  0.70968898  0.41492878
   0.62867171  0.46247685  0.41537986
   0.12750990  0.70609948  0.41818349
   0.62603984  0.20956049  0.41342044
   0.54715165  0.37761779  0.31456276
   0.53472600  0.12539112  0.31101520
   0.55179070  0.12374142  0.05223803
   0.11664031  0.44783054  0.12690504
   0.04787782  0.13464427  0.31152799
   0.03186342  0.13215323  0.03914365
   0.13229023  0.95742467  0.13574991
   0.37377339  0.45967104  0.41651101
   0.45833023  0.55057366  0.21962299
   0.62250152  0.71171548  0.41597180
   0.95473106  0.77905270  0.21531405
   0.79958983  0.62379471  0.31667926
   0.28754808  0.63024090  0.31404731
   0.19730386  0.27376709  0.22569465
   0.70394404  0.55368540  0.22172522
   0.04073959  0.63453593  0.31905658
   0.79426676  0.85995412  0.05534962
   0.05040034  0.86281033  0.04849241
   0.04583922  0.64588455  0.05316479
   0.62748553  0.23380425  0.13407091
   0.38303549  0.95218749  0.13425721
   0.03536923  0.38390537  0.32067909
   0.00878266  0.37630951  0.04359329
   0.86822399  0.21988956  0.13207131
   0.95768743  0.53847804  0.22346892
   0.30053419  0.11441981  0.31878314
   0.54250627  0.62627965  0.31978096
   0.29115016  0.11224154  0.04942744
   0.55011489  0.62555697  0.04882647
   0.30851450  0.38355964  0.05056246
   0.62453420  0.94332048  0.13749178
   0.70748620  0.78937003  0.22081801
   0.85712416  0.68932342  0.13253871
   0.62777237  0.45999968  0.13033077
   0.29858029  0.87289682  0.31743685
   0.30521974  0.87703315  0.04638098
   0.61823189  0.71917785  0.13087512
   0.23341642  0.02203156  0.22829392
   0.54221244  0.38306195  0.04085355
   0.37543997  0.20459316  0.13860528
   0.15586478  0.70436301  0.14002149
   0.70209783  0.05654741  0.21991291
   0.79408081  0.12858592  0.31334770
   0.54245972  0.87120368  0.31603904
   0.78970655  0.12944214  0.04180567
   0.54410433  0.87755340  0.04232343
   0.20842910  0.53574741  0.22172336
   0.94628336  0.30393848  0.22360982
   0.86905633  0.97705001  0.13425761
   0.71711062  0.29698767  0.22578458
   0.45638208  0.29767019  0.22194754
   0.86935297  0.45437442  0.13113085
   0.12200307  0.20180872  0.13240107
   0.78290196  0.62028376  0.04517290
   0.29789721  0.62412549  0.04942260
   0.38609046  0.71740367  0.13123061
   0.38842403  0.45385939  0.13216076
   0.79208630  0.38558873  0.31865016
   0.78618513  0.37451175  0.04413402
   0.95135446  0.06593013  0.22138172
   0.46359829  0.79518871  0.22640819
   0.23108351  0.79634638  0.22553160
   0.46122434  0.02412498  0.22485055
   0.12104387  0.33886541  0.45471972
 
 position of ions in cartesian coordinates  (Angst):
  13.58547585  8.43086928  6.83815945
   5.35352534  8.43169288  6.76744860
   5.18370357  3.61864136  6.92607443
  14.97363283  9.24696699  9.11942686
   3.87927025  4.45999015  9.18010220
   6.74186558  9.21732113  9.09783121
  12.23250185  4.37312826  9.20586093
   9.45590812  9.18706031  9.10221703
  10.82623772  2.05109095  9.05746655
   2.59589984  2.03525791  9.12158967
  12.22396787  9.17775073  9.11517722
  13.59221661  6.80866552  9.18208611
   5.31662774  1.97601082  9.15159060
   8.12497314  6.79757228  9.12843322
   9.51060649  4.42971492  9.13835689
   5.31498981  6.76319119  9.20003669
   8.08287052  2.00722099  9.09524965
   8.13972397  3.61691428  6.92038081
   6.60748268  1.20102645  6.84233432
   6.78709547  1.18522515  1.14923670
   3.76654481  4.28942896  2.79191094
   1.27411150  1.28965530  6.85361575
   1.08321683  1.26579552  0.86116039
   6.75768865  9.17044452  2.98649792
   6.67591482  4.40284011  9.16324233
   8.11380504  5.27352740  4.83170574
  10.82065384  6.81698261  9.15137963
  14.86748747  7.46195479  4.73690904
  12.29304874  5.97485626  6.96694371
   6.66551417  6.03659947  6.90904082
   3.69611280  2.62220721  4.96528240
  10.84750176  5.30333240  4.87795483
   3.95956367  6.07773829  7.01924472
  13.54013713  8.23684812  1.21769172
   5.32876904  8.26420554  1.06683310
   4.07872348  6.18643805  1.16962540
   8.23292784  2.23943355  2.94956001
   9.50196967  9.12028159  2.95365854
   2.51418044  3.67713827  7.05493999
   2.17812787  3.60438329  0.95905241
  10.81854706  2.10615528  2.90556873
  13.56980708  5.15767259  4.91631614
   3.95664978  1.09594054  7.01322915
   9.46344615  5.99865759  7.03518101
   3.84081665  1.07507655  1.08740358
   9.54360111  5.99173566  1.07418236
   5.53325542  3.67382684  1.11237413
  12.12391093  9.03535119  3.02481924
  12.19001410  7.56077667  4.85799630
  13.29175221  6.60250608  2.91585159
   9.48696101  4.40598797  2.86727693
   8.12941769  8.36081641  6.98361062
   8.22572396  8.40043513  1.02038156
  10.81469861  6.88845902  2.87925273
   2.70342022  0.21102363  5.02246627
   8.11520240  3.66905975  0.89877812
   5.28376640  1.95964267  3.04931611
   5.61899210  6.74655889  3.08047284
   8.07790953  0.54162477  4.83808406
   9.49361429  1.23162695  6.89364951
  10.81736124  8.34459911  6.95285895
   9.44996985  1.23982809  0.91972464
  10.87066461  8.40541820  0.93111538
   5.26790923  5.13151797  4.87791390
  12.14667424  2.91119613  4.91941612
  15.01485015  9.35842080  2.95366751
   9.57358561  2.84461955  4.96726068
   6.69370223  2.85115693  4.88284582
  12.12773486  4.35210787  2.88487863
   2.46535630  1.93297263  2.91282356
  12.08906533  5.94122750  0.99380383
   6.74615738  5.97802458  1.08729710
   8.23740307  6.87146547  2.88707340
   6.80581242  4.34717479  2.90753677
  10.89278053  3.69326187  7.01030362
  10.76625790  3.58716396  0.97094843
  10.88657438  0.63149474  4.87039779
   9.52479099  7.61650941  4.98098015
   6.95957939  7.62759781  4.96169511
   5.23455253  0.23107491  4.94671213
   3.21267108  3.24573471 10.00383375
 


--------------------------------------------------------------------------------------------------------


 k-point  1 :   0.0000 0.0000 0.0000  plane waves:   68137
 k-point  2 :   0.5000 0.0000 0.0000  plane waves:   68322
 k-point  3 :   0.0000 0.5000 0.0000  plane waves:   68322
 k-point  4 :   0.5000 0.5000 0.0000  plane waves:   68322

 maximum and minimum number of plane-waves per node :     17102    17020

 maximum number of plane-waves:     68322
 maximum index in each direction: 
   IXMAX=   21   IYMAX=   21   IZMAX=   42
   IXMIN=  -21   IYMIN=  -21   IZMIN=  -42


 real space projection operators:
  total allocation   :      81433.48 KBytes
  max/ min on nodes  :      20824.41      19899.15


 parallel 3D FFT for wavefunctions:
    minimum data exchange during FFTs selected (reduces bandwidth)
 parallel 3D FFT for charge:
    minimum data exchange during FFTs selected (reduces bandwidth)


 total amount of memory used by VASP MPI-rank0   250371. kBytes
=======================================================================

   base      :      30000. kBytes
   nonlr-proj:      36797. kBytes
   fftplans  :      18292. kBytes
   grid      :      55120. kBytes
   one-center:        653. kBytes
   wavefun   :     109509. kBytes
 
     INWAV:  cpu time    0.0000: real time    0.0004
 Broyden mixing: mesh for mixing (old mesh)
   NGX = 43   NGY = 43   NGZ = 85
  (NGX  =180   NGY  =180   NGZ  =336)
  gives a total of 157165 points

 initial charge density was supplied:
 charge density of overlapping atoms calculated
 number of electron     778.0000000 magnetization     231.0000000
 keeping initial charge density in first step


--------------------------------------------------------------------------------------------------------


 Maximum index for non-local projection operator         2181
 Maximum index for augmentation-charges         1135 (set IRDMAX)


--------------------------------------------------------------------------------------------------------


 First call to EWALD:  gamma=   0.134
 Maximum number of real-space cells 4x 4x 2
 Maximum number of reciprocal cells 2x 2x 4

    FEWALD:  cpu time    0.0047: real time    0.0047


--------------------------------------- Iteration      1(   1)  ---------------------------------------


    POTLOK:  cpu time    0.4323: real time    0.4977
    SETDIJ:  cpu time    0.0333: real time    0.0335
     EDDAV:  cpu time   66.2818: real time   66.4803
       DOS:  cpu time    0.0034: real time    0.0711
    --------------------------------------------
      LOOP:  cpu time   66.7510: real time   67.0829

 eigenvalue-minimisations  :  9408
 total energy-change (2. order) : 0.7616428E+04  (-0.3282042E+05)
 number of electron     778.0000000 magnetization     231.0000000
 augmentation part      778.0000000 magnetization     231.0000000

 Free energy of the ion-electron system (eV)
  ---------------------------------------------------
  alpha Z        PSCENC =      2041.10282521
  Ewald energy   TEWEN  =    220738.60719703
  -Hartree energ DENC   =   -292407.92187062
  -exchange      EXHF   =         0.00000000
  -V(xc)+E(xc)   XCENC  =      1374.55245263
  PAW double counting   =     64136.80006862   -66038.70876209
  entropy T*S    EENTRO =        -0.00499928
  eigenvalues    EBANDS =      7553.34644606
  atomic energy  EATOM  =     70218.65458108
  Solvation  Ediel_sol  =         0.00000000
  ---------------------------------------------------
  free energy    TOTEN  =      7616.42793863 eV

  energy without entropy =     7616.43293791  energy(sigma->0) =     7616.42960505


--------------------------------------------------------------------------------------------------------




--------------------------------------- Iteration      1(   2)  ---------------------------------------


     EDDAV:  cpu time   65.8719: real time   66.1407
       DOS:  cpu time    0.0025: real time    0.0029
    --------------------------------------------
      LOOP:  cpu time   65.8743: real time   66.1436

 eigenvalue-minimisations  :  9408
 total energy-change (2. order) :-0.6854111E+04  (-0.6148898E+04)
 number of electron     778.0000000 magnetization     231.0000000
 augmentation part      778.0000000 magnetization     231.0000000

 Free energy of the ion-electron system (eV)
  ---------------------------------------------------
  alpha Z        PSCENC =      2041.10282521
  Ewald energy   TEWEN  =    220738.60719703
  -Hartree energ DENC   =   -292407.92187062
  -exchange      EXHF   =         0.00000000
  -V(xc)+E(xc)   XCENC  =      1374.55245263
  PAW double counting   =     64136.80006862   -66038.70876209
  entropy T*S    EENTRO =         0.00089304
  eigenvalues    EBANDS =       699.22911687
  atomic energy  EATOM  =     70218.65458108
  Solvation  Ediel_sol  =         0.00000000
  ---------------------------------------------------
  free energy    TOTEN  =       762.31650177 eV

  energy without entropy =      762.31560873  energy(sigma->0) =      762.31620409


--------------------------------------------------------------------------------------------------------




--------------------------------------- Iteration      1(   3)  ---------------------------------------


     EDDAV:  cpu time   66.0731: real time   66.3016
       DOS:  cpu time    0.0025: real time    0.0071
    --------------------------------------------
      LOOP:  cpu time   66.0756: real time   66.3087

 eigenvalue-minimisations  :  9408
 total energy-change (2. order) :-0.1138901E+04  (-0.9228359E+03)
 number of electron     778.0000000 magnetization     231.0000000
 augmentation part      778.0000000 magnetization     231.0000000

 Free energy of the ion-electron system (eV)
  ---------------------------------------------------
  alpha Z        PSCENC =      2041.10282521
  Ewald energy   TEWEN  =    220738.60719703
  -Hartree energ DENC   =   -292407.92187062
  -exchange      EXHF   =         0.00000000
  -V(xc)+E(xc)   XCENC  =      1374.55245263
  PAW double counting   =     64136.80006862   -66038.70876209
  entropy T*S    EENTRO =        -0.00041315
  eigenvalues    EBANDS =      -439.67024088
  atomic energy  EATOM  =     70218.65458108
  Solvation  Ediel_sol  =         0.00000000
  ---------------------------------------------------
  free energy    TOTEN  =      -376.58416218 eV

  energy without entropy =     -376.58374903  energy(sigma->0) =     -376.58402447


--------------------------------------------------------------------------------------------------------




--------------------------------------- Iteration      1(   4)  ---------------------------------------


     EDDAV:  cpu time   79.5747: real time   79.8496
       DOS:  cpu time    0.0027: real time    0.0167
    --------------------------------------------
      LOOP:  cpu time   79.5774: real time   79.8664

 eigenvalue-minimisations  : 11904
 total energy-change (2. order) :-0.1133883E+03  (-0.1032174E+03)
 number of electron     778.0000000 magnetization     231.0000000
 augmentation part      778.0000000 magnetization     231.0000000

 Free energy of the ion-electron system (eV)
  ---------------------------------------------------
  alpha Z        PSCENC =      2041.10282521
  Ewald energy   TEWEN  =    220738.60719703
  -Hartree energ DENC   =   -292407.92187062
  -exchange      EXHF   =         0.00000000
  -V(xc)+E(xc)   XCENC  =      1374.55245263
  PAW double counting   =     64136.80006862   -66038.70876209
  entropy T*S    EENTRO =        -0.00687023
  eigenvalues    EBANDS =      -553.05213350
  atomic energy  EATOM  =     70218.65458108
  Solvation  Ediel_sol  =         0.00000000
  ---------------------------------------------------
  free energy    TOTEN  =      -489.97251188 eV

  energy without entropy =     -489.96564165  energy(sigma->0) =     -489.97022180


--------------------------------------------------------------------------------------------------------




--------------------------------------- Iteration      1(   5)  ---------------------------------------


     EDDAV:  cpu time   74.7820: real time   75.1302
       DOS:  cpu time    0.0027: real time    0.0067
    CHARGE:  cpu time    4.4093: real time    4.4210
    MIXING:  cpu time    0.0114: real time    0.0118
    --------------------------------------------
      LOOP:  cpu time   79.2055: real time   79.5697

 eigenvalue-minimisations  : 11076
 total energy-change (2. order) :-0.4396977E+01  (-0.4357692E+01)
 number of electron     778.0000018 magnetization     216.7075044
 augmentation part      335.4809494 magnetization     183.5994785

 Broyden mixing:
  rms(total) = 0.11273E+02    rms(broyden)= 0.11273E+02
  rms(prec ) = 0.11665E+02
  weight for this iteration     100.00

 Free energy of the ion-electron system (eV)
  ---------------------------------------------------
  alpha Z        PSCENC =      2041.10282521
  Ewald energy   TEWEN  =    220738.60719703
  -Hartree energ DENC   =   -292407.92187062
  -exchange      EXHF   =         0.00000000
  -V(xc)+E(xc)   XCENC  =      1374.55245263
  PAW double counting   =     64136.80006862   -66038.70876209
  entropy T*S    EENTRO =        -0.00567884
  eigenvalues    EBANDS =      -557.45030154
  atomic energy  EATOM  =     70218.65458108
  Solvation  Ediel_sol  =         0.00000000
  ---------------------------------------------------
  free energy    TOTEN  =      -494.36948853 eV

  energy without entropy =     -494.36380969  energy(sigma->0) =     -494.36759558


--------------------------------------------------------------------------------------------------------




--------------------------------------- Iteration      1(   6)  ---------------------------------------


    POTLOK:  cpu time    0.4220: real time    0.4766
    SETDIJ:  cpu time    0.0335: real time    0.0336
    EDDIAG:  cpu time   11.8655: real time   11.9075
  RMM-DIIS:  cpu time   43.2392: real time   43.3680
    ORTHCH:  cpu time    1.2463: real time    1.2497
       DOS:  cpu time    0.0024: real time    0.0024
    CHARGE:  cpu time    4.3216: real time    4.3332
    MIXING:  cpu time    0.0116: real time    0.0131
    --------------------------------------------
      LOOP:  cpu time   61.1420: real time   61.3841

 eigenvalue-minimisations  :  9690
 total energy-change (2. order) :-0.2699458E+03  (-0.1034022E+03)
 number of electron     778.0000022 magnetization     213.1855144
 augmentation part      407.6871204 magnetization     178.1796997

 Broyden mixing:
  rms(total) = 0.21594E+02    rms(broyden)= 0.21594E+02
  rms(prec ) = 0.28539E+02
  weight for this iteration     100.00

 eigenvalues of (default mixing * dielectric matrix)
  average eigenvalue GAMMA=   0.1887
  0.1887

 Free energy of the ion-electron system (eV)
  ---------------------------------------------------
  alpha Z        PSCENC =      2041.10282521
  Ewald energy   TEWEN  =    220738.60719703
  -Hartree energ DENC   =   -290799.25958172
  -exchange      EXHF   =         0.00000000
  -V(xc)+E(xc)   XCENC  =      1332.26208674
  PAW double counting   =     68437.76835685   -70113.14101410
  entropy T*S    EENTRO =         0.00875383
  eigenvalues    EBANDS =     -2620.31849389
  atomic energy  EATOM  =     70218.65458108
  Solvation  Ediel_sol  =         0.00000000
  ---------------------------------------------------
  free energy    TOTEN  =      -764.31528899 eV

  energy without entropy =     -764.32404282  energy(sigma->0) =     -764.31820693


--------------------------------------------------------------------------------------------------------




--------------------------------------- Iteration      1(   7)  ---------------------------------------


    POTLOK:  cpu time    0.4051: real time    0.4141
    SETDIJ:  cpu time    0.0334: real time    0.0336
    EDDIAG:  cpu time   11.9231: real time   11.9816
  RMM-DIIS:  cpu time   41.9970: real time   42.1849
    ORTHCH:  cpu time    1.2472: real time    1.2506
       DOS:  cpu time    0.0025: real time    0.0025
    CHARGE:  cpu time    4.3057: real time    4.3208
    MIXING:  cpu time    0.0120: real time    0.0121
    --------------------------------------------
      LOOP:  cpu time   59.9259: real time   60.2001

 eigenvalue-minimisations  :  9429
 total energy-change (2. order) : 0.2769477E+03  (-0.1597159E+02)
 number of electron     778.0000021 magnetization     208.4861370
 augmentation part      374.9979341 magnetization     164.8894113

 Broyden mixing:
  rms(total) = 0.14059E+02    rms(broyden)= 0.14059E+02
  rms(prec ) = 0.17903E+02
  weight for this iteration     100.00

 eigenvalues of (default mixing * dielectric matrix)
  average eigenvalue GAMMA=   0.2548
  0.3330  0.1765

 Free energy of the ion-electron system (eV)
  ---------------------------------------------------
  alpha Z        PSCENC =      2041.10282521
  Ewald energy   TEWEN  =    220738.60719703
  -Hartree energ DENC   =   -291447.69689159
  -exchange      EXHF   =         0.00000000
  -V(xc)+E(xc)   XCENC  =      1349.80680094
  PAW double counting   =     69344.56343925   -71167.70442265
  entropy T*S    EENTRO =        -0.00544736
  eigenvalues    EBANDS =     -1564.69569139
  atomic energy  EATOM  =     70218.65458108
  Solvation  Ediel_sol  =         0.00000000
  ---------------------------------------------------
  free energy    TOTEN  =      -487.36760948 eV

  energy without entropy =     -487.36216212  energy(sigma->0) =     -487.36579369


--------------------------------------------------------------------------------------------------------




--------------------------------------- Iteration      1(   8)  ---------------------------------------


    POTLOK:  cpu time    0.4117: real time    0.4138
    SETDIJ:  cpu time    0.0338: real time    0.0339
    EDDIAG:  cpu time   11.8542: real time   11.9282
  RMM-DIIS:  cpu time   42.2104: real time   42.3245
    ORTHCH:  cpu time    1.2452: real time    1.2486
       DOS:  cpu time    0.0024: real time    0.0024
    CHARGE:  cpu time    4.2247: real time    4.2359
    MIXING:  cpu time    0.0122: real time    0.0124
    --------------------------------------------
      LOOP:  cpu time   59.9946: real time   60.1998

 eigenvalue-minimisations  :  9435
 total energy-change (2. order) : 0.1993182E+02  (-0.1468531E+02)
 number of electron     778.0000020 magnetization     201.1930771
 augmentation part      375.9021054 magnetization     163.3012962

 Broyden mixing:
  rms(total) = 0.15818E+02    rms(broyden)= 0.15818E+02
  rms(prec ) = 0.18463E+02
  weight for this iteration     100.00

 eigenvalues of (default mixing * dielectric matrix)
  average eigenvalue GAMMA=   0.3145
  0.5882  0.2693  0.0861

 Free energy of the ion-electron system (eV)
  ---------------------------------------------------
  alpha Z        PSCENC =      2041.10282521
  Ewald energy   TEWEN  =    220738.60719703
  -Hartree energ DENC   =   -291648.96848932
  -exchange      EXHF   =         0.00000000
  -V(xc)+E(xc)   XCENC  =      1357.18809565
  PAW double counting   =     70472.11602207   -72374.05265311
  entropy T*S    EENTRO =        -0.00309557
  eigenvalues    EBANDS =     -1272.08027458
  atomic energy  EATOM  =     70218.65458108
  Solvation  Ediel_sol  =         0.00000000
  ---------------------------------------------------
  free energy    TOTEN  =      -467.43579155 eV

  energy without entropy =     -467.43269598  energy(sigma->0) =     -467.43475970


--------------------------------------------------------------------------------------------------------




--------------------------------------- Iteration      1(   9)  ---------------------------------------


    POTLOK:  cpu time    0.4110: real time    0.4132
    SETDIJ:  cpu time    0.0337: real time    0.0337
    EDDIAG:  cpu time   11.9071: real time   11.9395
  RMM-DIIS:  cpu time   42.2955: real time   42.4102
    ORTHCH:  cpu time    1.2398: real time    1.2485
       DOS:  cpu time    0.0026: real time    0.0026
    CHARGE:  cpu time    4.2976: real time    4.3089
    MIXING:  cpu time    0.0126: real time    0.0127
    --------------------------------------------
      LOOP:  cpu time   60.1999: real time   60.3692

 eigenvalue-minimisations  :  9448
 total energy-change (2. order) : 0.5609027E+02  (-0.1643121E+02)
 number of electron     778.0000020 magnetization     193.7436564
 augmentation part      378.7209016 magnetization     146.5661381

 Broyden mixing:
  rms(total) = 0.13488E+02    rms(broyden)= 0.13488E+02
  rms(prec ) = 0.15283E+02
  weight for this iteration     100.00

 eigenvalues of (default mixing * dielectric matrix)
  average eigenvalue GAMMA=   0.3477
  0.8134  0.3550  0.1111  0.1111

 Free energy of the ion-electron system (eV)
  ---------------------------------------------------
  alpha Z        PSCENC =      2041.10282521
  Ewald energy   TEWEN  =    220738.60719703
  -Hartree energ DENC   =   -291461.33112119
  -exchange      EXHF   =         0.00000000
  -V(xc)+E(xc)   XCENC  =      1375.15982019
  PAW double counting   =     71791.68891646   -73751.92963481
  entropy T*S    EENTRO =         0.00430665
  eigenvalues    EBANDS =     -1363.30240911
  atomic energy  EATOM  =     70218.65458108
  Solvation  Ediel_sol  =         0.00000000
  ---------------------------------------------------
  free energy    TOTEN  =      -411.34551850 eV

  energy without entropy =     -411.34982515  energy(sigma->0) =     -411.34695405


--------------------------------------------------------------------------------------------------------




--------------------------------------- Iteration      1(  10)  ---------------------------------------


    POTLOK:  cpu time    0.4109: real time    0.4132
    SETDIJ:  cpu time    0.0339: real time    0.0340
[...]
   -.861E+01 0.429E+02 -.276E+04   0.902E+01 -.425E+02 0.276E+04   -.391E+00 -.404E+00 0.144E+01   -.253E-01 0.116E-01 0.309E-01
   -.321E+02 -.123E+02 -.276E+04   0.315E+02 0.129E+02 0.275E+04   0.650E+00 -.621E+00 0.968E+00   -.295E-02 0.127E-01 -.469E-01
   0.295E+02 0.614E+01 -.275E+04   -.291E+02 -.647E+01 0.275E+04   -.404E+00 0.291E+00 0.183E+01   0.625E-02 0.222E-01 0.346E-01
   -.333E+02 -.108E+02 -.281E+04   0.326E+02 0.104E+02 0.281E+04   0.744E+00 0.332E+00 0.262E+01   -.105E-01 -.166E-01 -.381E-01
   0.169E+02 -.291E+02 -.282E+04   -.174E+02 0.291E+02 0.281E+04   0.471E+00 -.811E-02 0.261E+01   0.120E-01 0.107E-02 0.953E-02
   -.270E+02 0.302E+02 -.279E+04   0.263E+02 -.301E+02 0.279E+04   0.677E+00 -.998E-01 0.185E+01   -.756E-02 0.308E-01 -.252E-03
   -.867E+00 0.192E+02 -.276E+04   0.148E+01 -.186E+02 0.276E+04   -.581E+00 -.582E+00 0.753E+00   -.183E-01 -.905E-02 -.358E-01
   -.357E+02 -.134E+02 -.280E+04   0.356E+02 0.129E+02 0.280E+04   0.124E+00 0.484E+00 0.146E+01   -.700E-02 0.287E-02 -.116E-02
   -.255E+02 -.198E+01 -.277E+04   0.257E+02 0.205E+01 0.277E+04   -.219E+00 -.877E-01 0.199E+01   0.616E-03 0.789E-02 0.918E-02
   0.447E+01 -.414E+02 -.277E+04   -.380E+01 0.403E+02 0.277E+04   -.681E+00 0.122E+01 0.227E+01   0.556E-02 -.152E-01 -.193E-01
   0.475E+02 0.181E+02 -.280E+04   -.467E+02 -.178E+02 0.279E+04   -.787E+00 -.263E+00 0.227E+01   0.247E-01 -.530E-02 0.279E-01
   0.422E+02 -.700E+00 -.282E+04   -.416E+02 0.133E+01 0.281E+04   -.633E+00 -.581E+00 0.219E+01   0.106E-01 -.282E-01 -.227E-01
   -.386E+01 -.128E+02 -.275E+04   0.336E+01 0.120E+02 0.275E+04   0.530E+00 0.739E+00 0.186E+01   -.179E-01 0.599E-02 0.975E-02
   0.312E+02 -.550E+01 -.280E+04   -.310E+02 0.572E+01 0.280E+04   -.199E+00 -.255E+00 0.189E+01   0.158E-01 0.136E-01 -.127E-01
   0.796E+02 -.558E+02 -.147E+04   -.784E+02 0.561E+02 0.147E+04   -.118E+01 -.211E+00 0.158E+01   0.245E-01 -.305E-01 0.106E-01
   0.218E+02 -.394E+02 -.142E+04   -.229E+02 0.391E+02 0.141E+04   0.112E+01 0.282E+00 0.235E+01   0.366E-02 -.206E-01 -.470E-01
   0.596E+02 0.337E+02 0.281E+04   -.594E+02 -.337E+02 -.281E+04   -.358E+00 0.118E+00 -.282E+01   -.500E-02 -.216E-01 0.218E-01
   -.137E+02 -.311E+02 0.164E+04   0.126E+02 0.316E+02 -.164E+04   0.122E+01 -.474E+00 0.129E+01   -.114E-01 -.371E-02 -.466E-02
   -.547E+02 0.177E+02 -.141E+04   0.558E+02 -.171E+02 0.141E+04   -.113E+01 -.586E+00 0.200E+01   -.401E-02 0.433E-01 0.320E-02
   -.710E+02 0.941E+02 0.293E+04   0.715E+02 -.925E+02 -.293E+04   -.492E+00 -.164E+01 -.270E+01   0.103E-01 -.982E-02 -.324E-02
   0.400E+02 -.481E+02 0.151E+04   -.398E+02 0.475E+02 -.151E+04   -.310E+00 0.616E+00 -.730E+00   0.269E-01 0.511E-02 -.641E-01
   0.164E+02 0.275E+01 -.277E+04   -.165E+02 -.259E+01 0.277E+04   0.105E+00 -.173E+00 0.173E+01   0.232E-01 -.163E-01 -.464E-02
   0.113E+02 0.121E+02 -.571E+01   -.113E+02 -.117E+02 0.484E+01   -.162E+00 -.386E+00 0.842E+00   0.205E-01 -.306E-01 -.229E-01
   -.182E+02 0.117E+02 -.282E+04   0.177E+02 -.118E+02 0.281E+04   0.459E+00 0.144E+00 0.208E+01   -.193E-03 0.260E-02 -.447E-02
   -.103E+02 0.292E+02 0.148E+03   0.919E+01 -.307E+02 -.147E+03   0.125E+01 0.166E+01 -.263E+00   -.592E-01 -.645E-03 -.339E-01
   -.759E+02 0.254E+01 -.142E+04   0.766E+02 -.375E+01 0.142E+04   -.763E+00 0.124E+01 0.261E+01   -.208E-01 0.148E-01 -.465E-01
   0.489E+02 0.297E+02 -.144E+04   -.489E+02 -.289E+02 0.144E+04   -.257E-01 -.784E+00 0.210E+01   0.385E-02 -.372E-01 0.274E-02
   -.201E+02 -.767E+02 -.535E+02   0.191E+02 0.762E+02 0.538E+02   0.104E+01 0.490E+00 -.159E+00   0.137E-01 -.154E-01 -.204E-01
   -.348E+02 -.207E+02 -.791E+01   0.353E+02 0.214E+02 0.748E+01   -.523E+00 -.730E+00 0.452E+00   0.282E-01 0.106E-01 -.301E-02
   0.134E+02 0.131E+02 -.113E+04   -.134E+02 -.133E+02 0.113E+04   -.172E-01 0.251E+00 0.306E+00   -.265E-01 -.539E-02 -.117E-01
   -.851E+02 0.574E+01 0.225E+04   0.856E+02 -.695E+01 -.224E+04   -.457E+00 0.126E+01 -.284E+01   -.130E-01 0.432E-02 0.167E-01
   0.367E+02 -.119E+02 0.231E+04   -.371E+02 0.100E+02 -.231E+04   0.553E+00 0.195E+01 -.305E+01   0.533E-02 0.291E-02 -.763E-02
   0.597E+02 0.349E+02 0.225E+04   -.590E+02 -.332E+02 -.225E+04   -.661E+00 -.172E+01 -.289E+01   -.815E-02 0.523E-02 0.587E-03
   0.479E+02 0.806E+02 0.119E+04   -.469E+02 -.797E+02 -.119E+04   -.984E+00 -.819E+00 -.400E-01   -.167E-01 -.139E-01 -.467E-02
   0.213E+02 -.885E+02 0.121E+04   -.213E+02 0.880E+02 -.121E+04   -.137E+00 0.456E+00 -.540E+00   0.321E-01 0.892E-02 -.592E-02
   -.673E+02 -.194E+02 -.119E+04   0.675E+02 0.195E+02 0.119E+04   -.192E+00 -.158E+00 0.387E+00   -.199E-01 -.188E-02 -.141E-01
   -.200E+03 -.360E+01 0.236E+04   0.197E+03 0.324E+01 -.236E+04   0.212E+01 0.333E+00 -.380E+01   0.972E-03 -.264E-02 0.325E-02
   -.443E+02 0.697E+02 0.123E+04   0.434E+02 -.692E+02 -.123E+04   0.940E+00 -.633E+00 -.531E+00   0.177E-02 0.117E-01 -.240E-01
   -.824E+02 -.371E+01 -.164E+02   0.823E+02 0.413E+01 0.165E+02   0.207E+00 -.495E+00 -.215E+00   -.223E-01 0.512E-02 -.157E-01
   0.178E+02 -.930E+02 -.119E+04   -.180E+02 0.928E+02 0.119E+04   0.179E+00 0.214E+00 0.745E+00   0.252E-01 0.778E-02 -.302E-01
   0.161E+02 0.229E+02 -.119E+04   -.163E+02 -.230E+02 0.119E+04   0.195E+00 0.879E-01 -.192E+00   0.333E-01 -.261E-01 -.546E-02
   -.220E+02 -.106E+03 0.230E+04   0.208E+02 0.104E+03 -.230E+04   0.122E+01 0.211E+01 -.330E+01   -.254E-02 -.175E-01 0.688E-02
   0.304E+02 -.368E+02 0.263E+04   -.302E+02 0.369E+02 -.263E+04   -.212E+00 -.960E-01 -.301E+01   0.407E-02 0.221E-01 0.108E-01
   0.202E+03 0.429E+02 0.261E+04   -.201E+03 -.420E+02 -.261E+04   -.762E+00 -.943E+00 -.316E+01   -.491E-02 -.737E-02 0.526E-02
   -.781E+02 -.583E+02 0.132E+04   0.774E+02 0.572E+02 -.132E+04   0.708E+00 0.112E+01 -.148E+00   -.188E-01 -.406E-02 0.283E-01
   -.987E+02 0.334E+02 0.222E+02   0.988E+02 -.334E+02 -.225E+02   -.765E-01 -.999E-01 0.287E+00   -.820E-02 0.268E-01 -.296E-01
   -.169E+03 -.359E+01 0.135E+04   0.169E+03 0.413E+01 -.135E+04   0.766E-01 -.606E+00 -.957E-01   -.231E-01 0.206E-01 0.902E-02
   -.596E+01 -.123E+02 0.133E+04   0.615E+01 0.120E+02 -.133E+04   -.189E+00 0.466E+00 -.250E+00   0.796E-02 -.979E-02 0.850E-02
   0.557E+02 -.773E+00 -.136E+04   -.557E+02 0.718E+00 0.136E+04   -.143E+00 0.785E-01 0.763E+00   0.294E-01 0.160E-01 0.379E-02
   0.826E+02 -.599E+02 0.264E+04   -.817E+02 0.601E+02 -.264E+04   -.860E+00 -.293E+00 -.334E+01   -.134E-02 0.181E-01 -.227E-02
   -.301E+02 -.167E+01 0.134E+04   0.302E+02 0.199E+01 -.134E+04   -.108E+00 -.373E+00 -.565E+00   0.367E-01 0.355E-01 0.199E-01
   0.475E+02 -.933E+02 -.229E+02   -.467E+02 0.928E+02 0.233E+02   -.835E+00 0.501E+00 -.438E+00   0.568E-01 0.345E-01 -.410E-01
   0.686E+02 0.359E+02 0.328E+04   -.687E+02 -.349E+02 -.328E+04   0.867E-01 -.893E+00 -.420E+01   -.729E-02 -.238E-01 0.411E-02
   0.650E+02 -.130E+02 0.162E+04   -.654E+02 0.125E+02 -.163E+04   0.320E+00 0.598E+00 0.231E-01   0.685E-02 -.453E-01 0.213E-01
   0.185E+03 -.411E+02 0.154E+04   -.185E+03 0.416E+02 -.154E+04   -.209E+00 -.525E+00 -.589E-02   -.183E-01 -.672E-02 -.447E-01
   0.311E+02 0.879E+02 0.124E+03   -.317E+02 -.876E+02 -.124E+03   0.636E+00 -.352E+00 -.183E+00   -.785E-01 -.203E-01 -.282E-01
   0.909E+01 0.708E+02 -.160E+04   -.861E+01 -.709E+02 0.160E+04   -.437E+00 -.137E-01 0.819E+00   -.355E-01 0.366E-01 0.554E-02
   -.523E+02 0.217E+02 -.163E+04   0.515E+02 -.215E+02 0.163E+04   0.862E+00 -.157E+00 0.163E+01   0.479E-01 0.167E-01 -.525E-01
   0.199E+02 0.156E+03 0.322E+04   -.197E+02 -.156E+03 -.322E+04   -.241E+00 -.895E-01 -.361E+01   -.438E-02 -.783E-02 0.136E-02
   -.412E+02 -.961E+02 0.326E+04   0.403E+02 0.961E+02 -.325E+04   0.821E+00 0.621E-02 -.365E+01   0.348E-02 0.217E-01 0.337E-01
   0.135E+03 0.421E+01 0.921E+01   -.136E+03 -.415E+01 -.861E+01   0.159E+00 -.115E+00 -.689E+00   -.180E-01 -.334E-01 -.374E-01
   -.141E+03 -.193E+02 0.356E+01   0.141E+03 0.190E+02 -.331E+01   0.442E+00 0.336E+00 -.272E+00   0.122E-01 0.399E-01 -.113E-02
   0.322E+01 0.140E+03 0.168E+04   -.314E+01 -.139E+03 -.168E+04   0.131E-01 -.987E+00 -.112E+01   -.453E-01 -.941E-02 -.327E-01
   0.405E+02 -.492E+02 -.170E+01   -.400E+02 0.482E+02 0.155E+01   -.478E+00 0.119E+01 0.760E-02   -.747E-02 0.250E-01 -.173E-02
   0.790E+02 -.453E+01 0.231E+01   -.782E+02 0.439E+01 -.191E+01   -.861E+00 0.217E+00 -.341E+00   -.129E-01 -.445E-01 -.169E-01
   -.118E+03 -.983E+01 0.148E+04   0.118E+03 0.101E+02 -.148E+04   0.557E+00 -.203E+00 -.571E+00   0.879E-02 0.113E-01 0.102E-02
   -.550E+02 0.427E+01 0.155E+04   0.555E+02 -.461E+01 -.155E+04   -.458E+00 0.360E+00 -.593E+00   0.165E-01 -.676E-03 -.124E-01
   -.165E+03 -.283E+02 0.296E+04   0.164E+03 0.281E+02 -.296E+04   0.228E-01 0.976E-01 -.265E+01   0.213E-01 0.116E-01 0.184E-01
   0.938E+02 -.662E+02 0.294E+04   -.945E+02 0.665E+02 -.294E+04   0.873E+00 -.298E+00 -.163E+01   -.954E-02 0.177E-01 -.386E-02
   0.280E+02 -.300E+02 0.153E+04   -.277E+02 0.299E+02 -.153E+04   -.369E+00 0.155E+00 0.105E-01   0.122E-01 0.234E-01 -.335E-01
   0.101E+03 0.100E+02 0.148E+04   -.100E+03 -.100E+02 -.148E+04   -.837E+00 0.552E-01 -.599E+00   -.336E-02 -.178E-01 -.539E-02
   -.349E+02 -.440E+02 -.150E+04   0.349E+02 0.441E+02 0.150E+04   -.706E-03 -.151E+00 0.164E+00   0.216E-02 0.121E-01 -.162E-02
   -.476E+02 0.196E+02 0.294E+04   0.480E+02 -.189E+02 -.293E+04   -.396E+00 -.559E+00 -.197E+01   0.153E-01 -.177E-01 0.168E-02
   -.507E+02 0.131E+03 0.794E+02   0.510E+02 -.131E+03 -.791E+02   -.353E+00 -.327E+00 -.373E+00   -.959E-02 0.232E-01 -.267E-01
   -.478E+01 0.537E+02 -.374E+02   0.462E+01 -.530E+02 0.373E+02   0.106E+00 -.838E+00 -.104E-01   0.792E-01 0.243E-01 -.426E-01
   0.119E+03 -.138E+02 -.487E+02   -.118E+03 0.145E+02 0.489E+02   -.437E+00 -.738E+00 -.350E+00   0.424E-02 -.370E-02 -.476E-01
   -.237E+02 -.955E+02 0.182E+02   0.232E+02 0.952E+02 -.181E+02   0.360E+00 0.420E+00 -.675E-01   0.403E-01 -.362E-02 -.394E-01
   -.223E+01 0.236E+00 -.330E+03   0.231E+01 -.962E-01 0.332E+03   -.516E-01 -.146E+00 -.179E+01   -.154E-02 -.118E-02 0.143E-02
 -----------------------------------------------------------------------------------------------
   -.199E+01 0.481E+00 0.589E+01   -.195E-13 -.392E-12 0.620E-11   0.194E+01 -.498E+00 -.508E+01   0.448E-01 0.340E-01 -.782E+00
 
 
 POSITION                                       TOTAL-FORCE (eV/Angst)
 -----------------------------------------------------------------------------------
     13.57129      8.44201      6.82860         0.005257     -0.013914     -0.010774
      5.35797      8.44630      6.73671        -0.011244     -0.026938      0.000879
      5.16356      3.63394      6.93731         0.008908      0.021993      0.021556
     15.02311      9.23366      9.05045        -0.003126     -0.018321      0.027944
      3.91178      4.48935      9.25404         0.008082     -0.003905      0.015031
      6.71849      9.19000      9.03690         0.015428      0.012422      0.032124
     12.20071      4.39385      9.19155        -0.010115     -0.006091      0.030304
      9.45617      9.16543      9.10604        -0.010848      0.017404     -0.008127
     10.81625      2.01622      9.05246         0.003821     -0.001428     -0.014267
      2.56522      2.00348      9.18427        -0.019868     -0.021548      0.002805
     12.21383      9.17528      9.11229         0.023156      0.016552     -0.004739
     13.62666      6.85616      9.16618        -0.007408     -0.010320      0.013607
      5.34523      1.95616      9.14026         0.014054      0.006787      0.016484
      8.11209      6.81434      9.12787         0.003722     -0.001202      0.003579
      9.49793      4.42435      9.14731        -0.012648      0.007930     -0.014539
      5.29504      6.81301      9.12070         0.003400     -0.008958      0.038642
      8.09032      1.99841      9.09501        -0.008214      0.004708     -0.014496
      8.14206      3.61249      6.91615        -0.004002      0.020749      0.017205
      6.60488      1.21776      6.83996        -0.006273     -0.019898      0.001370
      6.78710      1.18523      1.14924         0.004821     -0.006038     -0.010763
      3.76654      4.28943      2.79191        -0.016425     -0.023112      0.013565
      1.29120      1.30461      6.85049         0.009495      0.001054      0.031430
      1.08322      1.26580      0.86116        -0.008691     -0.021608     -0.013825
      6.75769      9.17044      2.98650         0.014062     -0.002066      0.015300
      6.69608      4.42011      9.16007        -0.005580     -0.021032     -0.010871
      8.11381      5.27353      4.83171         0.028350      0.004650     -0.022111
     10.84018      6.79668      9.15629        -0.024141      0.004816      0.002609
     14.86749      7.46195      4.73691         0.013342      0.029894     -0.043992
     12.30494      5.97056      6.96312        -0.009719     -0.020499     -0.000678
      6.67527      6.03711      6.89813        -0.020853     -0.000321      0.021349
      3.69611      2.62221      4.96528        -0.005210     -0.001867      0.049707
     10.84750      5.30333      4.87795         0.012410      0.004584      0.013493
      3.95640      6.08193      6.98533         0.007625     -0.001188      0.002685
     13.54014      8.23685      1.21769        -0.002260      0.000299      0.004758
      5.32877      8.26421      1.06683         0.002590     -0.012337     -0.018441
      4.07872      6.18644      1.16963         0.004796      0.001273     -0.006304
      8.23293      2.23943      2.94956        -0.016659      0.009966      0.013088
      9.50197      9.12028      2.95366         0.005665     -0.002980     -0.000371
      2.53472      3.67401      7.08851        -0.018467      0.002545      0.013063
      2.17813      3.60438      0.95905        -0.005265      0.002397      0.001411
     10.81855      2.10616      2.90557        -0.000042     -0.007361      0.017096
     13.56981      5.15767      4.91632         0.026567     -0.033199     -0.031790
      3.96339      1.07870      7.01035         0.003475      0.009455      0.016712
      9.46083      5.99714      7.04134         0.009739     -0.014067     -0.013178
      3.84082      1.07508      1.08740        -0.009642      0.001598      0.002866
      9.54360      5.99174      1.07418        -0.016096      0.026787      0.003916
      5.53326      3.67383      1.11237        -0.013342      0.020188     -0.007472
     12.12391      9.03535      3.02482         0.008285      0.002403     -0.004134
     12.19001      7.56078      4.85800        -0.017120      0.009367     -0.022290
     13.29175      6.60251      2.91585         0.003557     -0.007013      0.007825
      9.48696      4.40599      2.86728        -0.002071      0.023464      0.001515
      8.14599      8.36580      6.97185         0.023073     -0.002203      0.014282
      8.22572      8.40044      1.02038         0.020304     -0.005650      0.016599
     10.81470      6.88846      2.87925        -0.008540      0.001668     -0.012423
      2.70342      0.21102      5.02247         0.021244     -0.008868     -0.005027
      8.11520      3.66906      0.89878        -0.005737      0.001422     -0.006247
      5.28377      1.95964      3.04932        -0.003291      0.011831      0.002699
      5.61899      6.74656      3.08047         0.004858     -0.008427      0.002594
      8.07791      0.54162      4.83808        -0.005813      0.016953     -0.029393
      9.48783      1.24063      6.87646         0.012483      0.011436      0.008960
     10.81750      8.33322      6.95575         0.000310      0.004840     -0.021259
      9.44997      1.23983      0.91972        -0.004741     -0.006017     -0.010912
     10.87066      8.40542      0.93112        -0.016082     -0.012606     -0.001887
      5.26791      5.13152      4.87791        -0.004647     -0.009857     -0.009660
     12.14667      2.91120      4.91942         0.012085      0.031533     -0.011278
     15.01485      9.35842      2.95367        -0.006700      0.003473      0.013276
      9.57359      2.84462      4.96726         0.019988     -0.001029     -0.035771
      6.69370      2.85116      4.88285        -0.011036      0.024267     -0.002738
     12.12773      4.35211      2.88488        -0.005368      0.011090      0.009571
      2.46536      1.93297      2.91282         0.014679      0.003915      0.004836
     12.08907      5.94123      0.99380        -0.008345     -0.014097     -0.006949
      6.74616      5.97802      1.08730         0.010717      0.001751      0.011652
      8.23740      6.87147      2.88707         0.010886     -0.020875     -0.015427
      6.80581      4.34717      2.90754         0.007061     -0.000698      0.011037
     10.89485      3.69120      7.01278         0.000207      0.007113     -0.002400
     10.76626      3.58716      0.97095        -0.011723     -0.000700      0.002415
     10.88657      0.63149      4.87040        -0.039150      0.007928     -0.096392
      9.52479      7.61651      4.98098        -0.005217     -0.014227     -0.018692
      6.95958      7.62760      4.96170         0.007403      0.013185     -0.043524
      5.23455      0.23107      4.94671        -0.007486      0.003823      0.015723
      3.20293      3.20312     10.25573         0.023300     -0.007049      0.035581
 -----------------------------------------------------------------------------------
    total drift:                               -0.006340      0.016703      0.029998


--------------------------------------------------------------------------------------------------------



  FREE ENERGIE OF THE ION-ELECTRON SYSTEM (eV)
  ---------------------------------------------------
  free  energy   TOTEN  =      -504.53542751 eV

  energy  without entropy=     -504.54188321  energy(sigma->0) =     -504.53757941
 
 d Force = 0.4513563E-02[ 0.122E-02, 0.781E-02]  d Energy = 0.4532957E-02-0.194E-04
 d Force = 0.5061032E+02[ 0.505E+02, 0.507E+02]  d Ewald  = 0.5061043E+02-0.118E-03


--------------------------------------------------------------------------------------------------------


    POTLOK:  cpu time    0.4368: real time    0.4486


--------------------------------------------------------------------------------------------------------


 Conjugate gradient step on ions:
 trial-energy change:   -0.004533  1 .order   -0.004514   -0.007810   -0.001217
  (g-gl).g = 0.429E-02      g.g   = 0.420E-02  gl.gl    = 0.822E-02
 g(Force)  = 0.420E-02   g(Stress)= 0.000E+00 ortho     =-0.270E-03
 gamma     =   0.52176
 trial     =   1.92601
 opt step  =   2.28172  (harmonic =   2.28172) maximal distance =0.02184157
 next E    =  -504.535521   (d E  =  -0.00463)


--------------------------------------------------------------------------------------------------------


  
 reached required accuracy - stopping structural energy minimisation
     LOOP+:  cpu time  959.8871: real time  964.6631
    4ORBIT:  cpu time    0.0000: real time    0.0000

 total amount of memory used by VASP MPI-rank0   250371. kBytes
=======================================================================

   base      :      30000. kBytes
   nonlr-proj:      36797. kBytes
   fftplans  :      18292. kBytes
   grid      :      55120. kBytes
   one-center:        653. kBytes
   wavefun   :     109509. kBytes
 
  
  
 General timing and accounting informations for this job:
 ========================================================
  
                  Total CPU time used (sec):    17176.848
                            User time (sec):    16706.974
                          System time (sec):      469.874
                         Elapsed time (sec):    17277.339
  
                   Maximum memory used (kb):      441608.
                   Average memory used (kb):           0.
  
                          Minor page faults:      4094985
                          Major page faults:          211
                 Voluntary context switches:        11788
