 vasp.5.4.4.18Apr17-6-g9f103f2a35 (build Oct 25 2019 11:13:22) complex          
  
 executed on             LinuxIFC date 2022.02.21  20:13:31
 running on   48 total cores
 distrk:  each k-point on   48 cores,    1 groups
 distr:  one band on NCORES_PER_BAND=   4 cores,   12 groups


--------------------------------------------------------------------------------------------------------


 INCAR:
 POTCAR:    PAW_PBE Pt 04Feb2005                  
 POTCAR:    PAW_PBE Fe 06Sep2000                  
 POTCAR:    PAW_PBE Co 02Aug2007                  
 POTCAR:    PAW_PBE Cu 22Jun2005                  
 POTCAR:    PAW_PBE Ni 02Aug2007                  
 POTCAR:    PAW_PBE N 08Apr2002                   
 POTCAR:    PAW_PBE Pt 04Feb2005                  
   VRHFIN =Pt: s1d9                                                             
   LEXCH  = PE                                                                  
   EATOM  =   729.1176 eV,   53.5886 Ry                                         
                                                                                
   TITEL  = PAW_PBE Pt 04Feb2005                                                
   LULTRA =        F    use ultrasoft PP ?                                      
   IUNSCR =        1    unscreen: 0-lin 1-nonlin 2-no                           
   RPACOR =    2.330    partial core radius                                     
   POMASS =  195.080; ZVAL   =   10.000    mass and valenz                      
   RCORE  =    2.600    outmost cutoff radius                                   
   RWIGS  =    2.750; RWIGS  =    1.455    wigner-seitz radius (au A)           
   ENMAX  =  230.283; ENMIN  =  172.712 eV                                      
   ICORE  =        3    local potential                                         
   LCOR   =        T    correct aug charges                                     
   LPAW   =        T    paw PP                                                  
   EAUG   =  358.966                                                            
   DEXC   =    0.000                                                            
   RMAX   =    2.658    core radius for proj-oper                               
   RAUG   =    1.300    factor for augmentation sphere                          
   RDEP   =    2.761    radius for radial grids                                 
   RDEPT  =    2.203    core radius for aug-charge                              
                                                                                
   Atomic configuration                                                         
   16 entries                                                                   
     n  l   j            E        occ.                                          
     1  0  0.50    -78401.1885   2.0000                                         
     2  0  0.50    -13770.7750   2.0000                                         
     2  1  1.50    -11931.0468   6.0000                                         
     3  0  0.50     -3234.7234   2.0000                                         
     3  1  1.50     -2699.2216   6.0000                                         
     3  2  2.50     -2119.5714  10.0000                                         
     4  0  0.50      -695.1528   2.0000                                         
     4  1  1.50      -519.6034   6.0000                                         
     4  2  2.50      -306.6786  10.0000                                         
     4  3  3.50       -70.1041  14.0000                                         
     5  0  0.50      -101.7747   2.0000                                         
     5  1  1.50       -55.9873   6.0000                                         
     5  2  2.50        -6.1423   9.0000                                         
     6  0  0.50        -5.6573   1.0000                                         
     6  1  1.50        -6.8029   0.0000                                         
     5  3  2.50        -1.3606   0.0000                                         
   Description                                                                  
     l       E           TYP  RCUT    TYP  RCUT                                 
     2     -6.1423404     23  2.500                                             
     2     -7.5029230     23  2.500                                             
     0     -5.6573207     23  2.500                                             
     0      0.7416693     23  2.500                                             
     1     -2.7211652     23  2.600                                             
     1     20.4087390     23  2.600                                             
     3     -1.3605826     23  2.500                                             
  local pseudopotential read in
  partial core-charges read in
  partial kinetic energy density read in
  atomic valenz-charges read in
  non local Contribution for L=           2  read in
    real space projection operators read in
  non local Contribution for L=           2  read in
    real space projection operators read in
  non local Contribution for L=           0  read in
    real space projection operators read in
  non local Contribution for L=           0  read in
    real space projection operators read in
  non local Contribution for L=           1  read in
    real space projection operators read in
  non local Contribution for L=           1  read in
    real space projection operators read in
    PAW grid and wavefunctions read in
 
   number of l-projection  operators is LMAX  =           6
   number of lm-projection operators is LMMAX =          18
 
 POTCAR:    PAW_PBE Fe 06Sep2000                  
   VRHFIN =Fe:  d7 s1                                                           
   LEXCH  = PE                                                                  
   EATOM  =   594.3153 eV,   43.6809 Ry                                         
                                                                                
   TITEL  = PAW_PBE Fe 06Sep2000                                                
   LULTRA =        F    use ultrasoft PP ?                                      
   IUNSCR =        1    unscreen: 0-lin 1-nonlin 2-no                           
   RPACOR =    2.000    partial core radius                                     
   POMASS =   55.847; ZVAL   =    8.000    mass and valenz                      
   RCORE  =    2.300    outmost cutoff radius                                   
   RWIGS  =    2.460; RWIGS  =    1.302    wigner-seitz radius (au A)           
   ENMAX  =  267.882; ENMIN  =  200.911 eV                                      
   RCLOC  =    1.701    cutoff for local pot                                    
   LCOR   =        T    correct aug charges                                     
   LPAW   =        T    paw PP                                                  
   EAUG   =  511.368                                                            
   DEXC   =    0.000                                                            
   RMAX   =    2.356    core radius for proj-oper                               
   RAUG   =    1.300    factor for augmentation sphere                          
   RDEP   =    2.442    radius for radial grids                                 
   RDEPT  =    1.890    core radius for aug-charge                              
                                                                                
   Atomic configuration                                                         
    9 entries                                                                   
     n  l   j            E        occ.                                          
     1  0  0.50     -6993.8440   2.0000                                         
     2  0  0.50      -814.6047   2.0000                                         
     2  1  1.50      -693.3689   6.0000                                         
     3  0  0.50       -89.4732   2.0000                                         
     3  1  1.50       -55.6373   6.0000                                         
     3  2  2.50        -3.8151   7.0000                                         
     4  0  0.50        -4.2551   1.0000                                         
     4  1  1.50        -3.4015   0.0000                                         
     4  3  2.50        -1.3606   0.0000                                         
   Description                                                                  
     l       E           TYP  RCUT    TYP  RCUT                                 
     2     -3.8151135     23  2.300                                             
     2     -5.1756961     23  2.300                                             
     0     -4.2550963     23  2.300                                             
     0      7.2035603     23  2.300                                             
     1     -2.7211652     23  2.300                                             
     1     18.4316424     23  2.300                                             
  local pseudopotential read in
  partial core-charges read in
  partial kinetic energy density read in
  atomic valenz-charges read in
  non local Contribution for L=           2  read in
    real space projection operators read in
  non local Contribution for L=           2  read in
    real space projection operators read in
  non local Contribution for L=           0  read in
    real space projection operators read in
  non local Contribution for L=           0  read in
    real space projection operators read in
  non local Contribution for L=           1  read in
    real space projection operators read in
  non local Contribution for L=           1  read in
    real space projection operators read in
    PAW grid and wavefunctions read in
 
   number of l-projection  operators is LMAX  =           6
   number of lm-projection operators is LMMAX =          18
 
 POTCAR:    PAW_PBE Co 02Aug2007                  
   VRHFIN =Co: d8 s1                                                            
   LEXCH  = PE                                                                  
   EATOM  =   813.3670 eV,   59.7808 Ry                                         
                                                                                
   TITEL  = PAW_PBE Co 02Aug2007                                                
   LULTRA =        F    use ultrasoft PP ?                                      
   IUNSCR =        1    unscreen: 0-lin 1-nonlin 2-no                           
   RPACOR =    2.000    partial core radius                                     
   POMASS =   58.933; ZVAL   =    9.000    mass and valenz                      
   RCORE  =    2.300    outmost cutoff radius                                   
   RWIGS  =    2.460; RWIGS  =    1.302    wigner-seitz radius (au A)           
   ENMAX  =  267.968; ENMIN  =  200.976 eV                                      
   RCLOC  =    1.203    cutoff for local pot                                    
   LCOR   =        T    correct aug charges                                     
   LPAW   =        T    paw PP                                                  
   EAUG   =  477.818                                                            
   DEXC   =    0.000                                                            
   RMAX   =    2.360    core radius for proj-oper                               
   RAUG   =    1.300    factor for augmentation sphere                          
   RDEP   =    2.393    radius for radial grids                                 
   RDEPT  =    1.864    core radius for aug-charge                              
                                                                                
   Atomic configuration                                                         
    9 entries                                                                   
     n  l   j            E        occ.                                          
     1  0  0.50     -7587.6674   2.0000                                         
     2  0  0.50      -893.6084   2.0000                                         
     2  1  1.50      -764.5805   6.0000                                         
     3  0  0.50       -97.5973   2.0000                                         
     3  1  1.50       -60.9648   6.0000                                         
     3  2  2.50        -4.2382   8.0000                                         
     4  0  0.50        -4.3746   1.0000                                         
     4  1  1.50        -4.0817   0.0000                                         
     4  3  2.50        -1.3606   0.0000                                         
   Description                                                                  
     l       E           TYP  RCUT    TYP  RCUT                                 
     2     -4.2382362     23  2.300                                             
     2     -5.5988188     23  2.300                                             
     0     -4.3745797     23  2.300                                             
     0      5.7660125     23  2.300                                             
     1     -2.7211652     23  2.300                                             
     1     16.9860234     23  2.300                                             
  local pseudopotential read in
  partial core-charges read in
  partial kinetic energy density read in
  atomic valenz-charges read in
  non local Contribution for L=           2  read in
    real space projection operators read in
  non local Contribution for L=           2  read in
    real space projection operators read in
  non local Contribution for L=           0  read in
    real space projection operators read in
  non local Contribution for L=           0  read in
    real space projection operators read in
  non local Contribution for L=           1  read in
    real space projection operators read in
  non local Contribution for L=           1  read in
    real space projection operators read in
    PAW grid and wavefunctions read in
 
   number of l-projection  operators is LMAX  =           6
   number of lm-projection operators is LMMAX =          18
 
 POTCAR:    PAW_PBE Cu 22Jun2005                  
   VRHFIN =Cu: d10 p1                                                           
   LEXCH  = PE                                                                  
   EATOM  =  1390.9808 eV,  102.2342 Ry                                         
                                                                                
   TITEL  = PAW_PBE Cu 22Jun2005                                                
   LULTRA =        F    use ultrasoft PP ?                                      
   IUNSCR =        1    unscreen: 0-lin 1-nonlin 2-no                           
   RPACOR =    2.000    partial core radius                                     
   POMASS =   63.546; ZVAL   =   11.000    mass and valenz                      
   RCORE  =    2.300    outmost cutoff radius                                   
   RWIGS  =    2.200; RWIGS  =    1.164    wigner-seitz radius (au A)           
   ENMAX  =  295.446; ENMIN  =  221.585 eV                                      
   ICORE  =        3    local potential                                         
   LCOR   =        T    correct aug charges                                     
   LPAW   =        T    paw PP                                                  
   EAUG   =  586.980                                                            
   DEXC   =    0.000                                                            
   RMAX   =    2.344    core radius for proj-oper                               
   RAUG   =    1.300    factor for augmentation sphere                          
   RDEP   =    2.302    radius for radial grids                                 
   RDEPT  =    1.771    core radius for aug-charge                              
                                                                                
   Atomic configuration                                                         
    9 entries                                                                   
     n  l   j            E        occ.                                          
     1  0  0.50     -8850.2468   2.0000                                         
     2  0  0.50     -1062.3498   2.0000                                         
     2  1  1.50      -916.8226   6.0000                                         
     3  0  0.50      -114.6929   2.0000                                         
     3  1  1.50       -72.1325   6.0000                                         
     3  2  2.50        -5.0394  10.0000                                         
     4  0  0.50        -4.6097   1.0000                                         
     4  1  0.50        -4.0817   0.0000                                         
     4  3  2.50        -1.3606   0.0000                                         
   Description                                                                  
     l       E           TYP  RCUT    TYP  RCUT                                 
     2     -5.0393973     23  2.200                                             
     2     10.8846608     23  2.200                                             
     0     -4.6097109     23  2.200                                             
     0      8.2520465     23  2.200                                             
     1     -2.7211652     23  2.200                                             
     1     21.7055443     23  2.200                                             
     3      2.7211652     23  2.300                                             
  local pseudopotential read in
  partial core-charges read in
  partial kinetic energy density read in
  atomic valenz-charges read in
  non local Contribution for L=           2  read in
    real space projection operators read in
  non local Contribution for L=           2  read in
    real space projection operators read in
  non local Contribution for L=           0  read in
    real space projection operators read in
  non local Contribution for L=           0  read in
    real space projection operators read in
  non local Contribution for L=           1  read in
    real space projection operators read in
  non local Contribution for L=           1  read in
    real space projection operators read in
    PAW grid and wavefunctions read in
 
   number of l-projection  operators is LMAX  =           6
   number of lm-projection operators is LMMAX =          18
 
 POTCAR:    PAW_PBE Ni 02Aug2007                  
   VRHFIN =Ni:                                                                  
   LEXCH  = PE                                                                  
   EATOM  =  1077.6739 eV,   79.2068 Ry                                         
                                                                                
   TITEL  = PAW_PBE Ni 02Aug2007                                                
   LULTRA =        F    use ultrasoft PP ?                                      
   IUNSCR =        1    unscreen: 0-lin 1-nonlin 2-no                           
   RPACOR =    2.000    partial core radius                                     
   POMASS =   58.690; ZVAL   =   10.000    mass and valenz                      
   RCORE  =    2.300    outmost cutoff radius                                   
   RWIGS  =    2.430; RWIGS  =    1.286    wigner-seitz radius (au A)           
   ENMAX  =  269.532; ENMIN  =  202.149 eV                                      
   RCLOC  =    1.201    cutoff for local pot                                    
   LCOR   =        T    correct aug charges                                     
   LPAW   =        T    paw PP                                                  
   EAUG   =  544.565                                                            
   DEXC   =    0.000                                                            
   RMAX   =    2.357    core radius for proj-oper                               
   RAUG   =    1.300    factor for augmentation sphere                          
   RDEP   =    2.390    radius for radial grids                                 
   RDEPT  =    1.838    core radius for aug-charge                              
                                                                                
   Atomic configuration                                                         
    9 entries                                                                   
     n  l   j            E        occ.                                          
     1  0  0.50     -8206.4253   2.0000                                         
     2  0  0.50      -976.1748   2.0000                                         
     2  1  1.50      -839.0571   6.0000                                         
     3  0  0.50      -105.9991   2.0000                                         
     3  1  1.50       -66.4603   6.0000                                         
     3  2  2.50        -4.6458   9.0000                                         
     4  0  0.50        -4.4926   1.0000                                         
     4  1  1.50        -4.0817   0.0000                                         
     4  3  2.50        -1.3606   0.0000                                         
   Description                                                                  
     l       E           TYP  RCUT    TYP  RCUT                                 
     2     -4.6457903     23  2.300                                             
     2     -6.0063729     23  2.300                                             
     0     -4.4925590     23  2.300                                             
     0      5.0102601     23  2.300                                             
     1     -2.7211652     23  2.300                                             
     1     16.5183231     23  2.300                                             
  local pseudopotential read in
  partial core-charges read in
  partial kinetic energy density read in
  atomic valenz-charges read in
  non local Contribution for L=           2  read in
    real space projection operators read in
  non local Contribution for L=           2  read in
    real space projection operators read in
  non local Contribution for L=           0  read in
    real space projection operators read in
  non local Contribution for L=           0  read in
    real space projection operators read in
  non local Contribution for L=           1  read in
    real space projection operators read in
  non local Contribution for L=           1  read in
    real space projection operators read in
    PAW grid and wavefunctions read in
 
   number of l-projection  operators is LMAX  =           6
   number of lm-projection operators is LMMAX =          18
 
 POTCAR:    PAW_PBE N 08Apr2002                   
   VRHFIN =N: s2p3                                                              
   LEXCH  = PE                                                                  
   EATOM  =   264.5486 eV,   19.4438 Ry                                         
                                                                                
   TITEL  = PAW_PBE N 08Apr2002                                                 
   LULTRA =        F    use ultrasoft PP ?                                      
   IUNSCR =        1    unscreen: 0-lin 1-nonlin 2-no                           
   RPACOR =    1.200    partial core radius                                     
   POMASS =   14.001; ZVAL   =    5.000    mass and valenz                      
   RCORE  =    1.500    outmost cutoff radius                                   
   RWIGS  =    1.400; RWIGS  =    0.741    wigner-seitz radius (au A)           
   ENMAX  =  400.000; ENMIN  =  300.000 eV                                      
   ICORE  =        2    local potential                                         
   LCOR   =        T    correct aug charges                                     
   LPAW   =        T    paw PP                                                  
   EAUG   =  627.112                                                            
   DEXC   =    0.000                                                            
   RMAX   =    1.529    core radius for proj-oper                               
   RAUG   =    1.300    factor for augmentation sphere                          
   RDEP   =    1.514    radius for radial grids                                 
   RDEPT  =    1.338    core radius for aug-charge                              
                                                                                
   Atomic configuration                                                         
    4 entries                                                                   
     n  l   j            E        occ.                                          
     1  0  0.50      -384.7179   2.0000                                         
     2  0  0.50       -18.5828   2.0000                                         
     2  1  0.50        -7.0898   3.0000                                         
     3  2  1.50        -6.8029   0.0000                                         
   Description                                                                  
     l       E           TYP  RCUT    TYP  RCUT                                 
     0    -18.5828119     23  1.200                                             
     0    -13.5018863     23  1.200                                             
     1     -7.0897853     23  1.500                                             
     1      9.5240782     23  1.500                                             
     2     -6.8029130      7  1.500                                             
  local pseudopotential read in
  partial core-charges read in
  partial kinetic energy density read in
  atomic valenz-charges read in
  non local Contribution for L=           0  read in
    real space projection operators read in
  non local Contribution for L=           0  read in
    real space projection operators read in
  non local Contribution for L=           1  read in
    real space projection operators read in
  non local Contribution for L=           1  read in
    real space projection operators read in
    PAW grid and wavefunctions read in
 
   number of l-projection  operators is LMAX  =           4
   number of lm-projection operators is LMMAX =           8
 
 Optimization of the real space projectors (new method)

 maximal supplied QI-value         = 14.36
 optimisation between [QCUT,QGAM] = [ 11.92, 23.98] = [ 39.79,161.09] Ry 
 Optimized for a Real-space Cutoff    1.49 Angstroem

   l    n(q)    QCUT    max X(q) W(low)/X(q) W(high)/X(q)  e(spline) 
   2     10    11.920    66.195    0.79E-04    0.18E-03    0.24E-06
   2     10    11.920    64.643    0.81E-04    0.19E-03    0.24E-06
   0     11    11.920    95.520    0.28E-04    0.54E-04    0.18E-06
   0     11    11.920    63.403    0.27E-04    0.52E-04    0.17E-06
   1     10    11.920    19.961    0.18E-04    0.11E-03    0.23E-06
   1     10    11.920    13.289    0.25E-04    0.87E-04    0.19E-06
 Optimization of the real space projectors (new method)

 maximal supplied QI-value         = 16.25
 optimisation between [QCUT,QGAM] = [ 11.86, 23.89] = [ 39.41,159.82] Ry 
 Optimized for a Real-space Cutoff    1.49 Angstroem

   l    n(q)    QCUT    max X(q) W(low)/X(q) W(high)/X(q)  e(spline) 
   2     10    11.864    80.901    0.13E-03    0.23E-03    0.37E-06
   2     10    11.864    75.754    0.13E-03    0.23E-03    0.38E-06
   0     11    11.864    58.752    0.44E-04    0.11E-04    0.20E-06
   0     11    11.864    30.679    0.36E-04    0.10E-04    0.18E-06
   1     10    11.864    17.977    0.31E-04    0.45E-04    0.10E-06
   1     10    11.864    13.559    0.25E-04    0.37E-04    0.89E-07
 Optimization of the real space projectors (new method)

 maximal supplied QI-value         = 16.25
 optimisation between [QCUT,QGAM] = [ 11.86, 23.89] = [ 39.41,159.82] Ry 
 Optimized for a Real-space Cutoff    1.33 Angstroem

   l    n(q)    QCUT    max X(q) W(low)/X(q) W(high)/X(q)  e(spline) 
   2      9    11.864    65.824    0.22E-03    0.53E-03    0.26E-06
   2      9    11.864    61.429    0.22E-03    0.53E-03    0.26E-06
   0      9    11.864    56.174    0.21E-03    0.32E-04    0.15E-06
   0      9    11.864    31.263    0.19E-03    0.30E-04    0.14E-06
   1      9    11.864    19.828    0.63E-04    0.30E-03    0.16E-06
   1      9    11.864    15.139    0.49E-04    0.25E-03    0.13E-06
 Optimization of the real space projectors (new method)

 maximal supplied QI-value         = 16.25
 optimisation between [QCUT,QGAM] = [ 11.86, 23.89] = [ 39.41,159.82] Ry 
 Optimized for a Real-space Cutoff    1.49 Angstroem

   l    n(q)    QCUT    max X(q) W(low)/X(q) W(high)/X(q)  e(spline) 
   2     10    11.864     4.610    0.10E-03    0.20E-03    0.29E-06
   2     10    11.864     8.522    0.17E-03    0.33E-03    0.50E-06
   0     11    11.864    51.609    0.52E-04    0.55E-04    0.33E-06
   0     11    11.864    27.747    0.46E-04    0.52E-04    0.31E-06
   1     10    11.864    20.408    0.54E-04    0.25E-04    0.21E-06
   1     10    11.864    13.425    0.48E-04    0.22E-04    0.18E-06
 Optimization of the real space projectors (new method)

 maximal supplied QI-value         = 16.25
 optimisation between [QCUT,QGAM] = [ 11.86, 23.89] = [ 39.41,159.82] Ry 
 Optimized for a Real-space Cutoff    1.33 Angstroem

   l    n(q)    QCUT    max X(q) W(low)/X(q) W(high)/X(q)  e(spline) 
   2      9    11.864    60.317    0.21E-03    0.51E-03    0.25E-06
   2      9    11.864    55.921    0.21E-03    0.51E-03    0.26E-06
   0      9    11.864    51.690    0.22E-03    0.30E-04    0.17E-06
   0      9    11.864    30.015    0.20E-03    0.28E-04    0.15E-06
   1      9    11.864    18.849    0.76E-04    0.33E-03    0.17E-06
   1      9    11.864    14.624    0.60E-04    0.28E-03    0.15E-06
 Optimization of the real space projectors (new method)

 maximal supplied QI-value         = 25.13
 optimisation between [QCUT,QGAM] = [ 11.81, 23.88] = [ 39.08,159.64] Ry 
 Optimized for a Real-space Cutoff    1.41 Angstroem

   l    n(q)    QCUT    max X(q) W(low)/X(q) W(high)/X(q)  e(spline) 
   0     10    11.813    79.467    0.48E-04    0.30E-04    0.67E-06
   0     10    11.813    66.151    0.47E-04    0.30E-04    0.67E-06
   1     10    11.813    20.169    0.11E-03    0.17E-03    0.11E-05
   1     10    11.813    14.454    0.11E-03    0.17E-03    0.11E-05
  PAW_PBE Pt 04Feb2005                  :
 energy of atom  1       EATOM= -729.1176
 kinetic energy error for atom=    0.0021 (will be added to EATOM!!)
  PAW_PBE Fe 06Sep2000                  :
 energy of atom  2       EATOM= -594.3153
 kinetic energy error for atom=    0.0024 (will be added to EATOM!!)
  PAW_PBE Co 02Aug2007                  :
 energy of atom  3       EATOM= -813.3670
 kinetic energy error for atom=    0.0026 (will be added to EATOM!!)
  PAW_PBE Cu 22Jun2005                  :
 energy of atom  4       EATOM=-1390.9808
 kinetic energy error for atom=    0.0036 (will be added to EATOM!!)
  PAW_PBE Ni 02Aug2007                  :
 energy of atom  5       EATOM=-1077.6739
 kinetic energy error for atom=    0.0027 (will be added to EATOM!!)
  PAW_PBE N 08Apr2002                   :
 energy of atom  6       EATOM= -264.5486
 kinetic energy error for atom=    0.0116 (will be added to EATOM!!)
 
 
 POSCAR: 10.56                                   
  positions in direct lattice
  velocities in cartesian coordinates
 exchange correlation table for  LEXCH =        8
   RHO(1)=    0.500       N(1)  =     2000
   RHO(2)=  100.500       N(2)  =     4000
 


--------------------------------------------------------------------------------------------------------


 ion  position               nearest neighbor table
   1  0.788  0.878  0.317-  28 2.61  49 2.62  19 2.64  33 2.65  59 2.65  61 2.66  29 2.67  60 2.68
                             2 2.72   4 2.77  11 2.78  12 2.84
   2  0.044  0.881  0.317-  79 2.56  30 2.62  77 2.62  60 2.63  52 2.65  28 2.67  33 2.67  22 2.68
                             1 2.72   4 2.82   6 2.89  16 3.13
   3  0.279  0.380  0.320-  39 2.56  64 2.57  33 2.59  31 2.63  30 2.70  19 2.70  43 2.72  68 2.72
                             5 2.78  13 2.80  18 2.82  25 2.83
   4  0.868  0.965  0.422-  17 2.58  11 2.60   9 2.65  12 2.67   6 2.70  16 2.76  60 2.77   1 2.77
                             2 2.82
   5  0.122  0.463  0.428-  16 2.61  12 2.62   7 2.63  10 2.63  25 2.66  13 2.67  33 2.71  39 2.74
                             3 2.78
   6  0.122  0.967  0.429-  81 2.10  10 2.61   9 2.64   8 2.65   4 2.70  14 2.73  16 2.75   2 2.89
                            22 2.93  52 2.94
   7  0.875  0.460  0.427-   9 2.61  15 2.62   5 2.63  10 2.63  12 2.63  27 2.65  39 2.69  75 2.78
                            29 2.79
   8  0.376  0.960  0.419-  43 2.58  11 2.62  13 2.62  14 2.62  27 2.63   6 2.65  10 2.66  52 2.70
                            61 2.70
   9  0.871  0.214  0.420-  15 2.59   7 2.61  17 2.63   6 2.64   4 2.65  75 2.66  10 2.68  60 2.72
                            22 2.80
  10  0.125  0.212  0.422-   6 2.61  13 2.61   5 2.63   7 2.63   8 2.66  39 2.66   9 2.68  43 2.73
                            22 2.77
  11  0.624  0.960  0.424-   4 2.60   8 2.62  27 2.63  13 2.63  12 2.64  17 2.65   1 2.78  19 2.83
                            61 2.84
  12  0.874  0.710  0.426-   5 2.62  27 2.63   7 2.63  11 2.64  16 2.66   4 2.67  33 2.67  29 2.80
                             1 2.84
  13  0.374  0.209  0.425-  10 2.61   8 2.62  11 2.63  25 2.65  17 2.65   5 2.67  43 2.77   3 2.80
                            19 2.83
  14  0.381  0.709  0.422-  81 2.19  27 2.58  15 2.61   8 2.62  44 2.65  25 2.67   6 2.73  16 2.74
                            30 2.74  52 2.75
  15  0.627  0.461  0.423-   9 2.59  14 2.61   7 2.62  27 2.63  17 2.65  25 2.66  44 2.70  75 2.72
                            18 2.76
  16  0.126  0.706  0.439-  81 2.02   5 2.61  25 2.64  12 2.66  14 2.74   6 2.75   4 2.76  33 2.90
                            30 3.04   2 3.13
  17  0.624  0.211  0.423-   4 2.58  25 2.62   9 2.63  13 2.65  15 2.65  11 2.65  18 2.77  60 2.80
                            19 2.87
  18  0.548  0.375  0.317-  67 2.56  60 2.59  75 2.61  44 2.64  68 2.65  26 2.67  30 2.71  19 2.73
                            15 2.76  17 2.77   3 2.82  25 2.86
  19  0.535  0.124  0.315-  80 2.55  43 2.57  68 2.57  59 2.60   1 2.64  61 2.64   3 2.70  18 2.73
                            60 2.76  13 2.83  11 2.83  17 2.87
  20  0.547  0.124  0.040-  37 2.55  57 2.56  48 2.58  62 2.64  63 2.68  47 2.68  45 2.68  56 2.70
                            34 2.71
  21  0.121  0.460  0.128-  40 2.52  36 2.53  47 2.53  42 2.60  69 2.61  64 2.62  70 2.64  50 2.64
                            58 2.67  31 2.70  57 2.71  74 2.72
  22  0.045  0.134  0.315-  55 2.54  65 2.55  43 2.57  77 2.59  39 2.59  75 2.61   2 2.68  60 2.68
                            52 2.71  10 2.77   9 2.80   6 2.93  31 3.42
  23  0.042  0.130  0.033-  70 2.58  40 2.60  41 2.61  45 2.62  62 2.64  76 2.64  24 2.69  35 2.73
                            53 2.78
  24  0.130  0.958  0.132-  79 2.51  77 2.54  35 2.57  53 2.57  55 2.58  70 2.62  38 2.64  58 2.64
                            73 2.65  23 2.69  66 2.70  41 2.72
  25  0.375  0.459  0.426-  17 2.62  16 2.64  13 2.65   5 2.66  15 2.66  14 2.67  30 2.82   3 2.83
                            18 2.86
  26  0.455  0.546  0.219-  73 2.50  74 2.54  51 2.56  79 2.61  64 2.63  18 2.67  68 2.67  78 2.67
                            30 2.67  32 2.68  67 2.72  44 2.75
  27  0.624  0.711  0.424-  14 2.58   8 2.63  15 2.63  11 2.63  12 2.63   7 2.65  44 2.71  61 2.79
                            29 2.79
  28  0.956  0.790  0.221-  58 2.57  66 2.57  50 2.58  42 2.59  49 2.61   1 2.61  64 2.63   2 2.67
                            59 2.70  33 2.73  79 2.76  77 2.77
  29  0.794  0.622  0.319-  39 2.54  42 2.56  75 2.58  32 2.61  44 2.64  33 2.65   1 2.67  61 2.67
                            49 2.69   7 2.79  27 2.79  12 2.80
  30  0.290  0.631  0.319-  79 2.58  52 2.61  64 2.61   2 2.62  33 2.64  44 2.64  26 2.67   3 2.70
                            18 2.71  14 2.74  25 2.82  16 3.04
  31  0.203  0.281  0.225-  70 2.52  55 2.56  65 2.57  43 2.60  57 2.60   3 2.63  39 2.66  80 2.70
                            21 2.70  42 2.71  68 2.75  64 2.79  22 3.42
  32  0.706  0.549  0.221-  54 2.53  69 2.56  51 2.58  49 2.59  42 2.60  29 2.61  78 2.62  65 2.63
                            26 2.68  44 2.69  75 2.69  67 2.70
  33  0.040  0.630  0.326-   3 2.59  30 2.64  39 2.64   1 2.65  29 2.65  12 2.67   2 2.67  64 2.71
                             5 2.71  28 2.73  42 2.74  16 2.90
  34  0.797  0.862  0.042-  50 2.38  66 2.51  48 2.53  36 2.55  71 2.56  63 2.61  20 2.71  35 2.76
                            62 2.76
  35  0.056  0.866  0.038-  58 2.54  72 2.55  36 2.56  24 2.57  66 2.62  53 2.65  23 2.73  62 2.73
                            34 2.76
  36  0.046  0.628  0.037-  21 2.53  34 2.55  35 2.56  58 2.58  50 2.61  47 2.63  72 2.64  40 2.69
                            71 2.72
  37  0.627  0.222  0.129-  51 2.51  74 2.51  67 2.52  56 2.53  41 2.55  20 2.55  68 2.56  59 2.56
                            62 2.59  66 2.66  57 2.73  48 2.89
  38  0.382  0.955  0.130-  53 2.47  80 2.48  45 2.49  78 2.53  48 2.54  73 2.55  63 2.55  54 2.56
                            55 2.59  57 2.62  24 2.64  70 2.67
  39  0.036  0.382  0.324-  29 2.54   3 2.56  75 2.58  22 2.59  33 2.64  10 2.66  31 2.66  42 2.67
                             7 2.69   5 2.74  65 2.75  43 2.79
  40  0.031  0.382  0.038-  69 2.44  21 2.52  71 2.53  76 2.56  70 2.57  23 2.60  36 2.69  45 2.78
                            47 2.78
  41  0.872  0.215  0.128-  76 2.45  65 2.52  77 2.53  67 2.54  37 2.55  69 2.57  62 2.57  51 2.59
                            23 2.61  70 2.65  66 2.66  24 2.72
  42  0.955  0.545  0.224-  29 2.56  50 2.56  28 2.59  21 2.60  32 2.60  69 2.61  49 2.63  65 2.64
                            64 2.65  39 2.67  31 2.71  33 2.74
  43  0.297  0.115  0.321-  55 2.53  52 2.54  61 2.56  19 2.57  22 2.57   8 2.58  31 2.60  80 2.66
                             3 2.72  10 2.73  13 2.77  39 2.79
  44  0.541  0.629  0.322-  61 2.56  52 2.58  78 2.64  29 2.64  18 2.64  30 2.64  14 2.65  75 2.66
                            32 2.69  15 2.70  27 2.71  26 2.75
  45  0.295  0.119  0.039-  70 2.49  38 2.49  57 2.57  53 2.60  23 2.62  63 2.64  20 2.68  47 2.75
                            40 2.78
  46  0.548  0.625  0.044-  51 2.38  73 2.39  54 2.41  71 2.56  53 2.56  63 2.58  76 2.59  56 2.62
                            72 2.64
  47  0.296  0.379  0.039-  74 2.41  21 2.53  57 2.61  72 2.61  56 2.62  36 2.63  20 2.68  45 2.75
                            40 2.78
  48  0.625  0.950  0.132-  49 2.40  80 2.48  54 2.48  34 2.53  38 2.54  59 2.55  50 2.56  63 2.57
                            20 2.58  57 2.65  66 2.68  37 2.89
  49  0.706  0.794  0.220-  48 2.40  50 2.48  54 2.49  80 2.53  32 2.59  28 2.61  78 2.61   1 2.62
                            61 2.62  42 2.63  29 2.69  59 2.69
  50  0.866  0.706  0.129-  34 2.38  71 2.42  54 2.48  49 2.48  42 2.56  48 2.56  69 2.58  28 2.58
                            36 2.61  21 2.64  66 2.76  58 2.85
  51  0.626  0.460  0.127-  46 2.38  76 2.45  37 2.51  56 2.52  26 2.56  32 2.58  41 2.59  73 2.60
                            69 2.62  74 2.62  67 2.63  54 2.69
  52  0.298  0.874  0.318-  55 2.44  78 2.52  79 2.52  61 2.54  43 2.54  44 2.58  30 2.61   2 2.65
                             8 2.70  22 2.71  14 2.75   6 2.94
  53  0.306  0.868  0.040-  73 2.42  38 2.47  63 2.55  46 2.56  24 2.57  45 2.60  72 2.61  35 2.65
                            23 2.78
  54  0.627  0.715  0.128-  46 2.41  71 2.46  50 2.48  48 2.48  63 2.48  49 2.49  32 2.53  38 2.56
                            73 2.56  78 2.62  69 2.68  51 2.69
  55  0.224  0.028  0.227-  52 2.44  78 2.45  79 2.49  43 2.53  80 2.53  22 2.54  31 2.56  24 2.58
                            38 2.59  77 2.72  70 2.72  65 2.86
  56  0.543  0.381  0.035-  74 2.50  51 2.52  37 2.53  72 2.59  76 2.60  46 2.62  47 2.62  20 2.70
                            62 2.70
  57  0.378  0.205  0.133-  68 2.46  80 2.54  20 2.56  45 2.57  31 2.60  47 2.61  38 2.62  74 2.62
                            70 2.64  48 2.65  21 2.71  37 2.73
  58  0.136  0.705  0.132-  72 2.47  64 2.52  35 2.54  79 2.57  28 2.57  36 2.58  74 2.64  24 2.64
                            73 2.67  21 2.67  66 2.76  50 2.85
  59  0.705  0.050  0.220-  66 2.52  48 2.55  37 2.56  68 2.58  67 2.58  19 2.60  60 2.61   1 2.65
                            77 2.66  80 2.67  49 2.69  28 2.70
  60  0.793  0.129  0.317-  67 2.53  77 2.57  18 2.59  59 2.61  75 2.63   2 2.63  22 2.68   1 2.68
                             9 2.72  19 2.76   4 2.77  17 2.80
  61  0.539  0.872  0.317-  78 2.49  80 2.54  52 2.54  44 2.56  43 2.56  49 2.62  19 2.64   1 2.66
                            29 2.67   8 2.70  27 2.79  11 2.84
  62  0.797  0.123  0.035-  66 2.54  41 2.57  37 2.59  23 2.64  20 2.64  76 2.66  56 2.70  35 2.73
                            34 2.76
  63  0.546  0.870  0.036-  54 2.48  53 2.55  38 2.55  48 2.57  46 2.58  34 2.61  71 2.61  45 2.64
                            20 2.68
  64  0.207  0.543  0.224-  58 2.52   3 2.57  30 2.61  21 2.62  26 2.63  28 2.63  68 2.65  42 2.65
                            74 2.68  33 2.71  79 2.72  31 2.79
  65  0.952  0.297  0.221-  41 2.52  69 2.52  67 2.54  22 2.55  77 2.55  31 2.57  70 2.60  75 2.61
                            32 2.63  42 2.64  39 2.75  55 2.86
  66  0.872  0.964  0.129-  34 2.51  59 2.52  62 2.54  28 2.57  77 2.58  35 2.62  37 2.66  41 2.66
                            48 2.68  24 2.70  50 2.76  58 2.76
  67  0.714  0.290  0.223-  37 2.52  60 2.53  77 2.53  65 2.54  41 2.54  18 2.56  59 2.58  75 2.62
                            51 2.63  32 2.70  68 2.70  26 2.72
  68  0.458  0.291  0.221-  57 2.46  74 2.54  37 2.56  19 2.57  59 2.58  64 2.65  18 2.65  26 2.67
                            67 2.70   3 2.72  80 2.73  31 2.75
  69  0.876  0.457  0.128-  40 2.44  71 2.45  76 2.46  65 2.52  32 2.56  41 2.57  50 2.58  21 2.61
                            42 2.61  51 2.62  70 2.65  54 2.68
  70  0.128  0.207  0.129-  45 2.49  31 2.52  40 2.57  23 2.58  65 2.60  24 2.62  57 2.64  21 2.64
                            69 2.65  41 2.65  38 2.67  55 2.72
  71  0.792  0.622  0.040-  50 2.42  69 2.45  54 2.46  40 2.53  46 2.56  34 2.56  76 2.59  63 2.61
                            36 2.72
  72  0.298  0.625  0.042-  74 2.44  58 2.47  73 2.49  35 2.55  56 2.59  53 2.61  47 2.61  36 2.64
                            46 2.64
  73  0.386  0.711  0.129-  46 2.39  53 2.42  72 2.49  26 2.50  78 2.55  38 2.55  54 2.56  51 2.60
                            79 2.63  24 2.65  58 2.67  74 2.76
  74  0.382  0.452  0.126-  47 2.41  72 2.44  56 2.50  37 2.51  68 2.54  26 2.54  51 2.62  57 2.62
                            58 2.64  64 2.68  21 2.72  73 2.76
  75  0.794  0.378  0.320-  29 2.58  39 2.58  18 2.61  65 2.61  22 2.61  67 2.62  60 2.63   9 2.66
                            44 2.66  32 2.69  15 2.72   7 2.78
  76  0.791  0.377  0.039-  51 2.45  41 2.45  69 2.46  40 2.56  71 2.59  46 2.59  56 2.60  23 2.64
                            62 2.66
  77  0.956  0.053  0.221-  67 2.53  41 2.53  24 2.54  65 2.55  60 2.57  66 2.58  22 2.59   2 2.62
                            59 2.66  79 2.71  55 2.72  28 2.77
  78  0.458  0.797  0.224-  55 2.45  61 2.49  80 2.49  52 2.52  38 2.53  73 2.55  79 2.58  49 2.61
                            54 2.62  32 2.62  44 2.64  26 2.67
  79  0.213  0.798  0.225-  55 2.49  24 2.51  52 2.52   2 2.56  58 2.57  78 2.58  30 2.58  26 2.61
                            73 2.63  77 2.71  64 2.72  28 2.76
  80  0.462  0.030  0.222-  38 2.48  48 2.48  78 2.49  55 2.53  49 2.53  61 2.54  57 2.54  19 2.55
                            43 2.66  59 2.67  31 2.70  68 2.73
  81  0.214  0.797  0.493-  16 2.02   6 2.10  14 2.19
 
  LATTYP: Found a hexagonal cell.
 ALAT       =    10.5600004196
 C/A-ratio  =     2.0833332505
  
  Lattice vectors:
  
 A1 = (   5.2800002098,  -9.1452286274,   0.0000000000)
 A2 = ( -10.5600004196,   0.0000000000,   0.0000000000)
 A3 = (   0.0000000000,   0.0000000000, -22.0000000000)


Analysis of symmetry for initial positions (statically):
=====================================================================
 Subroutine PRICEL returns:
 Original cell was already a primitive cell.
 

 Routine SETGRP: Setting up the symmetry group for a 
 hexagonal supercell.


 Subroutine GETGRP returns: Found  1 space group operations
 (whereof  1 operations were pure point group operations)
 out of a pool of 24 trial point group operations.


The static configuration has the point symmetry C_1 .


Analysis of symmetry for dynamics (positions and initial velocities):
=====================================================================
 Subroutine PRICEL returns:
 Original cell was already a primitive cell.
 

 Routine SETGRP: Setting up the symmetry group for a 
 hexagonal supercell.


 Subroutine GETGRP returns: Found  1 space group operations
 (whereof  1 operations were pure point group operations)
 out of a pool of 24 trial point group operations.


The dynamic configuration has the point symmetry C_1 .


Analysis of constrained symmetry for selective dynamics:
=====================================================================
 Subroutine PRICEL returns:
 Original cell was already a primitive cell.
 

 Routine SETGRP: Setting up the symmetry group for a 
 hexagonal supercell.


 Subroutine GETGRP returns: Found  1 space group operations
 (whereof  1 operations were pure point group operations)
 out of a pool of 24 trial point group operations.


The constrained configuration has the point symmetry C_1 .


Analysis of structural, dynamic, and magnetic symmetry:
=====================================================================
 Subroutine PRICEL returns:
 Original cell was already a primitive cell.
 

 Routine SETGRP: Setting up the symmetry group for a 
 hexagonal supercell.


 Subroutine GETGRP returns: Found  1 space group operations
 (whereof  1 operations were pure point group operations)
 out of a pool of 24 trial point group operations.


The magnetic configuration has the point symmetry C_1 .


 Subroutine INISYM returns: Found  1 space group operations
 (whereof  1 operations are pure point group operations),
 and found     1 'primitive' translations

 
 
 KPOINTS: mesh auto                               

Automatic generation of k-mesh.
Space group operators:
 irot       det(A)        alpha          n_x          n_y          n_z        tau_x        tau_y        tau_z
    1     1.000000     0.000001     1.000000     0.000000     0.000000     0.000000     0.000000     0.000000
 
 Subroutine IBZKPT returns following result:
 ===========================================
 
 Found      4 irreducible k-points:
 
 Following reciprocal coordinates:
            Coordinates               Weight
  0.000000  0.000000  0.000000      1.000000
  0.500000  0.000000  0.000000      1.000000
  0.000000  0.500000  0.000000      1.000000
  0.500000  0.500000  0.000000      1.000000
 
 Following cartesian coordinates:
            Coordinates               Weight
  0.000000  0.000000  0.000000      1.000000
  0.047348 -0.027337  0.000000      1.000000
  0.000000  0.054673  0.000000      1.000000
  0.047348  0.027337  0.000000      1.000000
 


--------------------------------------------------------------------------------------------------------




 Dimension of arrays:
   k-points           NKPTS =      4   k-points in BZ     NKDIM =      4   number of bands    NBANDS=    588
   number of dos      NEDOS =    301   number of ions     NIONS =     81
   non local maximal  LDIM  =      6   non local SUM 2l+1 LMDIM =     18
   total plane-waves  NPLWV = ******
   max r-space proj   IRMAX =   7802   max aug-charges    IRDMAX=  33988
   dimension x,y,z NGX =    84 NGY =   84 NGZ =  168
   dimension x,y,z NGXF=   168 NGYF=  168 NGZF=  336
   support grid    NGXF=   168 NGYF=  168 NGZF=  336
   ions per type =              32  13  10  13  12   1
   NGX,Y,Z   is equivalent  to a cutoff of  13.22, 13.22, 12.70 a.u.
   NGXF,Y,Z  is equivalent  to a cutoff of  26.45, 26.45, 25.39 a.u.

 SYSTEM =  Pt111                                   
 POSCAR =  10.56                                   

 Startparameter for this run:
   NWRITE =      2    write-flag & timer
   PREC   = accura    normal or accurate (medium, high low for compatibility)
   ISTART =      0    job   : 0-new  1-cont  2-samecut
   ICHARG =      2    charge: 1-file 2-atom 10-const
   ISPIN  =      2    spin polarized calculation?
   LNONCOLLINEAR =      F non collinear calculations
   LSORBIT =      F    spin-orbit coupling
   INIWAV =      1    electr: 0-lowe 1-rand  2-diag
   LASPH  =      F    aspherical Exc in radial PAW
   METAGGA=      F    non-selfconsistent MetaGGA calc.

 Electronic Relaxation 1
   ENCUT  =  550.0 eV  40.42 Ry    6.36 a.u.  20.19 20.19 42.07*2*pi/ulx,y,z
   ENINI  =  550.0     initial cutoff
   ENAUG  =  627.1 eV  augmentation charge cutoff
   NELM   =    200;   NELMIN=  2; NELMDL= -5     # of ELM steps 
   EDIFF  = 0.1E-04   stopping-criterion for ELM
   LREAL  =      T    real-space projection
   NLSPLINE    = F    spline interpolate recip. space projectors
   LCOMPAT=      F    compatible to vasp.4.4
   GGA_COMPAT  = T    GGA compatible to vasp.4.4-vasp.4.6
   LMAXPAW     = -100 max onsite density
   LMAXMIX     =    2 max onsite mixed and CHGCAR
   VOSKOWN=      0    Vosko Wilk Nusair interpolation
   ROPT   =   -0.00025  -0.00025  -0.00025  -0.00025
   ROPT   =   -0.00025  -0.00025
 Ionic relaxation
   EDIFFG = -.5E-01   stopping-criterion for IOM
   NSW    =    300    number of steps for IOM
   NBLOCK =      1;   KBLOCK =    300    inner block; outer block 
   IBRION =      2    ionic relax: 0-MD 1-quasi-New 2-CG
   NFREE  =      1    steps in history (QN), initial steepest desc. (CG)
   ISIF   =      2    stress and relaxation
   IWAVPR =     11    prediction:  0-non 1-charg 2-wave 3-comb
   ISYM   =      2    0-nonsym 1-usesym 2-fastsym
   LCORR  =      T    Harris-Foulkes like correction to forces

   POTIM  = 0.5000    time-step for ionic-motion
   TEIN   =    0.0    initial temperature
   TEBEG  =    0.0;   TEEND  =   0.0 temperature during run
   SMASS  =  -3.00    Nose mass-parameter (am)
   estimated Nose-frequenzy (Omega)   =  0.10E-29 period in steps =****** mass=  -0.255E-26a.u.
   SCALEE = 1.0000    scale energy and forces
   NPACO  =    256;   APACO  = 16.0  distance and # of slots for P.C.
   PSTRESS=    0.0 pullay stress

  Mass of Ions in am
   POMASS = 195.08 55.85 58.93 63.55 58.69 14.00
  Ionic Valenz
   ZVAL   =  10.00  8.00  9.00 11.00 10.00  5.00
  Atomic Wigner-Seitz radii
   RWIGS  =  -1.00 -1.00 -1.00 -1.00 -1.00 -1.00
  virtual crystal weights 
   VCA    =   1.00  1.00  1.00  1.00  1.00  1.00
   NELECT =     782.0000    total number of electrons
   NUPDOWN=      -1.0000    fix difference up-down

 DOS related values:
   EMIN   =  10.00;   EMAX   =-10.00  energy-range for DOS
   EFERMI =   0.00
   ISMEAR =     1;   SIGMA  =   0.10  broadening in eV -4-tet -1-fermi 0-gaus

 Electronic relaxation 2 (details)
   IALGO  =     68    algorithm
   LDIAG  =      T    sub-space diagonalisation (order eigenvalues)
   LSUBROT=      F    optimize rotation matrix (better conditioning)
   TURBO    =      0    0=normal 1=particle mesh
   IRESTART =      0    0=no restart 2=restart with 2 vectors
   NREBOOT  =      0    no. of reboots
   NMIN     =      0    reboot dimension
   EREF     =   0.00    reference energy to select bands
   IMIX   =      4    mixing-type and parameters
     AMIX     =   0.40;   BMIX     =  1.00
     AMIX_MAG =   1.60;   BMIX_MAG =  1.00
     AMIN     =   0.10
     WC   =   100.;   INIMIX=   1;  MIXPRE=   1;  MAXMIX= -45

 Intra band minimization:
   WEIMIN = 0.0010     energy-eigenvalue tresh-hold
   EBREAK =  0.43E-08  absolut break condition
   DEPER  =   0.30     relativ break condition  

   TIME   =   0.40     timestep for ELM

  volume/ion in A,a.u.               =      26.23       177.01
  Fermi-wavevector in a.u.,A,eV,Ry     =   1.173231  2.217084 18.728009  1.376470
  Thomas-Fermi vector in A             =   2.309647
 
 Write flags
   LWAVE        =      F    write WAVECAR
   LDOWNSAMPLE  =      F    k-point downsampling of WAVECAR
   LCHARG       =      F    write CHGCAR
   LVTOT        =      F    write LOCPOT, total local potential
   LVHAR        =      F    write LOCPOT, Hartree potential only
   LELF         =      F    write electronic localiz. function (ELF)
   LORBIT       =      0    0 simple, 1 ext, 2 COOP (PROOUT), +10 PAW based schemes


 Dipole corrections
   LMONO  =      F    monopole corrections only (constant potential shift)
   LDIPOL =      F    correct potential (dipole corrections)
   IDIPOL =      0    1-x, 2-y, 3-z, 4-all directions 
   EPSILON=  1.0000000 bulk dielectric constant

 Exchange correlation treatment:
   GGA     =    --    GGA type
   LEXCH   =     8    internal setting for exchange type
   VOSKOWN=      0    Vosko Wilk Nusair interpolation
   LHFCALC =     F    Hartree Fock is set to
   LHFONE  =     F    Hartree Fock one center treatment
   AEXX    =    0.0000 exact exchange contribution

 Linear response parameters
   LEPSILON=     F    determine dielectric tensor
   LRPA    =     F    only Hartree local field effects (RPA)
   LNABLA  =     F    use nabla operator in PAW spheres
   LVEL    =     F    velocity operator in full k-point grid
   LINTERFAST=   F  fast interpolation
   KINTER  =     0    interpolate to denser k-point grid
   CSHIFT  =0.1000    complex shift for real part using Kramers Kronig
   OMEGAMAX=  -1.0    maximum frequency
   DEG_THRESHOLD= 0.2000000E-02 threshold for treating states as degnerate
   RTIME   =   -0.100 relaxation time in fs
  (WPLASMAI=    0.000 imaginary part of plasma frequency in eV, 0.658/RTIME)
   DFIELD  = 0.0000000 0.0000000 0.0000000 field for delta impulse in time
 
 Orbital magnetization related:
   ORBITALMAG=     F  switch on orbital magnetization
   LCHIMAG   =     F  perturbation theory with respect to B field
   DQ        =  0.001000  dq finite difference perturbation B field
   LLRAUG    =     F  two centre corrections for induced B field



--------------------------------------------------------------------------------------------------------


 conjugate gradient relaxation of ions
   using selective dynamics as specified on POSCAR
 charge density and potential will be updated during run
 spin polarized calculation
 RMM-DIIS sequential band-by-band and
  variant of blocked Davidson during initial phase
 perform sub-space diagonalisation
    before iterative eigenvector-optimisation
 modified Broyden-mixing scheme, WC =      100.0
 initial mixing is a Kerker type mixing with AMIX =  0.4000 and BMIX =      1.0000
 Hartree-type preconditioning will be used
 using additional bands          197
 real space projection scheme for non local part
 use partial core corrections
 calculate Harris-corrections to forces 
   (improved forces if not selfconsistent)
 use gradient corrections 
 use of overlap-Matrix (Vanderbilt PP)
 Methfessel and Paxton  Order N= 1 SIGMA  =   0.10


--------------------------------------------------------------------------------------------------------


  energy-cutoff  :      550.00
  volume of cell :     2124.62
      direct lattice vectors                 reciprocal lattice vectors
    10.560000420  0.000000000  0.000000000     0.094696966 -0.054673319  0.000000000
     5.280000210  9.145228627  0.000000000     0.000000000  0.109346638  0.000000000
     0.000000000  0.000000000 22.000000000     0.000000000  0.000000000  0.045454545

  length of vectors
    10.560000420 10.560000420 22.000000000     0.109346638  0.109346638  0.045454545


 
 k-points in units of 2pi/SCALE and weight: mesh auto                               
   0.00000000  0.00000000  0.00000000       0.250
   0.04734848 -0.02733666  0.00000000       0.250
   0.00000000  0.05467332  0.00000000       0.250
   0.04734848  0.02733666  0.00000000       0.250
 
 k-points in reciprocal lattice and weights: mesh auto                               
   0.00000000  0.00000000  0.00000000       0.250
   0.50000000  0.00000000  0.00000000       0.250
   0.00000000  0.50000000  0.00000000       0.250
   0.50000000  0.50000000  0.00000000       0.250
 
 position of ions in fractional coordinates (direct lattice) 
   0.78773679  0.87799019  0.31719901
   0.04357865  0.88114986  0.31701644
   0.27929707  0.38039675  0.31958572
   0.86764197  0.96522899  0.42225032
   0.12222704  0.46250249  0.42775808
   0.12229735  0.96717328  0.42923775
   0.87502093  0.45950556  0.42660823
   0.37620917  0.96020040  0.41943327
   0.87116832  0.21429490  0.42011955
   0.12549024  0.21235495  0.42240787
   0.62398223  0.95992534  0.42389018
   0.87366193  0.70957544  0.42577187
   0.37443472  0.20914569  0.42482153
   0.38082965  0.70945445  0.42192508
   0.62662090  0.46086831  0.42252014
   0.12584588  0.70626459  0.43944777
   0.62407662  0.21121074  0.42278076
   0.54827524  0.37542909  0.31718415
   0.53464334  0.12423674  0.31482351
   0.54700026  0.12353325  0.03994180
   0.12080895  0.46017830  0.12803950
   0.04479742  0.13386286  0.31528327
   0.04244149  0.13021000  0.03298030
   0.13048322  0.95798537  0.13183245
   0.37540004  0.45922738  0.42556114
   0.45454095  0.54571928  0.21885182
   0.62384457  0.71101147  0.42439526
   0.95571501  0.79013093  0.22104486
   0.79422746  0.62159228  0.31901877
   0.28979360  0.63079403  0.31928832
   0.20263023  0.28057175  0.22546492
   0.70645161  0.54939058  0.22075077
   0.04028473  0.63046073  0.32604539
   0.79731809  0.86162656  0.04207609
   0.05609859  0.86571859  0.03774080
   0.04641287  0.62819901  0.03699114
   0.62737558  0.22224168  0.12875060
   0.38211413  0.95500403  0.12988305
   0.03609789  0.38226092  0.32443928
   0.03114053  0.38167600  0.03750461
   0.87224044  0.21539432  0.12829500
   0.95471211  0.54518808  0.22389055
   0.29680513  0.11497204  0.32119332
   0.54087691  0.62920736  0.32176132
   0.29525378  0.11938697  0.03940923
   0.54825113  0.62531765  0.04365578
   0.29553136  0.37948250  0.03889216
   0.62548736  0.94995762  0.13208615
   0.70634189  0.79434825  0.22010408
   0.86572308  0.70559157  0.12880862
   0.62619676  0.46010837  0.12710353
   0.29774396  0.87381959  0.31750218
   0.30581838  0.86812735  0.04029659
   0.62671135  0.71465279  0.12827184
   0.22389857  0.02823957  0.22731031
   0.54269301  0.38102257  0.03461701
   0.37824999  0.20530955  0.13259126
   0.13618402  0.70497383  0.13178299
   0.70486941  0.05028396  0.22036332
   0.79323468  0.12918491  0.31664418
   0.53868153  0.87241143  0.31679810
   0.79655062  0.12311547  0.03453465
   0.54614634  0.87048754  0.03589640
   0.20722235  0.54282065  0.22417055
   0.95151324  0.29672189  0.22129229
   0.87185770  0.96385702  0.12897658
   0.71421099  0.29004436  0.22334568
   0.45764413  0.29147175  0.22083053
   0.87581008  0.45650690  0.12794668
   0.12769165  0.20692390  0.12876336
   0.79229095  0.62176839  0.04024823
   0.29784859  0.62540744  0.04208964
   0.38567508  0.71146547  0.12891873
   0.38207648  0.45160905  0.12649526
   0.79397975  0.37763412  0.32012780
   0.79092480  0.37725959  0.03945628
   0.95559961  0.05293444  0.22143250
   0.45755740  0.79715593  0.22440887
   0.21315004  0.79768722  0.22457904
   0.46239859  0.03021630  0.22200270
   0.21389927  0.79738692  0.49329154
 
 position of ions in cartesian coordinates  (Angst):
  12.95428924  8.02942102  6.97837822
   5.11266199  8.05831695  6.97436170
   4.95787211  3.47881521  7.03088583
  14.25870879  8.82723980  9.28950707
   3.73273081  4.22969098  9.41067781
   6.39813515  8.84502073  9.44323051
  11.66641081  4.20228341  9.38538108
   9.04262737  8.78125221  9.22753203
  10.33101496  1.95977588  9.24263000
   2.44641124  1.94203460  9.29297319
  11.65765860  8.77873666  9.32558404
  12.97242880  6.48922967  9.36698108
   5.05832003  1.91268511  9.34607366
   7.76748094  6.48812319  9.28235170
   9.05050179  4.21474611  9.29544309
   5.05800976  6.45895116  9.66785090
   7.70544208  1.93157051  9.30117676
   7.77205247  3.43338488  6.97805127
   6.30180395  1.13617342  6.92611733
   6.42857854  1.12973983  0.87871960
   3.70548407  4.20843578  2.81686897
   1.17985666  1.22420645  6.93623196
   1.13569097  1.19080020  0.72556650
   6.43606578  8.76099519  2.90031393
   6.38894519  4.19973936  9.36234514
   7.68135056  4.99072754  4.81474005
  10.34193966  6.50236247  9.33669582
  14.26424239  7.22592798  4.86298700
  11.66904973  5.68460354  7.01841301
   6.39081320  5.76875564  7.02434307
   3.62119418  2.56589278  4.96022829
  10.36091172  5.02430245  4.85651690
   3.75423958  5.76570750  7.17299865
  12.96906778  7.87977186  0.92567400
   5.16339550  7.91719447  0.83029765
   3.80701088  5.74502359  0.81380505
   7.79852245  2.03245096  2.83251312
   9.07754686  8.73373018  2.85742705
   2.39953143  3.49586352  7.13766422
   2.34409331  3.49051425  0.82510140
  10.34814148  1.96983035  2.82248993
  12.96035349  4.98586960  4.92559202
   3.74131471  1.05144563  7.06625294
   9.03387534  5.75424514  7.07874902
   3.74824325  1.09182115  0.86700304
   9.09120953  5.71867289  0.96042722
   5.12447898  3.47045423  0.85562744
  11.62092318  8.68757958  2.90589533
  11.65312961  7.26449633  4.84228978
  12.86755974  6.45279623  2.83378953
   9.04201027  4.20779619  2.79627770
   7.75794393  7.99127992  6.98504796
   7.81315482  7.93922313  0.88652503
  10.39143898  6.53566319  2.82198042
   2.51347389  0.25825733  5.00082675
   7.74263770  3.48453850  0.76157429
   5.07835445  1.87760273  2.91700770
   5.16036530  6.44714688  2.89922570
   7.70892058  0.45985829  4.84799308
   9.05865487  1.18142550  6.96617185
  10.29480975  7.97840201  6.96955824
   9.06162455  1.12591908  0.75976228
  10.36347996  7.96080760  0.78972076
   5.05436124  4.96421897  4.93175206
  11.61467189  2.71358951  4.86843040
  14.29598293  8.81469279  2.83748465
   9.07350258  2.65252196  4.91360499
   6.37169315  2.66557579  4.85827162
  11.65891135  4.17485993  2.81482702
   2.44098212  1.89236634  2.83279397
  11.64953004  5.68621407  0.88546096
   6.44743266  5.71949403  0.92597203
   7.82926683  6.50651440  2.83621200
   6.41922371  4.13006800  2.78289578
  10.37833476  3.45355035  7.04281158
  10.34409694  3.45012521  0.86803825
  10.37062613  0.48409754  4.87151493
   9.04078979  7.29017323  4.93699507
   6.46265315  7.29503196  4.94073890
   5.04247138  0.27633499  4.88405930
   6.46897950  7.29228573 10.85241387
 


--------------------------------------------------------------------------------------------------------


 k-point  1 :   0.0000 0.0000 0.0000  plane waves:   62167
 k-point  2 :   0.5000 0.0000 0.0000  plane waves:   62242
 k-point  3 :   0.0000 0.5000 0.0000  plane waves:   62242
 k-point  4 :   0.5000 0.5000 0.0000  plane waves:   62242

 maximum and minimum number of plane-waves per node :     15586    15521

 maximum number of plane-waves:     62242
 maximum index in each direction: 
   IXMAX=   20   IYMAX=   20   IZMAX=   42
   IXMIN=  -20   IYMIN=  -20   IZMIN=  -42


 real space projection operators:
  total allocation   :      78069.09 KBytes
  max/ min on nodes  :      19539.31      19501.12


 parallel 3D FFT for wavefunctions:
    minimum data exchange during FFTs selected (reduces bandwidth)
 parallel 3D FFT for charge:
    minimum data exchange during FFTs selected (reduces bandwidth)


 total amount of memory used by VASP MPI-rank0   230707. kBytes
=======================================================================

   base      :      30000. kBytes
   nonlr-proj:      34793. kBytes
   fftplans  :      16129. kBytes
   grid      :      49182. kBytes
   one-center:        653. kBytes
   wavefun   :      99950. kBytes
 
     INWAV:  cpu time    0.0000: real time    0.0004
 Broyden mixing: mesh for mixing (old mesh)
   NGX = 41   NGY = 41   NGZ = 85
  (NGX  =168   NGY  =168   NGZ  =336)
  gives a total of 142885 points

 initial charge density was supplied:
 charge density of overlapping atoms calculated
 number of electron     782.0000000 magnetization     231.0000000
 keeping initial charge density in first step


--------------------------------------------------------------------------------------------------------


 Maximum index for non-local projection operator         1903
 Maximum index for augmentation-charges         1469 (set IRDMAX)


--------------------------------------------------------------------------------------------------------


 First call to EWALD:  gamma=   0.138
 Maximum number of real-space cells 4x 4x 2
 Maximum number of reciprocal cells 2x 2x 4

    FEWALD:  cpu time    0.0046: real time    0.0112


--------------------------------------- Iteration      1(   1)  ---------------------------------------


    POTLOK:  cpu time    0.3622: real time    0.4073
    SETDIJ:  cpu time    0.0343: real time    0.0418
     EDDAV:  cpu time   59.4891: real time   59.7354
       DOS:  cpu time    0.0034: real time    0.0976
    --------------------------------------------
      LOOP:  cpu time   59.8893: real time   60.2825

 eigenvalue-minimisations  :  9408
 total energy-change (2. order) : 0.7976527E+04  (-0.3317427E+05)
 number of electron     782.0000000 magnetization     231.0000000
 augmentation part      782.0000000 magnetization     231.0000000

 Free energy of the ion-electron system (eV)
  ---------------------------------------------------
  alpha Z        PSCENC =      2257.51121701
  Ewald energy   TEWEN  =    222545.46205938
  -Hartree energ DENC   =   -295087.44235274
  -exchange      EXHF   =         0.00000000
  -V(xc)+E(xc)   XCENC  =      1404.24808607
  PAW double counting   =     64339.59877275   -66242.68957252
  entropy T*S    EENTRO =        -0.00410437
  eigenvalues    EBANDS =      8289.13880469
  atomic energy  EATOM  =     70470.70397281
  Solvation  Ediel_sol  =         0.00000000
  ---------------------------------------------------
  free energy    TOTEN  =      7976.52688308 eV

  energy without entropy =     7976.53098745  energy(sigma->0) =     7976.52825120


--------------------------------------------------------------------------------------------------------




--------------------------------------- Iteration      1(   2)  ---------------------------------------


     EDDAV:  cpu time   59.5447: real time   59.7577
       DOS:  cpu time    0.0024: real time    0.0653
    --------------------------------------------
      LOOP:  cpu time   59.5471: real time   59.8230

 eigenvalue-minimisations  :  9408
 total energy-change (2. order) :-0.7096079E+04  (-0.6347519E+04)
 number of electron     782.0000000 magnetization     231.0000000
 augmentation part      782.0000000 magnetization     231.0000000

 Free energy of the ion-electron system (eV)
  ---------------------------------------------------
  alpha Z        PSCENC =      2257.51121701
  Ewald energy   TEWEN  =    222545.46205938
  -Hartree energ DENC   =   -295087.44235274
  -exchange      EXHF   =         0.00000000
  -V(xc)+E(xc)   XCENC  =      1404.24808607
  PAW double counting   =     64339.59877275   -66242.68957252
  entropy T*S    EENTRO =        -0.00554562
  eigenvalues    EBANDS =      1193.06119485
  atomic energy  EATOM  =     70470.70397281
  Solvation  Ediel_sol  =         0.00000000
  ---------------------------------------------------
  free energy    TOTEN  =       880.44783198 eV

  energy without entropy =      880.45337760  energy(sigma->0) =      880.44968052


--------------------------------------------------------------------------------------------------------




--------------------------------------- Iteration      1(   3)  ---------------------------------------


     EDDAV:  cpu time   59.5238: real time   61.0374
       DOS:  cpu time    0.0042: real time    0.0543
    --------------------------------------------
      LOOP:  cpu time   59.5279: real time   61.0917

 eigenvalue-minimisations  :  9408
 total energy-change (2. order) :-0.1249117E+04  (-0.1015470E+04)
 number of electron     782.0000000 magnetization     231.0000000
 augmentation part      782.0000000 magnetization     231.0000000

 Free energy of the ion-electron system (eV)
  ---------------------------------------------------
  alpha Z        PSCENC =      2257.51121701
  Ewald energy   TEWEN  =    222545.46205938
  -Hartree energ DENC   =   -295087.44235274
  -exchange      EXHF   =         0.00000000
  -V(xc)+E(xc)   XCENC  =      1404.24808607
  PAW double counting   =     64339.59877275   -66242.68957252
  entropy T*S    EENTRO =        -0.00756718
  eigenvalues    EBANDS =       -56.05328811
  atomic energy  EATOM  =     70470.70397281
  Solvation  Ediel_sol  =         0.00000000
  ---------------------------------------------------
  free energy    TOTEN  =      -368.66867253 eV

  energy without entropy =     -368.66110535  energy(sigma->0) =     -368.66615014


--------------------------------------------------------------------------------------------------------




--------------------------------------- Iteration      1(   4)  ---------------------------------------


     EDDAV:  cpu time   71.0404: real time   71.2773
       DOS:  cpu time    0.0042: real time    0.2277
    --------------------------------------------
      LOOP:  cpu time   71.0445: real time   71.5050

 eigenvalue-minimisations  : 11832
 total energy-change (2. order) :-0.1277904E+03  (-0.1160130E+03)
 number of electron     782.0000000 magnetization     231.0000000
 augmentation part      782.0000000 magnetization     231.0000000

 Free energy of the ion-electron system (eV)
  ---------------------------------------------------
  alpha Z        PSCENC =      2257.51121701
  Ewald energy   TEWEN  =    222545.46205938
  -Hartree energ DENC   =   -295087.44235274
  -exchange      EXHF   =         0.00000000
  -V(xc)+E(xc)   XCENC  =      1404.24808607
  PAW double counting   =     64339.59877275   -66242.68957252
  entropy T*S    EENTRO =         0.00589769
  eigenvalues    EBANDS =      -183.85719058
  atomic energy  EATOM  =     70470.70397281
  Solvation  Ediel_sol  =         0.00000000
  ---------------------------------------------------
  free energy    TOTEN  =      -496.45911013 eV

  energy without entropy =     -496.46500782  energy(sigma->0) =     -496.46107603


--------------------------------------------------------------------------------------------------------




--------------------------------------- Iteration      1(   5)  ---------------------------------------


     EDDAV:  cpu time   70.6357: real time   72.4630
       DOS:  cpu time    0.0026: real time    0.0280
    CHARGE:  cpu time    3.7112: real time    3.7235
    MIXING:  cpu time    0.0102: real time    0.0104
    --------------------------------------------
      LOOP:  cpu time   74.3598: real time   76.2249

 eigenvalue-minimisations  : 11760
 total energy-change (2. order) :-0.5481421E+01  (-0.5426079E+01)
 number of electron     782.0000033 magnetization     216.4340710
 augmentation part      334.7044401 magnetization     184.4372606

 Broyden mixing:
  rms(total) = 0.11988E+02    rms(broyden)= 0.11988E+02
  rms(prec ) = 0.12306E+02
  weight for this iteration     100.00

 Free energy of the ion-electron system (eV)
  ---------------------------------------------------
  alpha Z        PSCENC =      2257.51121701
  Ewald energy   TEWEN  =    222545.46205938
  -Hartree energ DENC   =   -295087.44235274
  -exchange      EXHF   =         0.00000000
  -V(xc)+E(xc)   XCENC  =      1404.24808607
  PAW double counting   =     64339.59877275   -66242.68957252
  entropy T*S    EENTRO =         0.00738053
  eigenvalues    EBANDS =      -189.34009401
  atomic energy  EATOM  =     70470.70397281
  Solvation  Ediel_sol  =         0.00000000
  ---------------------------------------------------
  free energy    TOTEN  =      -501.94053072 eV

  energy without entropy =     -501.94791125  energy(sigma->0) =     -501.94299090


--------------------------------------------------------------------------------------------------------




--------------------------------------- Iteration      1(   6)  ---------------------------------------


    POTLOK:  cpu time    0.3408: real time    0.3825
    SETDIJ:  cpu time    0.0319: real time    0.0321
    EDDIAG:  cpu time   10.4492: real time   10.4890
  RMM-DIIS:  cpu time   36.8184: real time   36.9913
    ORTHCH:  cpu time    1.1706: real time    1.1753
       DOS:  cpu time    0.0025: real time    0.0025
    CHARGE:  cpu time    3.5564: real time    3.5674
    MIXING:  cpu time    0.0105: real time    0.0110
    --------------------------------------------
      LOOP:  cpu time   52.3804: real time   52.6512

 eigenvalue-minimisations  :  9547
 total energy-change (2. order) :-0.1521870E+03  (-0.9200865E+02)
 number of electron     782.0000040 magnetization     212.1712033
 augmentation part      406.9941205 magnetization     180.0377013

 Broyden mixing:
  rms(total) = 0.19379E+02    rms(broyden)= 0.19379E+02
  rms(prec ) = 0.25227E+02
  weight for this iteration     100.00

 eigenvalues of (default mixing * dielectric matrix)
  average eigenvalue GAMMA=   0.2353
  0.2353

 Free energy of the ion-electron system (eV)
  ---------------------------------------------------
  alpha Z        PSCENC =      2257.51121701
  Ewald energy   TEWEN  =    222545.46205938
  -Hartree energ DENC   =   -293400.36931850
  -exchange      EXHF   =         0.00000000
  -V(xc)+E(xc)   XCENC  =      1358.83098686
  PAW double counting   =     69482.05483652   -71178.34939839
  entropy T*S    EENTRO =         0.01118821
  eigenvalues    EBANDS =     -2189.98307289
  atomic energy  EATOM  =     70470.70397281
  Solvation  Ediel_sol  =         0.00000000
  ---------------------------------------------------
  free energy    TOTEN  =      -654.12752900 eV

  energy without entropy =     -654.13871721  energy(sigma->0) =     -654.13125840


--------------------------------------------------------------------------------------------------------




--------------------------------------- Iteration      1(   7)  ---------------------------------------


    POTLOK:  cpu time    0.3462: real time    0.3858
    SETDIJ:  cpu time    0.0321: real time    0.0322
    EDDIAG:  cpu time   10.5194: real time   10.5657
  RMM-DIIS:  cpu time   36.4736: real time   36.6097
    ORTHCH:  cpu time    1.1684: real time    1.1735
       DOS:  cpu time    0.0024: real time    0.0024
    CHARGE:  cpu time    3.6900: real time    3.7007
    MIXING:  cpu time    0.0112: real time    0.0113
    --------------------------------------------
      LOOP:  cpu time   52.2433: real time   52.4813

 eigenvalue-minimisations  :  9429
 total energy-change (2. order) : 0.8776393E+02  (-0.1750628E+02)
 number of electron     782.0000037 magnetization     207.5887700
 augmentation part      363.6822046 magnetization     165.3030379

 Broyden mixing:
  rms(total) = 0.16479E+02    rms(broyden)= 0.16479E+02
  rms(prec ) = 0.22437E+02
  weight for this iteration     100.00

 eigenvalues of (default mixing * dielectric matrix)
  average eigenvalue GAMMA=   0.2680
  0.3768  0.1592

 Free energy of the ion-electron system (eV)
  ---------------------------------------------------
  alpha Z        PSCENC =      2257.51121701
  Ewald energy   TEWEN  =    222545.46205938
  -Hartree energ DENC   =   -294143.02711591
  -exchange      EXHF   =         0.00000000
  -V(xc)+E(xc)   XCENC  =      1379.16144255
  PAW double counting   =     70606.74252116   -72468.86013089
  entropy T*S    EENTRO =         0.00829386
  eigenvalues    EBANDS =     -1214.06585512
  atomic energy  EATOM  =     70470.70397281
  Solvation  Ediel_sol  =         0.00000000
  ---------------------------------------------------
  free energy    TOTEN  =      -566.36359515 eV

  energy without entropy =     -566.37188901  energy(sigma->0) =     -566.36635977


--------------------------------------------------------------------------------------------------------




--------------------------------------- Iteration      1(   8)  ---------------------------------------


    POTLOK:  cpu time    0.3488: real time    0.4851
    SETDIJ:  cpu time    0.0320: real time    0.0321
    EDDIAG:  cpu time   10.5032: real time   10.5361
  RMM-DIIS:  cpu time   36.5050: real time   36.6552
    ORTHCH:  cpu time    1.1686: real time    1.1732
       DOS:  cpu time    0.0025: real time    0.0025
    CHARGE:  cpu time    3.5727: real time    3.5855
    MIXING:  cpu time    0.0113: real time    0.0115
    --------------------------------------------
      LOOP:  cpu time   52.1443: real time   52.4814

 eigenvalue-minimisations  :  9430
 total energy-change (2. order) : 0.8821340E+02  (-0.9526127E+01)
 number of electron     782.0000036 magnetization     200.5244764
 augmentation part      370.0843181 magnetization     161.7510184

 Broyden mixing:
  rms(total) = 0.15944E+02    rms(broyden)= 0.15943E+02
  rms(prec ) = 0.18618E+02
  weight for this iteration     100.00

 eigenvalues of (default mixing * dielectric matrix)
  average eigenvalue GAMMA=   0.3048
  0.5786  0.2539  0.0818

 Free energy of the ion-electron system (eV)
  ---------------------------------------------------
  alpha Z        PSCENC =      2257.51121701
  Ewald energy   TEWEN  =    222545.46205938
  -Hartree energ DENC   =   -294438.86546939
  -exchange      EXHF   =         0.00000000
  -V(xc)+E(xc)   XCENC  =      1383.96716151
  PAW double counting   =     71837.65442483   -73767.28977245
  entropy T*S    EENTRO =         0.00345282
  eigenvalues    EBANDS =      -767.29724519
  atomic energy  EATOM  =     70470.70397281
  Solvation  Ediel_sol  =         0.00000000
  ---------------------------------------------------
  free energy    TOTEN  =      -478.15019868 eV

  energy without entropy =     -478.15365150  energy(sigma->0) =     -478.15134962


--------------------------------------------------------------------------------------------------------




--------------------------------------- Iteration      1(   9)  ---------------------------------------


    POTLOK:  cpu time    0.3573: real time    0.4023
    SETDIJ:  cpu time    0.0320: real time    0.0322
    EDDIAG:  cpu time   10.4923: real time   10.5276
  RMM-DIIS:  cpu time   36.6285: real time   36.7438
    ORTHCH:  cpu time    1.1684: real time    1.1760
       DOS:  cpu time    0.0024: real time    0.0024
    CHARGE:  cpu time    3.5678: real time    3.5780
    MIXING:  cpu time    0.0121: real time    0.0123
    --------------------------------------------
      LOOP:  cpu time   52.2609: real time   52.4746

 eigenvalue-minimisations  :  9447
 total energy-change (2. order) : 0.9702399E+02  (-0.1490927E+02)
 number of electron     782.0000033 magnetization     192.3302766
 augmentation part      371.7860388 magnetization     148.8743436

 Broyden mixing:
  rms(total) = 0.12892E+02    rms(broyden)= 0.12892E+02
  rms(prec ) = 0.14958E+02
  weight for this iteration     100.00

 eigenvalues of (default mixing * dielectric matrix)
  average eigenvalue GAMMA=   0.3631
  0.8588  0.3594  0.1459  0.0883

 Free energy of the ion-electron system (eV)
[...]
   0.112E+02 0.162E+02 -.288E+04   -.121E+02 -.156E+02 0.288E+04   0.878E+00 -.649E+00 0.746E+00   -.548E-02 0.429E-02 0.316E-01
   0.596E+01 0.240E+02 -.290E+04   -.617E+01 -.233E+02 0.290E+04   0.246E+00 -.675E+00 0.142E+01   -.499E-01 -.449E-01 0.181E-02
   -.227E+01 -.990E+02 -.278E+04   0.224E+01 0.998E+02 0.279E+04   0.905E-01 -.892E+00 -.670E+00   -.413E-01 0.840E-01 0.954E-01
   -.163E+02 -.566E+01 -.293E+04   0.165E+02 0.538E+01 0.293E+04   -.250E+00 0.311E+00 0.129E+01   0.864E-01 -.721E-01 0.443E-02
   -.505E+00 -.270E+02 -.286E+04   0.116E+01 0.275E+02 0.286E+04   -.698E+00 -.621E+00 0.205E+01   0.256E-01 0.950E-01 0.120E+00
   -.147E+02 -.719E+01 -.292E+04   0.145E+02 0.745E+01 0.291E+04   0.158E-01 -.231E+00 0.105E+01   0.583E-01 -.407E-01 0.363E-01
   -.169E+02 -.157E+02 -.288E+04   0.173E+02 0.160E+02 0.288E+04   -.282E+00 -.336E+00 0.160E+01   -.105E-01 0.397E-01 0.432E-01
   -.379E+01 -.588E+01 -.293E+04   0.403E+01 0.555E+01 0.293E+04   -.300E+00 0.235E+00 0.597E+00   0.315E-01 0.279E-01 0.477E-01
   0.163E+02 0.368E+01 -.288E+04   -.157E+02 -.405E+01 0.288E+04   -.659E+00 0.360E+00 0.106E+01   0.367E-01 0.142E-01 0.163E-01
   -.138E+00 -.141E+02 -.291E+04   -.291E+00 0.138E+02 0.291E+04   0.481E+00 0.244E+00 0.698E+00   -.389E-01 -.276E-02 0.495E-01
   -.799E+02 0.667E+02 -.285E+04   0.810E+02 -.669E+02 0.285E+04   -.108E+01 0.246E+00 -.241E+00   -.249E-01 0.555E-01 0.745E-01
   0.838E+01 0.267E+01 -.289E+04   -.820E+01 -.212E+01 0.289E+04   -.252E+00 -.440E+00 0.131E+01   0.540E-01 -.797E-01 0.248E-01
   0.995E+02 0.627E+02 -.288E+04   -.100E+03 -.633E+02 0.288E+04   0.850E+00 0.599E+00 -.353E+00   -.719E-01 0.354E-01 0.231E-01
   0.300E+02 -.599E+01 -.292E+04   -.297E+02 0.635E+01 0.292E+04   -.296E+00 -.318E+00 0.948E+00   -.563E-02 -.714E-01 0.349E-01
   0.730E+02 -.728E+02 -.151E+04   -.718E+02 0.732E+02 0.150E+04   -.119E+01 -.329E+00 0.174E+01   -.313E-02 -.849E-01 0.378E-01
   0.298E+02 -.451E+02 -.150E+04   -.310E+02 0.447E+02 0.150E+04   0.112E+01 0.401E+00 0.256E+01   0.278E-01 0.641E-02 0.976E-01
   0.333E+02 0.314E+02 0.304E+04   -.335E+02 -.316E+02 -.304E+04   0.142E+00 0.171E+00 -.236E+01   -.454E-03 0.681E-01 -.461E-01
   0.345E+02 -.924E+01 0.161E+04   -.354E+02 0.100E+02 -.161E+04   0.922E+00 -.647E+00 0.930E+00   0.390E-01 -.510E-01 0.157E-02
   -.694E+02 0.120E+02 -.147E+04   0.704E+02 -.120E+02 0.146E+04   -.879E+00 -.956E-01 0.210E+01   -.208E-01 0.107E+00 0.966E-01
   -.542E+02 0.513E+02 0.309E+04   0.548E+02 -.505E+02 -.309E+04   -.683E+00 -.895E+00 -.203E+01   -.168E-02 0.275E-01 -.187E-01
   0.598E+00 -.518E+02 0.160E+04   -.348E+00 0.513E+02 -.160E+04   -.304E+00 0.388E+00 -.747E+00   -.513E-02 0.601E-01 -.654E-05
   0.748E+01 0.188E+02 -.286E+04   -.773E+01 -.196E+02 0.286E+04   0.306E+00 0.844E+00 0.750E+00   -.820E-01 -.662E-01 0.335E-01
   -.144E+02 -.118E+02 0.205E+02   0.144E+02 0.121E+02 -.220E+02   -.187E+00 -.241E+00 0.153E+01   -.324E-01 -.960E-01 -.186E-02
   -.319E+02 0.981E+01 -.290E+04   0.312E+02 -.101E+02 0.290E+04   0.674E+00 0.290E+00 0.130E+01   0.799E-01 0.423E-01 0.509E-01
   0.119E+02 0.684E+02 0.151E+02   -.129E+02 -.696E+02 -.157E+02   0.119E+01 0.112E+01 0.431E+00   0.998E-02 -.179E-01 0.831E-01
   -.702E+02 0.934E+01 -.146E+04   0.705E+02 -.105E+02 0.146E+04   -.383E+00 0.128E+01 0.273E+01   0.101E+00 -.654E-01 0.880E-01
   0.387E+02 0.199E+02 -.156E+04   -.382E+02 -.189E+02 0.156E+04   -.410E+00 -.935E+00 0.236E+01   -.112E+00 -.453E-01 0.560E-01
   0.197E+02 -.663E+02 -.608E+02   -.206E+02 0.658E+02 0.611E+02   0.105E+01 0.530E+00 -.340E+00   -.430E-01 0.240E-01 0.490E-01
   -.233E+02 -.214E+02 0.235E+02   0.241E+02 0.222E+02 -.243E+02   -.811E+00 -.746E+00 0.676E+00   0.274E-01 -.144E+00 0.103E+00
   0.616E+01 0.996E+01 -.125E+04   -.613E+01 -.103E+02 0.125E+04   0.125E-01 0.406E+00 0.598E+00   -.369E-01 -.197E-01 0.645E-01
   -.601E+02 -.260E+01 0.244E+04   0.604E+02 0.128E+01 -.244E+04   -.449E+00 0.132E+01 -.268E+01   0.392E-01 0.267E-01 -.621E-01
   0.305E+02 -.139E+02 0.247E+04   -.304E+02 0.125E+02 -.247E+04   -.445E-01 0.144E+01 -.229E+01   -.117E-01 0.266E-01 -.243E-01
   0.226E+02 -.400E+01 0.248E+04   -.228E+02 0.459E+01 -.247E+04   0.172E+00 -.577E+00 -.290E+01   0.107E-01 -.334E-01 -.260E-01
   0.708E+01 0.516E+02 0.130E+04   -.623E+01 -.510E+02 -.130E+04   -.924E+00 -.699E+00 -.112E+00   0.103E-01 0.486E-01 -.645E-02
   0.345E+02 -.545E+02 0.129E+04   -.343E+02 0.541E+02 -.129E+04   -.135E+00 0.254E+00 -.391E+00   -.642E-01 0.117E+00 -.276E-02
   -.573E+02 -.271E+02 -.122E+04   0.574E+02 0.273E+02 0.122E+04   -.979E-01 -.169E+00 0.679E+00   -.625E-02 -.385E-02 0.665E-01
   -.935E+02 0.205E+02 0.248E+04   0.932E+02 -.202E+02 -.248E+04   0.286E+00 -.223E+00 -.262E+01   0.190E-01 -.297E-01 -.205E-01
   -.339E+02 0.467E+02 0.131E+04   0.331E+02 -.463E+02 -.131E+04   0.809E+00 -.544E+00 -.392E+00   -.285E-02 0.250E-01 -.562E-02
   -.484E+02 0.196E+01 -.333E+02   0.481E+02 -.151E+01 0.330E+02   0.266E+00 -.455E+00 0.142E-01   0.354E-01 -.571E-01 0.934E-01
   0.134E+02 -.833E+02 -.122E+04   -.136E+02 0.829E+02 0.122E+04   0.181E+00 0.289E+00 0.105E+01   -.749E-02 0.956E-01 0.770E-01
   0.218E+02 0.250E+02 -.121E+04   -.221E+02 -.249E+02 0.121E+04   0.242E+00 -.148E+00 0.529E+00   0.449E-01 -.574E-01 0.527E-01
   0.147E+02 -.467E+02 0.245E+04   -.154E+02 0.459E+02 -.245E+04   0.696E+00 0.702E+00 -.275E+01   -.332E-02 0.425E-01 -.202E-01
   0.477E+01 -.195E+02 0.276E+04   -.476E+01 0.198E+02 -.276E+04   0.447E-01 -.217E+00 -.233E+01   -.368E-01 -.911E-01 -.117E+00
   0.119E+03 0.289E+02 0.279E+04   -.120E+03 -.281E+02 -.279E+04   0.507E+00 -.730E+00 -.237E+01   0.592E-03 -.238E-01 -.570E-02
   -.369E+02 -.277E+02 0.143E+04   0.364E+02 0.266E+02 -.143E+04   0.447E+00 0.109E+01 -.416E+00   0.534E-01 0.118E+00 -.487E-02
   -.627E+02 0.685E+02 0.404E+02   0.626E+02 -.684E+02 -.414E+02   -.294E-01 -.198E+00 0.803E+00   0.888E-01 0.136E-01 0.149E+00
   -.901E+02 0.194E+02 0.142E+04   0.895E+02 -.189E+02 -.142E+04   0.542E+00 -.477E+00 -.709E-01   0.130E+00 -.292E-01 0.825E-02
   -.201E+02 0.935E+01 0.140E+04   0.203E+02 -.948E+01 -.140E+04   -.179E+00 0.307E+00 -.461E-01   -.402E-01 -.103E+00 -.393E-01
   0.502E+02 0.152E+02 -.138E+04   -.500E+02 -.156E+02 0.138E+04   -.244E+00 0.292E+00 0.173E+01   -.415E-01 0.693E-01 0.648E-01
   0.532E+02 -.806E+02 0.277E+04   -.529E+02 0.804E+02 -.276E+04   -.357E+00 0.186E+00 -.241E+01   -.357E-02 0.314E-01 -.664E-01
   -.136E+02 0.222E+01 0.139E+04   0.137E+02 -.193E+01 -.139E+04   -.119E+00 -.256E+00 -.410E+00   -.264E-01 -.538E-01 -.389E-01
   0.206E+02 -.677E+02 -.760E+00   -.198E+02 0.671E+02 0.104E+01   -.774E+00 0.570E+00 -.357E+00   -.219E-01 0.103E+00 -.148E-01
   0.311E+02 0.338E+02 0.345E+04   -.311E+02 -.330E+02 -.344E+04   0.626E-01 -.899E+00 -.355E+01   0.130E-01 -.620E-02 0.870E-03
   0.633E+02 0.726E+01 0.175E+04   -.635E+02 -.803E+01 -.175E+04   0.114E+00 0.707E+00 -.121E+00   -.198E-01 0.837E-01 -.165E-01
   0.102E+03 -.312E+02 0.173E+04   -.101E+03 0.313E+02 -.173E+04   -.180E+00 0.205E-01 0.450E-01   -.356E-01 -.305E-01 0.243E-01
   0.134E+02 0.713E+02 0.104E+03   -.140E+02 -.712E+02 -.105E+03   0.548E+00 -.189E+00 0.692E+00   0.289E-01 0.408E-01 0.900E-01
   0.142E+02 0.548E+02 -.167E+04   -.138E+02 -.544E+02 0.167E+04   -.501E+00 -.403E+00 0.148E+01   0.133E-01 -.713E-02 0.105E+00
   -.392E+02 0.323E+02 -.164E+04   0.380E+02 -.320E+02 0.164E+04   0.116E+01 -.296E+00 0.226E+01   0.120E+00 0.506E-01 0.125E+00
   -.731E+01 0.997E+02 0.340E+04   0.746E+01 -.100E+03 -.339E+04   -.182E+00 0.443E+00 -.285E+01   0.528E-02 0.357E-01 -.270E-01
   -.164E+02 -.780E+02 0.342E+04   0.155E+02 0.776E+02 -.342E+04   0.995E+00 0.358E+00 -.261E+01   -.306E-01 0.555E-01 -.163E+00
   0.102E+03 -.916E+00 -.639E+02   -.102E+03 0.113E+01 0.639E+02   0.165E+00 -.187E+00 -.693E-01   -.469E-01 -.347E-01 0.399E-01
   -.117E+03 -.394E+02 0.579E+02   0.117E+03 0.393E+02 -.583E+02   0.407E+00 0.788E-01 0.261E+00   0.364E-01 -.280E-02 0.923E-01
   -.146E+02 0.545E+02 0.182E+04   0.142E+02 -.540E+02 -.182E+04   0.433E+00 -.557E+00 -.624E+00   0.281E-01 0.297E-01 -.863E-02
   0.787E+01 -.760E+02 0.708E+02   -.746E+01 0.748E+02 -.715E+02   -.391E+00 0.129E+01 0.538E+00   0.149E-01 -.215E-02 0.337E-01
   0.581E+02 -.415E+02 0.211E+02   -.575E+02 0.411E+02 -.215E+02   -.649E+00 0.446E+00 0.358E+00   -.545E-02 0.840E-02 0.214E-01
   -.743E+02 0.143E+01 0.156E+04   0.738E+02 -.114E+01 -.156E+04   0.404E+00 -.836E-01 -.562E-01   0.199E-01 -.133E+00 0.883E-02
   -.125E+02 0.194E+02 0.163E+04   0.128E+02 -.197E+02 -.163E+04   -.364E+00 0.228E+00 -.437E+00   0.418E-02 0.129E-01 0.225E-01
   -.101E+03 -.414E+01 0.309E+04   0.101E+03 0.428E+01 -.309E+04   -.525E+00 -.397E-01 -.137E+01   0.159E-01 -.714E-01 -.132E+00
   0.704E+02 -.525E+02 0.309E+04   -.708E+02 0.531E+02 -.309E+04   0.373E+00 -.546E+00 -.806E+00   -.259E-02 -.645E-01 -.310E-01
   0.167E+02 -.401E+02 0.156E+04   -.163E+02 0.399E+02 -.156E+04   -.391E+00 0.242E+00 0.678E-02   -.747E-01 -.466E-01 -.351E-01
   0.520E+02 0.823E+00 0.160E+04   -.515E+02 -.752E+00 -.160E+04   -.473E+00 0.473E-01 -.128E+00   -.149E-01 -.620E-01 -.137E-01
   -.411E+02 -.734E+02 -.152E+04   0.410E+02 0.734E+02 0.152E+04   0.931E-01 -.521E-02 0.750E+00   0.884E-01 -.702E-01 0.586E-01
   -.540E+02 0.296E+02 0.307E+04   0.545E+02 -.290E+02 -.307E+04   -.443E+00 -.565E+00 -.190E+01   -.399E-01 -.166E-01 -.245E-01
   -.485E+02 0.797E+02 0.887E+02   0.490E+02 -.794E+02 -.889E+02   -.393E+00 -.463E+00 0.184E+00   0.602E-02 0.457E-01 0.529E-01
   0.479E+01 0.626E+02 0.175E+02   -.479E+01 -.618E+02 -.177E+02   0.377E-01 -.864E+00 -.174E-01   -.277E-01 0.490E-01 0.560E-01
   0.528E+02 0.113E+02 -.226E+02   -.525E+02 -.108E+02 0.226E+02   -.335E+00 -.573E+00 0.517E-01   -.724E-01 0.121E-01 0.625E-02
   0.254E+02 -.519E+02 0.531E+02   -.258E+02 0.514E+02 -.534E+02   0.315E+00 0.471E+00 0.181E+00   -.122E-01 0.926E-01 0.575E-01
   -.130E+02 -.225E+02 -.168E+04   0.145E+02 0.244E+02 0.171E+04   -.144E+01 -.196E+01 -.253E+02   -.304E-01 0.459E-01 0.677E-02
 -----------------------------------------------------------------------------------------------
   -.154E+00 0.181E+01 0.183E+02   -.941E-13 0.163E-12 0.216E-10   0.147E+00 -.189E+01 -.203E+02   0.109E-01 0.560E-01 0.201E+01
 
 
 POSITION                                       TOTAL-FORCE (eV/Angst)
 -----------------------------------------------------------------------------------
     12.95486      8.03373      6.97691        -0.005911     -0.004074      0.006873
      5.11835      8.04683      6.97928         0.002355     -0.001060      0.022957
      4.95671      3.49648      7.03229         0.001652     -0.001248      0.004453
     14.25236      8.81961      9.29282        -0.005149     -0.029953     -0.011912
      3.72731      4.22249      9.42926        -0.001881     -0.030397     -0.004528
      6.37505      8.82624      9.36367        -0.016820     -0.002344     -0.002389
     11.66120      4.20321      9.35335         0.003446     -0.012236      0.007442
      9.06195      8.78571      9.19598        -0.022984     -0.012048      0.003879
     10.33851      1.93360      9.24006        -0.005205      0.001809     -0.022980
      2.43588      1.93318      9.28788         0.007720      0.008112     -0.009703
     11.65717      8.77872      9.32000         0.015129     -0.032596     -0.004543
     12.98022      6.49323      9.36841        -0.011893      0.007932      0.001360
      5.04668      1.90812      9.35038         0.003906      0.002331     -0.003958
      7.75271      6.47631      9.52427        -0.004696      0.003549      0.011388
      9.04168      4.21663      9.26855        -0.024734     -0.012714      0.032560
      5.00257      6.47795      9.69308        -0.005687      0.018292      0.012588
      7.70975      1.92922      9.30123         0.000876     -0.000639     -0.001977
      7.77367      3.43036      6.97186         0.001356      0.007471      0.007785
      6.29784      1.14218      6.92464         0.009679      0.005786     -0.003176
      6.42858      1.12974      0.87872        -0.022260     -0.010233      0.002059
      3.70548      4.20844      2.81687         0.006164      0.003497     -0.025522
      1.17516      1.23053      6.92532         0.000051      0.011672      0.004095
      1.13569      1.19080      0.72557        -0.000287      0.029737      0.008974
      6.43607      8.76100      2.90031        -0.009895     -0.008891      0.005003
      6.37592      4.16467      9.35134        -0.020538     -0.013157      0.007158
      7.68135      4.99073      4.81474        -0.077565      0.040125      0.050613
     10.32630      6.49011      9.28674         0.006183      0.029503      0.029572
     14.26424      7.22593      4.86299         0.120444     -0.044481     -0.007425
     11.68535      5.68608      7.01110        -0.013032      0.013486     -0.010973
      6.44195      5.78084      7.05726        -0.003713      0.019203      0.014165
      3.62119      2.56589      4.96023        -0.000090      0.022971     -0.018808
     10.36091      5.02430      4.85652         0.035546     -0.027974     -0.052079
      3.77788      5.77133      7.19100        -0.001413     -0.001566     -0.008223
     12.96907      7.87977      0.92567        -0.011922     -0.006393     -0.006359
      5.16340      7.91719      0.83030        -0.003200      0.014631      0.005164
      3.80701      5.74502      0.81381         0.009648      0.000847     -0.029363
      7.79852      2.03245      2.83251        -0.040244     -0.021370      0.006867
      9.07755      8.73373      2.85743         0.006361      0.001546      0.011702
      2.40305      3.49600      7.13919         0.002808      0.000718     -0.004613
      2.34409      3.49051      0.82510         0.021209      0.008212     -0.025612
     10.34814      1.96983      2.82249        -0.019670      0.000094      0.010303
     12.96035      4.98587      4.92559         0.072738     -0.034838     -0.024985
      3.73858      1.06598      7.06065         0.002901     -0.006702      0.004002
      9.04385      5.75305      7.06808        -0.008529      0.006700      0.014132
      3.74824      1.09182      0.86700         0.010044      0.004119     -0.031162
      9.09121      5.71867      0.96043         0.000072      0.014684     -0.027822
      5.12448      3.47045      0.85563        -0.012329      0.025722     -0.010804
     11.62092      8.68758      2.90590        -0.000177      0.004772      0.023433
     11.65313      7.26450      4.84229         0.010830     -0.009209     -0.057352
     12.86756      6.45280      2.83379         0.033123      0.016209      0.016221
      9.04201      4.20780      2.79628        -0.030067      0.035841      0.016787
      7.76710      7.99918      6.98276         0.001395     -0.007403      0.007648
      7.81315      7.93922      0.88653        -0.003948      0.003122      0.003380
     10.39144      6.53566      2.82198         0.016093     -0.003233      0.008059
      2.51347      0.25826      5.00083        -0.004303     -0.014054     -0.007878
      7.74264      3.48454      0.76157         0.001726     -0.004108      0.002695
      5.07835      1.87760      2.91701         0.000334     -0.016623     -0.007694
      5.16037      6.44715      2.89923        -0.000921      0.002555     -0.009660
      7.70892      0.45986      4.84799         0.005906      0.013371     -0.009601
      9.05948      1.17782      6.96591        -0.001259      0.008639     -0.008366
     10.29871      7.97911      6.95381        -0.007396     -0.001416      0.010099
      9.06162      1.12592      0.75976        -0.008592     -0.003684     -0.008343
     10.36348      7.96081      0.78972        -0.016371     -0.002160      0.012912
      5.05436      4.96422      4.93175         0.084352      0.063485      0.073807
     11.61467      2.71359      4.86843         0.007129     -0.009982      0.025872
     14.29598      8.81469      2.83748        -0.000916     -0.007320      0.001357
      9.07350      2.65252      4.91360         0.040723     -0.033867     -0.046503
      6.37169      2.66558      4.85827        -0.023207      0.029333     -0.010483
     11.65891      4.17486      2.81483        -0.021863      0.006703     -0.047416
      2.44098      1.89237      2.83279        -0.011817      0.016728      0.027330
     11.64953      5.68621      0.88546         0.001947      0.033315     -0.005069
      6.44743      5.71949      0.92597         0.002678      0.009639      0.002671
      7.82927      6.50651      2.83621        -0.034935      0.014672     -0.010454
      6.41922      4.13007      2.78290        -0.016289      0.009619     -0.014048
     10.37696      3.45375      7.04015         0.001187      0.002241     -0.002425
     10.34410      3.45013      0.86804        -0.002969     -0.027231     -0.013309
     10.37063      0.48410      4.87151         0.018241     -0.070764      0.077032
      9.04079      7.29017      4.93700        -0.008127     -0.034464     -0.061832
      6.46265      7.29503      4.94074         0.001198     -0.043727      0.112371
      5.04247      0.27633      4.88406        -0.011849      0.014081     -0.006043
      6.44040      7.37002     10.66411        -0.012495      0.017081     -0.031378
 -----------------------------------------------------------------------------------
    total drift:                                0.004463     -0.019427     -0.013050


--------------------------------------------------------------------------------------------------------



  FREE ENERGIE OF THE ION-ELECTRON SYSTEM (eV)
  ---------------------------------------------------
  free  energy   TOTEN  =      -514.72434238 eV

  energy  without entropy=     -514.74633321  energy(sigma->0) =     -514.73167265
 
 d Force = 0.1120160E-02[ 0.640E-03, 0.160E-02]  d Energy = 0.9707170E-03 0.149E-03
 d Force = 0.2444235E+01[ 0.245E+01, 0.243E+01]  d Ewald  = 0.2444229E+01 0.539E-05


--------------------------------------------------------------------------------------------------------


    POTLOK:  cpu time    0.3784: real time    0.3802


--------------------------------------------------------------------------------------------------------


 Conjugate gradient step on ions:
 trial-energy change:   -0.000971  1 .order   -0.001120   -0.001600   -0.000640
  (g-gl).g = 0.121E-02      g.g   = 0.126E-02  gl.gl    = 0.232E-02
 g(Force)  = 0.126E-02   g(Stress)= 0.000E+00 ortho     = 0.139E-03
 gamma     =   0.52394
 trial     =   1.20039
 opt step  =   2.00121  (harmonic =   2.00121) maximal distance =0.00749091
 next E    =  -514.724705   (d E  =  -0.00133)


--------------------------------------------------------------------------------------------------------


  
 reached required accuracy - stopping structural energy minimisation
     LOOP+:  cpu time  598.6247: real time  603.4238
    4ORBIT:  cpu time    0.0000: real time    0.0000

 total amount of memory used by VASP MPI-rank0   230707. kBytes
=======================================================================

   base      :      30000. kBytes
   nonlr-proj:      34793. kBytes
   fftplans  :      16129. kBytes
   grid      :      49182. kBytes
   one-center:        653. kBytes
   wavefun   :      99950. kBytes
 
  
  
 General timing and accounting informations for this job:
 ========================================================
  
                  Total CPU time used (sec):    16126.809
                            User time (sec):    15698.611
                          System time (sec):      428.198
                         Elapsed time (sec):    16231.327
  
                   Maximum memory used (kb):      422284.
                   Average memory used (kb):           0.
  
                          Minor page faults:      3070280
                          Major page faults:          159
                 Voluntary context switches:        12463
