 vasp.5.4.4.18Apr17-6-g9f103f2a35 (build Nov 30 2020 22:55:02) complex          
  
 executed on             LinuxIFC date 2021.11.28  13:16:54
 running on   40 total cores
 distrk:  each k-point on   40 cores,    1 groups
 distr:  one band on NCORES_PER_BAND=   4 cores,   10 groups


--------------------------------------------------------------------------------------------------------


 INCAR:
 POTCAR:    PAW_PBE Pt 04Feb2005                  
 POTCAR:    PAW_PBE H 15Jun2001                   
 POTCAR:    PAW_PBE Pt 04Feb2005                  
   VRHFIN =Pt: s1d9                                                             
   LEXCH  = PE                                                                  
   EATOM  =   729.1176 eV,   53.5886 Ry                                         
                                                                                
   TITEL  = PAW_PBE Pt 04Feb2005                                                
   LULTRA =        F    use ultrasoft PP ?                                      
   IUNSCR =        1    unscreen: 0-lin 1-nonlin 2-no                           
   RPACOR =    2.330    partial core radius                                     
   POMASS =  195.080; ZVAL   =   10.000    mass and valenz                      
   RCORE  =    2.600    outmost cutoff radius                                   
   RWIGS  =    2.750; RWIGS  =    1.455    wigner-seitz radius (au A)           
   ENMAX  =  230.283; ENMIN  =  172.712 eV                                      
   ICORE  =        3    local potential                                         
   LCOR   =        T    correct aug charges                                     
   LPAW   =        T    paw PP                                                  
   EAUG   =  358.966                                                            
   DEXC   =    0.000                                                            
   RMAX   =    2.658    core radius for proj-oper                               
   RAUG   =    1.300    factor for augmentation sphere                          
   RDEP   =    2.761    radius for radial grids                                 
   RDEPT  =    2.203    core radius for aug-charge                              
                                                                                
   Atomic configuration                                                         
   16 entries                                                                   
     n  l   j            E        occ.                                          
     1  0  0.50    -78401.1885   2.0000                                         
     2  0  0.50    -13770.7750   2.0000                                         
     2  1  1.50    -11931.0468   6.0000                                         
     3  0  0.50     -3234.7234   2.0000                                         
     3  1  1.50     -2699.2216   6.0000                                         
     3  2  2.50     -2119.5714  10.0000                                         
     4  0  0.50      -695.1528   2.0000                                         
     4  1  1.50      -519.6034   6.0000                                         
     4  2  2.50      -306.6786  10.0000                                         
     4  3  3.50       -70.1041  14.0000                                         
     5  0  0.50      -101.7747   2.0000                                         
     5  1  1.50       -55.9873   6.0000                                         
     5  2  2.50        -6.1423   9.0000                                         
     6  0  0.50        -5.6573   1.0000                                         
     6  1  1.50        -6.8029   0.0000                                         
     5  3  2.50        -1.3606   0.0000                                         
   Description                                                                  
     l       E           TYP  RCUT    TYP  RCUT                                 
     2     -6.1423404     23  2.500                                             
     2     -7.5029230     23  2.500                                             
     0     -5.6573207     23  2.500                                             
     0      0.7416693     23  2.500                                             
     1     -2.7211652     23  2.600                                             
     1     20.4087390     23  2.600                                             
     3     -1.3605826     23  2.500                                             
  local pseudopotential read in
  partial core-charges read in
  partial kinetic energy density read in
  atomic valenz-charges read in
  non local Contribution for L=           2  read in
    real space projection operators read in
  non local Contribution for L=           2  read in
    real space projection operators read in
  non local Contribution for L=           0  read in
    real space projection operators read in
  non local Contribution for L=           0  read in
    real space projection operators read in
  non local Contribution for L=           1  read in
    real space projection operators read in
  non local Contribution for L=           1  read in
    real space projection operators read in
    PAW grid and wavefunctions read in
 
   number of l-projection  operators is LMAX  =           6
   number of lm-projection operators is LMMAX =          18
 
 POTCAR:    PAW_PBE H 15Jun2001                   
   VRHFIN =H: ultrasoft test                                                    
   LEXCH  = PE                                                                  
   EATOM  =    12.4884 eV,    0.9179 Ry                                         
                                                                                
   TITEL  = PAW_PBE H 15Jun2001                                                 
   LULTRA =        F    use ultrasoft PP ?                                      
   IUNSCR =        0    unscreen: 0-lin 1-nonlin 2-no                           
   RPACOR =    0.000    partial core radius                                     
   POMASS =    1.000; ZVAL   =    1.000    mass and valenz                      
   RCORE  =    1.100    outmost cutoff radius                                   
   RWIGS  =    0.700; RWIGS  =    0.370    wigner-seitz radius (au A)           
   ENMAX  =  250.000; ENMIN  =  200.000 eV                                      
   RCLOC  =    0.701    cutoff for local pot                                    
   LCOR   =        T    correct aug charges                                     
   LPAW   =        T    paw PP                                                  
   EAUG   =  400.000                                                            
   RMAX   =    1.123    core radius for proj-oper                               
   RAUG   =    1.200    factor for augmentation sphere                          
   RDEP   =    1.112    radius for radial grids                                 
   RDEPT  =    0.926    core radius for aug-charge                              
                                                                                
   Atomic configuration                                                         
    2 entries                                                                   
     n  l   j            E        occ.                                          
     1  0  0.50        -6.4927   1.0000                                         
     2  1  0.50        -3.4015   0.0000                                         
   Description                                                                  
     l       E           TYP  RCUT    TYP  RCUT                                 
     0     -6.4927494     23  1.100                                             
     0      6.8029130     23  1.100                                             
     1     -4.0817478     23  1.100                                             
  local pseudopotential read in
  atomic valenz-charges read in
  non local Contribution for L=           0  read in
    real space projection operators read in
  non local Contribution for L=           0  read in
    real space projection operators read in
  non local Contribution for L=           1  read in
    real space projection operators read in
    PAW grid and wavefunctions read in
 
   number of l-projection  operators is LMAX  =           3
   number of lm-projection operators is LMMAX =           5
 
 Optimization of the real space projectors (new method)

 maximal supplied QI-value         = 14.36
 optimisation between [QCUT,QGAM] = [ 11.92, 23.98] = [ 39.79,161.09] Ry 
 Optimized for a Real-space Cutoff    1.49 Angstroem

   l    n(q)    QCUT    max X(q) W(low)/X(q) W(high)/X(q)  e(spline) 
   2     10    11.920    66.195    0.79E-04    0.18E-03    0.24E-06
   2     10    11.920    64.643    0.81E-04    0.19E-03    0.24E-06
   0     11    11.920    95.520    0.28E-04    0.54E-04    0.18E-06
   0     11    11.920    63.403    0.27E-04    0.52E-04    0.17E-06
   1     10    11.920    19.961    0.18E-04    0.11E-03    0.23E-06
   1     10    11.920    13.289    0.25E-04    0.87E-04    0.19E-06
 Optimization of the real space projectors (new method)

 maximal supplied QI-value         = 34.20
 optimisation between [QCUT,QGAM] = [ 11.97, 23.94] = [ 40.13,160.53] Ry 
 Optimized for a Real-space Cutoff    1.18 Angstroem

   l    n(q)    QCUT    max X(q) W(low)/X(q) W(high)/X(q)  e(spline) 
   0      8    11.971    19.460    0.15E-03    0.31E-03    0.25E-06
   0      8    11.971    12.209    0.13E-03    0.29E-03    0.25E-06
   1      8    11.971     4.655    0.22E-03    0.24E-03    0.21E-06
  PAW_PBE Pt 04Feb2005                  :
 energy of atom  1       EATOM= -729.1176
 kinetic energy error for atom=    0.0021 (will be added to EATOM!!)
  PAW_PBE H 15Jun2001                   :
 energy of atom  2       EATOM=  -12.4884
 kinetic energy error for atom=    0.0008 (will be added to EATOM!!)
 
 
 POSCAR: Pt111                                   
  positions in direct lattice
  velocities in cartesian coordinates
  No initial velocities read in
 exchange correlation table for  LEXCH =        8
   RHO(1)=    0.500       N(1)  =     2000
   RHO(2)=  100.500       N(2)  =     4000
 


--------------------------------------------------------------------------------------------------------


 ion  position               nearest neighbor table
   1  0.785  0.869  0.326-  20 2.75  71 2.76  55 2.76  43 2.80  72 2.80   3 2.80   2 2.80  73 2.81
                            56 2.81  27 2.83  35 2.84  34 2.84
   2  0.035  0.869  0.326-  55 2.76  65 2.76  68 2.76  47 2.80   3 2.80   1 2.80  23 2.80  57 2.81
                            72 2.81  29 2.83  27 2.84  39 2.84
   3  0.035  0.619  0.326-  12 2.75  55 2.76  76 2.76  57 2.80   1 2.80   2 2.80  56 2.81   9 2.81
                            15 2.81  28 2.83  39 2.83  35 2.84
   4  0.786  0.868  0.021-  21 2.79  78 2.79  19 2.79  75 2.81  44 2.81  58 2.81  74 2.81   5 2.81
                             6 2.81
   5  0.036  0.868  0.021-  70 2.79  49 2.79  78 2.79  48 2.81  24 2.81   6 2.81   4 2.81  59 2.81
                            74 2.81
   6  0.036  0.618  0.022-  70 2.79  46 2.79  21 2.79  18 2.80  10 2.81   5 2.81  59 2.81  58 2.81
                             4 2.81
   7  0.619  0.202  0.125-  71 2.73  79 2.73  80 2.74  42 2.79  44 2.79  74 2.79  61 2.80  19 2.80
                            22 2.81  11 2.81  78 2.81  53 2.81
   8  0.369  0.952  0.125-  66 2.73  69 2.73  26 2.74  16 2.79  24 2.79  75 2.79  53 2.80  54 2.81
                            60 2.81  25 2.81  19 2.81  49 2.81
   9  0.035  0.369  0.326-  77 2.75  12 2.76  62 2.76  56 2.80  63 2.80   3 2.81  15 2.81  47 2.81
                            13 2.81  28 2.83  33 2.83  30 2.84
  10  0.036  0.368  0.022-  46 2.79  54 2.79  45 2.79  16 2.81  48 2.81   6 2.81  58 2.81  18 2.81
                            64 2.81
  11  0.869  0.202  0.125-  65 2.73  77 2.73  79 2.73  64 2.79  74 2.79  48 2.79  49 2.80  54 2.80
                            78 2.81  22 2.81  45 2.81   7 2.81
  12  0.952  0.536  0.225-  45 2.73  21 2.73  46 2.74   3 2.75   9 2.76  56 2.76  76 2.80  67 2.80
                            20 2.81  55 2.81  62 2.81  77 2.81
  13  0.285  0.118  0.326-  26 2.75  62 2.76  69 2.76  23 2.80  73 2.80  43 2.81  47 2.81  15 2.81
                             9 2.81  36 2.83  33 2.83  31 2.84
  14  0.535  0.619  0.326-  51 2.75  66 2.76  67 2.76  63 2.80  23 2.80  41 2.81  56 2.81  73 2.81
                            57 2.81  52 2.84  37 2.84  38 2.84
  15  0.285  0.369  0.326-  62 2.75  76 2.76  80 2.76  57 2.80  41 2.81   9 2.81  43 2.81   3 2.81
                            13 2.81  36 2.83  28 2.84  50 2.84
  16  0.286  0.118  0.022-   8 2.79  53 2.79  54 2.79  10 2.81  48 2.81  24 2.81  75 2.81  44 2.81
                            18 2.81
  17  0.536  0.618  0.022-  22 2.79  25 2.79  60 2.79  64 2.80  58 2.80  42 2.81  59 2.81  75 2.81
                            24 2.81
  18  0.286  0.368  0.022-  61 2.79  53 2.79  46 2.79   6 2.80  59 2.81  44 2.81  42 2.81  10 2.81
                            16 2.81
  19  0.619  0.952  0.125-  71 2.73  20 2.73  69 2.74  44 2.79  75 2.79   4 2.79  78 2.80   7 2.80
                            25 2.81  53 2.81  21 2.81   8 2.81
  20  0.702  0.786  0.225-  25 2.73  19 2.73  21 2.74   1 2.75  56 2.76  73 2.76  55 2.80  71 2.80
                            12 2.81  69 2.81  67 2.81  66 2.81
  21  0.869  0.702  0.125-  55 2.73  12 2.73  20 2.74  58 2.79   4 2.79   6 2.79  70 2.80  78 2.80
                            25 2.81  46 2.81  19 2.81  45 2.81
  22  0.619  0.452  0.125-  79 2.73  67 2.73  51 2.73  17 2.79  42 2.79  64 2.79  45 2.81   7 2.81
                            11 2.81  25 2.81  60 2.81  61 2.81
  23  0.285  0.869  0.326-  68 2.75  26 2.76  66 2.76  13 2.80  14 2.80   2 2.80  57 2.81  47 2.81
                            73 2.81  31 2.83  37 2.84  29 2.84
  24  0.286  0.868  0.022-  60 2.79   8 2.79  49 2.79  59 2.80   5 2.81  17 2.81  75 2.81  16 2.81
                            48 2.81
  25  0.619  0.702  0.125-  20 2.73  67 2.73  66 2.74  75 2.79  17 2.79  58 2.79  19 2.81  21 2.81
                             8 2.81  60 2.81  22 2.81  45 2.81
  26  0.202  0.036  0.225-  54 2.73  49 2.73   8 2.74  13 2.75  23 2.76  47 2.76  62 2.80  77 2.80
                            68 2.81  65 2.81  66 2.81  69 2.81
  27  0.868  0.952  0.432-  87 1.85  96 1.85  97 1.85  29 2.80  39 2.81  40 2.81  32 2.81  35 2.81
                            34 2.81   1 2.83  72 2.84   2 2.84
  28  0.118  0.452  0.432-  88 1.85  90 1.85  89 1.85  35 2.80  39 2.81  33 2.81  30 2.81  36 2.81
                            50 2.81   9 2.83   3 2.83  15 2.84
  29  0.118  0.952  0.432-  97 1.85  84 1.85  94 1.85  27 2.80  33 2.80  31 2.81  37 2.81  39 2.81
                            32 2.81   2 2.83  47 2.84  23 2.84
  30  0.868  0.452  0.432-  93 1.85  89 1.85  83 1.85  52 2.80  32 2.80  38 2.80  35 2.81  28 2.81
                            33 2.81  63 2.83  56 2.84   9 2.84
  31  0.368  0.952  0.432-  94 1.85  95 1.85  85 1.85  37 2.80  52 2.80  29 2.81  34 2.81  33 2.81
                            36 2.81  23 2.83  13 2.84  73 2.84
  32  0.868  0.202  0.432-  97 1.85  92 1.85  93 1.85  30 2.80  38 2.80  33 2.80  40 2.81  27 2.81
                            29 2.81  72 2.83  47 2.84  63 2.84
  33  0.118  0.202  0.432-  94 1.85  93 1.85  90 1.85  29 2.80  32 2.80  28 2.81  36 2.81  31 2.81
                            30 2.81  47 2.83   9 2.83  13 2.83
  34  0.618  0.952  0.432-  86 1.85  95 1.85  96 1.86  36 2.80  40 2.80  31 2.81  52 2.81  35 2.81
                            27 2.81  73 2.83  43 2.84   1 2.84
  35  0.868  0.702  0.432-  89 1.85  86 1.85  87 1.86  28 2.80  39 2.80  30 2.81  27 2.81  52 2.81
                            34 2.81  56 2.83   3 2.84   1 2.84
  36  0.368  0.202  0.432-  91 1.84  90 1.85  95 1.85  34 2.80  40 2.81  33 2.81  31 2.81  50 2.81
                            28 2.81  13 2.83  15 2.83  43 2.84
  37  0.368  0.702  0.432-  82 1.85  84 1.85  85 1.86  81 1.86  31 2.80  50 2.80  39 2.80  29 2.81
                            38 2.81  52 2.81  57 2.84  23 2.84  14 2.84
  38  0.618  0.452  0.432-  82 1.85  92 1.85  83 1.86  81 1.86  50 2.80  40 2.80  32 2.80  30 2.80
                            37 2.81  52 2.81  41 2.84  63 2.84  14 2.84
  39  0.118  0.702  0.432-  88 1.85  87 1.85  84 1.86  35 2.80  37 2.80  27 2.81  29 2.81  50 2.81
                            28 2.81   3 2.83   2 2.84  57 2.84
  40  0.618  0.202  0.432-  91 1.85  96 1.85  92 1.86  38 2.80  34 2.80  27 2.81  36 2.81  32 2.81
                            50 2.81  43 2.83  72 2.84  41 2.84
  41  0.535  0.369  0.326-  80 2.75  51 2.76  79 2.76  72 2.80  43 2.80  63 2.80  15 2.81  14 2.81
                            57 2.81  40 2.84  38 2.84  50 2.84
  42  0.536  0.368  0.022-   7 2.79  22 2.79  61 2.79  59 2.80  64 2.80  17 2.81  18 2.81  74 2.81
                            44 2.81
  43  0.535  0.119  0.326-  69 2.75  80 2.76  71 2.76   1 2.80  72 2.80  41 2.80  73 2.81  13 2.81
                            15 2.81  40 2.83  34 2.84  36 2.84
  44  0.536  0.118  0.022-  19 2.79   7 2.79  53 2.79  18 2.81  75 2.81   4 2.81  16 2.81  74 2.81
                            42 2.81
  45  0.869  0.452  0.125-  12 2.73  77 2.73  67 2.73  58 2.79  64 2.79  10 2.79  46 2.80  54 2.80
                            22 2.81  11 2.81  21 2.81  25 2.81
  46  0.119  0.452  0.125-  76 2.73  62 2.73  12 2.74  10 2.79   6 2.79  18 2.79  45 2.80  54 2.80
                            53 2.80  21 2.81  61 2.81  70 2.81
  47  0.035  0.119  0.326-  65 2.75  77 2.76  26 2.76   2 2.80  72 2.80  23 2.81  13 2.81  63 2.81
                             9 2.81  33 2.83  29 2.84  32 2.84
  48  0.036  0.118  0.022-  49 2.79  54 2.79  11 2.79  16 2.81   5 2.81  74 2.81  10 2.81  24 2.81
                            64 2.81
  49  0.119  0.952  0.125-  68 2.73  26 2.73  65 2.74  48 2.79   5 2.79  24 2.79  11 2.80  54 2.80
                            78 2.80  70 2.81  60 2.81   8 2.81
  50  0.368  0.452  0.432-  81 1.85  88 1.86  91 1.86  38 2.80  37 2.80  39 2.81  40 2.81  36 2.81
                            28 2.81  15 2.84  57 2.84  41 2.84
  51  0.452  0.535  0.225-  60 2.73  61 2.73  22 2.73  14 2.75  41 2.76  57 2.76  68 2.81  76 2.81
                            80 2.81  79 2.81  66 2.81  67 2.81
  52  0.618  0.702  0.432-  83 1.85  85 1.85  82 1.86  86 1.86  30 2.80  31 2.80  37 2.81  34 2.81
                            35 2.81  38 2.81  14 2.84  73 2.84  56 2.84
  53  0.369  0.202  0.125-  80 2.73  69 2.73  62 2.74  16 2.79  18 2.79  44 2.79   8 2.80  46 2.80
                            61 2.81  54 2.81  19 2.81   7 2.81
  54  0.119  0.202  0.125-  26 2.73  62 2.73  77 2.74  10 2.79  48 2.79  16 2.79  45 2.80  11 2.80
                            49 2.80  46 2.80   8 2.81  53 2.81
  55  0.952  0.786  0.225-  21 2.73  78 2.73  70 2.74   2 2.76   3 2.76   1 2.76  20 2.80  65 2.80
                            71 2.80  68 2.80  12 2.81  76 2.81
  56  0.785  0.619  0.326-  67 2.75  20 2.76  12 2.76  73 2.80   9 2.80   3 2.81   1 2.81  14 2.81
                            63 2.81  35 2.83  30 2.84  52 2.84
  57  0.285  0.619  0.326-  76 2.75  68 2.76  51 2.76   3 2.80  15 2.80   2 2.81  23 2.81  14 2.81
                            41 2.81  37 2.84  50 2.84  39 2.84
  58  0.786  0.618  0.022-  21 2.79  45 2.79  25 2.79  17 2.80  64 2.81  75 2.81   4 2.81  10 2.81
                             6 2.81
  59  0.286  0.618  0.022-  61 2.79  60 2.79  70 2.79  42 2.80  24 2.80  17 2.81  18 2.81   5 2.81
                             6 2.81
  60  0.369  0.702  0.125-  51 2.73  66 2.73  68 2.74  24 2.79  59 2.79  17 2.79   8 2.81  49 2.81
                            25 2.81  70 2.81  22 2.81  61 2.81
  61  0.369  0.452  0.125-  51 2.73  80 2.73  76 2.74  18 2.79  59 2.79  42 2.79   7 2.80  53 2.81
                            46 2.81  70 2.81  22 2.81  60 2.81
  62  0.202  0.285  0.225-  54 2.73  46 2.73  53 2.74  15 2.75  13 2.76   9 2.76  26 2.80  77 2.80
                            69 2.81  12 2.81  80 2.81  76 2.81
  63  0.785  0.369  0.326-  79 2.75  67 2.76  77 2.76  14 2.80  41 2.80   9 2.80  72 2.81  56 2.81
                            47 2.81  30 2.83  32 2.84  38 2.84
  64  0.786  0.368  0.022-  11 2.79  45 2.79  22 2.79  17 2.80  42 2.80  58 2.81  74 2.81  10 2.81
                            48 2.81
  65  0.952  0.035  0.225-  11 2.73  78 2.73  49 2.74  47 2.75   2 2.76  72 2.76  79 2.80  71 2.80
                            68 2.80  55 2.80  77 2.81  26 2.81
  66  0.452  0.786  0.225-   8 2.73  60 2.73  25 2.74  73 2.75  23 2.76  14 2.76  69 2.80  26 2.81
                            20 2.81  68 2.81  67 2.81  51 2.81
  67  0.702  0.535  0.225-  25 2.73  22 2.73  45 2.73  56 2.75  63 2.76  14 2.76  12 2.80  77 2.81
                            20 2.81  79 2.81  66 2.81  51 2.81
  68  0.202  0.786  0.225-  49 2.73  70 2.73  60 2.74  23 2.75  57 2.76   2 2.76  65 2.80  55 2.80
                            26 2.81  51 2.81  66 2.81  76 2.81
  69  0.452  0.036  0.225-   8 2.73  53 2.73  19 2.74  43 2.75  13 2.76  73 2.76  80 2.80  66 2.80
                            62 2.81  20 2.81  71 2.81  26 2.81
  70  0.119  0.702  0.125-  68 2.73  76 2.73  55 2.74   6 2.79   5 2.79  59 2.79  21 2.80  78 2.80
                            49 2.81  61 2.81  60 2.81  46 2.81
  71  0.702  0.036  0.225-  19 2.73   7 2.73  78 2.74  72 2.76   1 2.76  43 2.76  65 2.80  20 2.80
                            79 2.80  55 2.80  80 2.81  69 2.81
  72  0.785  0.119  0.326-  71 2.76  79 2.76  65 2.76  47 2.80   1 2.80  43 2.80  41 2.80  63 2.81
                             2 2.81  32 2.83  27 2.84  40 2.84
  73  0.535  0.869  0.326-  66 2.75  69 2.76  20 2.76  56 2.80  13 2.80  43 2.81   1 2.81  14 2.81
                            23 2.81  34 2.83  31 2.84  52 2.84
  74  0.786  0.118  0.021-  78 2.79  11 2.79   7 2.79  48 2.81  64 2.81  42 2.81   4 2.81  44 2.81
                             5 2.81
  75  0.536  0.868  0.022-  25 2.79  19 2.79   8 2.79  17 2.81  24 2.81  58 2.81   4 2.81  44 2.81
                            16 2.81
  76  0.202  0.535  0.225-  46 2.73  70 2.73  61 2.74  57 2.75  15 2.76   3 2.76  12 2.80  80 2.81
                            55 2.81  62 2.81  51 2.81  68 2.81
  77  0.952  0.285  0.225-  45 2.73  11 2.73  54 2.74   9 2.75  47 2.76  63 2.76  62 2.80  26 2.80
                            79 2.80  67 2.81  65 2.81  12 2.81
  78  0.869  0.952  0.125-  55 2.73  65 2.73  71 2.74  74 2.79   4 2.79   5 2.79  21 2.80  19 2.80
                            49 2.80  70 2.80  11 2.81   7 2.81
  79  0.702  0.285  0.225-  22 2.73   7 2.73  11 2.73  63 2.75  72 2.76  41 2.76  65 2.80  71 2.80
                            77 2.80  67 2.81  51 2.81  80 2.81
  80  0.452  0.285  0.225-  53 2.73  61 2.73   7 2.74  41 2.75  43 2.76  15 2.76  69 2.80  71 2.81
                            76 2.81  62 2.81  51 2.81  79 2.81
  81  0.451  0.535  0.474-  50 1.85  38 1.86  37 1.86
  82  0.534  0.618  0.473-  38 1.85  37 1.85  52 1.86
  83  0.701  0.536  0.473-  52 1.85  30 1.85  38 1.86
  84  0.201  0.786  0.473-  29 1.85  37 1.85  39 1.86
  85  0.451  0.785  0.473-  52 1.85  31 1.85  37 1.86
  86  0.702  0.786  0.473-  34 1.85  35 1.85  52 1.86
  87  0.951  0.786  0.473-  39 1.85  27 1.85  35 1.86
  88  0.200  0.536  0.473-  28 1.85  39 1.85  50 1.86
  89  0.951  0.536  0.473-  35 1.85  30 1.85  28 1.85
  90  0.201  0.285  0.473-  28 1.85  36 1.85  33 1.85
  91  0.451  0.284  0.473-  36 1.84  40 1.85  50 1.86
  92  0.701  0.285  0.473-  38 1.85  32 1.85  40 1.86
  93  0.951  0.286  0.473-  30 1.85  32 1.85  33 1.85
  94  0.201  0.036  0.473-  31 1.85  33 1.85  29 1.85
  95  0.451  0.035  0.473-  34 1.85  31 1.85  36 1.85
  96  0.702  0.036  0.473-  40 1.85  27 1.85  34 1.86
  97  0.951  0.036  0.473-  29 1.85  32 1.85  27 1.85
 
  LATTYP: Found a hexagonal cell.
 ALAT       =    11.2227001190
 C/A-ratio  =     1.9603125600
  
  Lattice vectors:
  
 A1 = (   5.6113500595,  -9.7191434021,   0.0000000000)
 A2 = ( -11.2227001190,   0.0000000000,   0.0000000000)
 A3 = (   0.0000000000,   0.0000000000, -22.0000000000)


Analysis of symmetry for initial positions (statically):
=====================================================================
 Subroutine PRICEL returns:
 Original cell was already a primitive cell.
 

 Routine SETGRP: Setting up the symmetry group for a 
 hexagonal supercell.


 Subroutine GETGRP returns: Found  1 space group operations
 (whereof  1 operations were pure point group operations)
 out of a pool of 24 trial point group operations.


The static configuration has the point symmetry C_1 .


Analysis of symmetry for dynamics (positions and initial velocities):
=====================================================================
 Subroutine PRICEL returns:
 Original cell was already a primitive cell.
 

 Routine SETGRP: Setting up the symmetry group for a 
 hexagonal supercell.


 Subroutine GETGRP returns: Found  1 space group operations
 (whereof  1 operations were pure point group operations)
 out of a pool of 24 trial point group operations.


The dynamic configuration has the point symmetry C_1 .


Analysis of structural, dynamic, and magnetic symmetry:
=====================================================================
 Subroutine PRICEL returns:
 Original cell was already a primitive cell.
 

 Routine SETGRP: Setting up the symmetry group for a 
 hexagonal supercell.


 Subroutine GETGRP returns: Found  1 space group operations
 (whereof  1 operations were pure point group operations)
 out of a pool of 24 trial point group operations.


The magnetic configuration has the point symmetry C_1 .


 Subroutine INISYM returns: Found  1 space group operations
 (whereof  1 operations are pure point group operations),
 and found     1 'primitive' translations

 
 
 KPOINTS: mesh auto                               

Automatic generation of k-mesh.
Space group operators:
 irot       det(A)        alpha          n_x          n_y          n_z        tau_x        tau_y        tau_z
    1     1.000000     0.000000     1.000000     0.000000     0.000000     0.000000     0.000000     0.000000
 
 Subroutine IBZKPT returns following result:
 ===========================================
 
 Found      4 irreducible k-points:
 
 Following reciprocal coordinates:
            Coordinates               Weight
  0.000000  0.000000  0.000000      1.000000
  0.500000  0.000000  0.000000      1.000000
  0.000000  0.500000  0.000000      1.000000
  0.500000  0.500000  0.000000      1.000000
 
 Following cartesian coordinates:
            Coordinates               Weight
  0.000000  0.000000  0.000000      1.000000
  0.044553 -0.025722  0.000000      1.000000
  0.000000  0.051445  0.000000      1.000000
  0.044553  0.025722  0.000000      1.000000
 


--------------------------------------------------------------------------------------------------------




 Dimension of arrays:
   k-points           NKPTS =      4   k-points in BZ     NKDIM =      4   number of bands    NBANDS=    540
   number of dos      NEDOS =    301   number of ions     NIONS =     97
   non local maximal  LDIM  =      6   non local SUM 2l+1 LMDIM =     18
   total plane-waves  NPLWV = ******
   max r-space proj   IRMAX =   7929   max aug-charges    IRDMAX=  34542
   dimension x,y,z NGX =    90 NGY =   90 NGZ =  168
   dimension x,y,z NGXF=   180 NGYF=  180 NGZF=  336
   support grid    NGXF=   180 NGYF=  180 NGZF=  336
   ions per type =              80  17
   NGX,Y,Z   is equivalent  to a cutoff of  13.33, 13.33, 12.70 a.u.
   NGXF,Y,Z  is equivalent  to a cutoff of  26.66, 26.66, 25.39 a.u.

 SYSTEM =  Pt111                                   
 POSCAR =  Pt111                                   

 Startparameter for this run:
   NWRITE =      2    write-flag & timer
   PREC   = accura    normal or accurate (medium, high low for compatibility)
   ISTART =      0    job   : 0-new  1-cont  2-samecut
   ICHARG =      2    charge: 1-file 2-atom 10-const
   ISPIN  =      2    spin polarized calculation?
   LNONCOLLINEAR =      F non collinear calculations
   LSORBIT =      F    spin-orbit coupling
   INIWAV =      1    electr: 0-lowe 1-rand  2-diag
   LASPH  =      F    aspherical Exc in radial PAW
   METAGGA=      F    non-selfconsistent MetaGGA calc.

 Electronic Relaxation 1
   ENCUT  =  550.0 eV  40.42 Ry    6.36 a.u.  21.46 21.46 42.07*2*pi/ulx,y,z
   ENINI  =  550.0     initial cutoff
   ENAUG  =  400.0 eV  augmentation charge cutoff
   NELM   =    200;   NELMIN=  2; NELMDL= -5     # of ELM steps 
   EDIFF  = 0.1E-04   stopping-criterion for ELM
   LREAL  =      T    real-space projection
   NLSPLINE    = F    spline interpolate recip. space projectors
   LCOMPAT=      F    compatible to vasp.4.4
   GGA_COMPAT  = T    GGA compatible to vasp.4.4-vasp.4.6
   LMAXPAW     = -100 max onsite density
   LMAXMIX     =    2 max onsite mixed and CHGCAR
   VOSKOWN=      0    Vosko Wilk Nusair interpolation
   ROPT   =   -0.00025  -0.00025
 Ionic relaxation
   EDIFFG = -.5E-01   stopping-criterion for IOM
   NSW    =    300    number of steps for IOM
   NBLOCK =      1;   KBLOCK =    300    inner block; outer block 
   IBRION =      2    ionic relax: 0-MD 1-quasi-New 2-CG
   NFREE  =      1    steps in history (QN), initial steepest desc. (CG)
   ISIF   =      2    stress and relaxation
   IWAVPR =     11    prediction:  0-non 1-charg 2-wave 3-comb
   ISYM   =      2    0-nonsym 1-usesym 2-fastsym
   LCORR  =      T    Harris-Foulkes like correction to forces

   POTIM  = 0.5000    time-step for ionic-motion
   TEIN   =    0.0    initial temperature
   TEBEG  =    0.0;   TEEND  =   0.0 temperature during run
   SMASS  =  -3.00    Nose mass-parameter (am)
   estimated Nose-frequenzy (Omega)   =  0.10E-29 period in steps =****** mass=  -0.288E-26a.u.
   SCALEE = 1.0000    scale energy and forces
   NPACO  =    256;   APACO  = 16.0  distance and # of slots for P.C.
   PSTRESS=    0.0 pullay stress

  Mass of Ions in am
   POMASS = 195.08  1.00
  Ionic Valenz
   ZVAL   =  10.00  1.00
  Atomic Wigner-Seitz radii
   RWIGS  =  -1.00 -1.00
  virtual crystal weights 
   VCA    =   1.00  1.00
   NELECT =     817.0000    total number of electrons
   NUPDOWN=      -1.0000    fix difference up-down

 DOS related values:
   EMIN   =  10.00;   EMAX   =-10.00  energy-range for DOS
   EFERMI =   0.00
   ISMEAR =     1;   SIGMA  =   0.10  broadening in eV -4-tet -1-fermi 0-gaus

 Electronic relaxation 2 (details)
   IALGO  =     68    algorithm
   LDIAG  =      T    sub-space diagonalisation (order eigenvalues)
   LSUBROT=      F    optimize rotation matrix (better conditioning)
   TURBO    =      0    0=normal 1=particle mesh
   IRESTART =      0    0=no restart 2=restart with 2 vectors
   NREBOOT  =      0    no. of reboots
   NMIN     =      0    reboot dimension
   EREF     =   0.00    reference energy to select bands
   IMIX   =      4    mixing-type and parameters
     AMIX     =   0.40;   BMIX     =  1.00
     AMIX_MAG =   1.60;   BMIX_MAG =  1.00
     AMIN     =   0.10
     WC   =   100.;   INIMIX=   1;  MIXPRE=   1;  MAXMIX= -45

 Intra band minimization:
   WEIMIN = 0.0010     energy-eigenvalue tresh-hold
   EBREAK =  0.46E-08  absolut break condition
   DEPER  =   0.30     relativ break condition  

   TIME   =   0.40     timestep for ELM

  volume/ion in A,a.u.               =      24.74       166.94
  Fermi-wavevector in a.u.,A,eV,Ry     =   1.143140  2.160222 17.779679  1.306770
  Thomas-Fermi vector in A             =   2.279836
 
 Write flags
   LWAVE        =      F    write WAVECAR
   LDOWNSAMPLE  =      F    k-point downsampling of WAVECAR
   LCHARG       =      F    write CHGCAR
   LVTOT        =      F    write LOCPOT, total local potential
   LVHAR        =      F    write LOCPOT, Hartree potential only
   LELF         =      F    write electronic localiz. function (ELF)
   LORBIT       =      0    0 simple, 1 ext, 2 COOP (PROOUT), +10 PAW based schemes


 Dipole corrections
   LMONO  =      F    monopole corrections only (constant potential shift)
   LDIPOL =      F    correct potential (dipole corrections)
   IDIPOL =      0    1-x, 2-y, 3-z, 4-all directions 
   EPSILON=  1.0000000 bulk dielectric constant

 Exchange correlation treatment:
   GGA     =    --    GGA type
   LEXCH   =     8    internal setting for exchange type
   VOSKOWN=      0    Vosko Wilk Nusair interpolation
   LHFCALC =     F    Hartree Fock is set to
   LHFONE  =     F    Hartree Fock one center treatment
   AEXX    =    0.0000 exact exchange contribution

 Linear response parameters
   LEPSILON=     F    determine dielectric tensor
   LRPA    =     F    only Hartree local field effects (RPA)
   LNABLA  =     F    use nabla operator in PAW spheres
   LVEL    =     F    velocity operator in full k-point grid
   LINTERFAST=   F  fast interpolation
   KINTER  =     0    interpolate to denser k-point grid
   CSHIFT  =0.1000    complex shift for real part using Kramers Kronig
   OMEGAMAX=  -1.0    maximum frequency
   DEG_THRESHOLD= 0.2000000E-02 threshold for treating states as degnerate
   RTIME   =   -0.100 relaxation time in fs
  (WPLASMAI=    0.000 imaginary part of plasma frequency in eV, 0.658/RTIME)
   DFIELD  = 0.0000000 0.0000000 0.0000000 field for delta impulse in time
 
 Orbital magnetization related:
   ORBITALMAG=     F  switch on orbital magnetization
   LCHIMAG   =     F  perturbation theory with respect to B field
   DQ        =  0.001000  dq finite difference perturbation B field
   LLRAUG    =     F  two centre corrections for induced B field



--------------------------------------------------------------------------------------------------------


 conjugate gradient relaxation of ions
 charge density and potential will be updated during run
 spin polarized calculation
 RMM-DIIS sequential band-by-band and
  variant of blocked Davidson during initial phase
 perform sub-space diagonalisation
    before iterative eigenvector-optimisation
 modified Broyden-mixing scheme, WC =      100.0
 initial mixing is a Kerker type mixing with AMIX =  0.4000 and BMIX =      1.0000
 Hartree-type preconditioning will be used
 using additional bands          131
 real space projection scheme for non local part
 use partial core corrections
 calculate Harris-corrections to forces 
   (improved forces if not selfconsistent)
 use gradient corrections 
 use of overlap-Matrix (Vanderbilt PP)
 Methfessel and Paxton  Order N= 1 SIGMA  =   0.10


--------------------------------------------------------------------------------------------------------


  energy-cutoff  :      550.00
  volume of cell :     2399.65
      direct lattice vectors                 reciprocal lattice vectors
    11.222700119  0.000000000  0.000000000     0.089105116 -0.051444863  0.000000000
     5.611350060  9.719143402  0.000000000     0.000000000  0.102889726  0.000000000
     0.000000000  0.000000000 22.000000000     0.000000000  0.000000000  0.045454545

  length of vectors
    11.222700119 11.222700119 22.000000000     0.102889726  0.102889726  0.045454545


 
 k-points in units of 2pi/SCALE and weight: mesh auto                               
   0.00000000  0.00000000  0.00000000       0.250
   0.04455256 -0.02572243  0.00000000       0.250
   0.00000000  0.05144486  0.00000000       0.250
   0.04455256  0.02572243  0.00000000       0.250
 
 k-points in reciprocal lattice and weights: mesh auto                               
   0.00000000  0.00000000  0.00000000       0.250
   0.50000000  0.00000000  0.00000000       0.250
   0.00000000  0.50000000  0.00000000       0.250
   0.50000000  0.50000000  0.00000000       0.250
 
 position of ions in fractional coordinates (direct lattice) 
   0.78495805  0.86896607  0.32634900
   0.03493624  0.86883071  0.32631151
   0.03474639  0.61904393  0.32629464
   0.78600147  0.86837478  0.02140203
   0.03605583  0.86833652  0.02145216
   0.03609558  0.61828897  0.02151680
   0.61887817  0.20202420  0.12478787
   0.36889525  0.95211242  0.12488233
   0.03453949  0.36900499  0.32632319
   0.03601696  0.36831694  0.02163533
   0.86904714  0.20184049  0.12483046
   0.95195448  0.53553421  0.22496812
   0.28505394  0.11843737  0.32634783
   0.53488028  0.61868118  0.32626393
   0.28486216  0.36875344  0.32625106
   0.28596595  0.11835565  0.02169465
   0.53606809  0.61835352  0.02157221
   0.28602301  0.36839124  0.02156908
   0.61897711  0.95205627  0.12479008
   0.70209297  0.78562319  0.22492843
   0.86901344  0.70202042  0.12476885
   0.61907774  0.45195348  0.12489719
   0.28496954  0.86861135  0.32627329
   0.28605344  0.86830139  0.02158756
   0.61898372  0.70210764  0.12489350
   0.20174150  0.03563966  0.22497918
   0.86797203  0.95206748  0.43206160
   0.11767670  0.45206147  0.43187793
   0.11787295  0.95200790  0.43215963
   0.86753453  0.45211700  0.43219113
   0.36797897  0.95169103  0.43218428
   0.86779034  0.20217215  0.43215664
   0.11782180  0.20190537  0.43181301
   0.61779954  0.95206757  0.43210622
   0.86797307  0.70196793  0.43207506
   0.36796577  0.20188979  0.43193702
   0.36777609  0.70200712  0.43226306
   0.61774731  0.45189767  0.43238721
   0.11783611  0.70203650  0.43219036
   0.61791519  0.20194402  0.43220370
   0.53487862  0.36863999  0.32621179
   0.53601033  0.36843322  0.02154165
   0.53512504  0.11861419  0.32631213
   0.53598282  0.11837413  0.02151648
   0.86913714  0.45186586  0.12487411
   0.11885713  0.45182794  0.12484926
   0.03472518  0.11865979  0.32635236
   0.03602211  0.11832496  0.02157180
   0.11878822  0.95207262  0.12483957
   0.36796985  0.45211406  0.43224335
   0.45183309  0.53544684  0.22486315
   0.61784516  0.70197516  0.43235919
   0.36880876  0.20193170  0.12483758
   0.11879767  0.20194283  0.12484750
   0.95188953  0.78555153  0.22489898
   0.78473541  0.61905734  0.32635310
   0.28473855  0.61873463  0.32620021
   0.78600317  0.61835619  0.02158954
   0.28612568  0.61832625  0.02158678
   0.36892615  0.70212528  0.12487237
   0.36887431  0.45184209  0.12483014
   0.20172296  0.28524903  0.22502278
   0.78461025  0.36898814  0.32631567
   0.78590239  0.36844794  0.02159030
   0.95184642  0.03544205  0.22494148
   0.45191597  0.78575934  0.22494587
   0.70224037  0.53545754  0.22494313
   0.20177417  0.78564638  0.22488638
   0.45192078  0.03556428  0.22496765
   0.11888108  0.70199763  0.12478246
   0.70200507  0.03551460  0.22489289
   0.78488009  0.11884948  0.32633948
   0.53511917  0.86865506  0.32634239
   0.78600962  0.11840529  0.02149734
   0.53601315  0.86835052  0.02154981
   0.20173921  0.53533194  0.22487343
   0.95203023  0.28531705  0.22500757
   0.86893964  0.95192349  0.12475025
   0.70213401  0.28530743  0.22491190
   0.45177645  0.28530354  0.22489401
   0.45067082  0.53506309  0.47352703
   0.53400000  0.61800000  0.47300000
   0.70102787  0.53573222  0.47333588
   0.20107064  0.78574699  0.47309528
   0.45149752  0.78526589  0.47330304
   0.70178060  0.78596925  0.47296115
   0.95139603  0.78573727  0.47291960
   0.20013027  0.53559164  0.47273665
   0.95090783  0.53565864  0.47278161
   0.20111275  0.28542177  0.47263331
   0.45135526  0.28425999  0.47277917
   0.70139355  0.28536919  0.47317200
   0.95127660  0.28563128  0.47283972
   0.20130146  0.03560551  0.47280908
   0.45136219  0.03507324  0.47279271
   0.70152043  0.03551676  0.47291569
   0.95134607  0.03561953  0.47286515
 
 position of ions in cartesian coordinates  (Angst):
  13.68542167  8.44560586  7.17967795
   5.26739218  8.44429026  7.17885331
   3.86362051  6.01657677  7.17848203
  13.69381365  8.43985899  0.47084455
   5.27718394  8.43948715  0.47194747
   3.87452571  6.00923921  0.47336967
   8.07911260  1.96350221  2.74533321
   9.48263682  9.25371717  2.74741135
   2.45824253  3.58641237  7.17911025
   2.47096276  3.57972512  0.47597715
  10.88565307  1.96171662  2.74627011
  13.68856954  5.20493375  4.94929866
   3.86366850  1.15110980  7.17965221
   9.47443760  6.01305106  7.17780647
   5.26612722  3.58396760  7.17752341
   3.87344508  1.15031558  0.47728240
   9.48592941  6.00986649  0.47458866
   5.27712267  3.58044726  0.47451966
  12.28891556  9.25317144  2.74538174
  12.28778563  7.63558444  4.94842541
  13.69195956  6.82303715  2.74491472
   9.48379296  4.39260064  2.74773828
   8.07221003  8.44215827  7.17801245
   8.08263500  8.43914570  0.47492633
  10.88644039  6.82388488  2.74765708
   2.46407100  0.34638699  4.94954201
  15.08337372  9.25328035  9.50535531
   3.85732543  4.39365024  9.50131451
   6.66490236  9.25270135  9.50751192
  12.27306661  4.39418994  9.50820488
   9.46998919  9.24962160  9.50805425
  10.87340943  1.96494012  9.50744597
   2.45524047  1.96234729  9.49988613
  12.27576335  9.25328126  9.50633680
  13.67998921  6.82252693  9.50565142
   5.26244374  1.96219584  9.50261435
   8.06664845  6.82290789  9.50978738
   9.46854883  4.39205822  9.51251871
   5.26181183  6.82319337  9.50818800
   8.06785544  1.96272286  9.50848131
   8.07135038  3.58286496  7.17665935
   8.08289102  3.58085530  0.47391623
   6.67113358  1.15282831  7.17886684
   6.67941312  1.15049517  0.47336252
  12.28964297  4.39174908  2.74723032
   3.86926261  4.39138050  2.74668371
   1.05555192  1.15327147  7.17975201
   1.06822813  1.15001726  0.47457965
   6.67553729  9.25333030  2.74647048
   6.66658546  4.39416135  9.50935366
   8.07536692  5.20408464  4.94698928
  10.87291937  6.82259727  9.51190207
   5.27213958  1.96260316  2.74642685
   2.46640253  1.96271135  2.74664490
  15.09077538  7.63488801  4.94777757
  12.28059760  6.01670705  7.17976831
   6.66747199  6.01357064  7.17640470
  12.29089092  6.00989248  0.47496994
   6.68074774  6.00960147  0.47490922
   8.08021834  6.82405633  2.74719221
   6.67520989  4.39151809  2.74626306
   3.86450842  2.77237626  4.95050116
  10.87596711  3.58624863  7.17894481
  10.88743724  3.58099839  0.47498651
  10.88116474  0.34446638  4.94871247
   9.48088811  7.63690766  4.94880913
  10.88567275  5.20418858  4.94874889
   6.67298790  7.63580985  4.94750026
   5.27133497  0.34565430  4.94928825
   5.27332113  6.82281568  2.74521404
   8.07767730  0.34517153  4.94764369
   9.47537996  1.15511514  7.17946849
  10.87980958  8.44258308  7.17953259
   9.48556375  1.15079800  0.47294158
  10.88813364  8.43962322  0.47409588
   5.26799359  5.20296785  4.94721554
  12.28536360  2.77303735  4.95016657
  15.09342498  9.25188094  2.74450557
   9.48079934  2.77294386  4.94806176
   6.67108961  2.77290600  4.94766828
   8.06016971  5.20035486 10.41759469
   9.46073620  6.00643062 10.40600000
  10.87360656  5.20685827 10.41338927
   6.66565687  7.63678766 10.40809625
   9.47342305  7.63211179 10.41266680
  12.28622184  7.63894788 10.40514536
  15.08627923  7.63669318 10.40423112
   5.25139420  5.20549196 10.40020627
  13.67752160  5.20614316 10.40119532
   3.85862952  2.77405512 10.39793271
   6.66050702  2.76276365 10.40114166
   9.47283588  2.77354404 10.40978397
  12.27866909  2.77609133 10.40247385
   2.45894089  0.34605505 10.40179981
   5.26231069  0.34088187 10.40143954
   8.07225032  0.34519245 10.40414514
  10.87654535  0.34619130 10.40303340
 


--------------------------------------------------------------------------------------------------------


 k-point  1 :   0.0000 0.0000 0.0000  plane waves:   70321
 k-point  2 :   0.5000 0.0000 0.0000  plane waves:   70264
 k-point  3 :   0.0000 0.5000 0.0000  plane waves:   70264
 k-point  4 :   0.5000 0.5000 0.0000  plane waves:   70264

 maximum and minimum number of plane-waves per node :     17611    17530

 maximum number of plane-waves:     70321
 maximum index in each direction: 
   IXMAX=   21   IYMAX=   21   IZMAX=   42
   IXMIN=  -21   IYMIN=  -21   IZMIN=  -42


 real space projection operators:
  total allocation   :      88508.70 KBytes
  max/ min on nodes  :      22622.54      21633.26


 parallel 3D FFT for wavefunctions:
    minimum data exchange during FFTs selected (reduces bandwidth)
 parallel 3D FFT for charge:
    minimum data exchange during FFTs selected (reduces bandwidth)


 total amount of memory used by VASP MPI-rank0   268257. kBytes
=======================================================================

   base      :      30000. kBytes
   nonlr-proj:      40860. kBytes
   fftplans  :      20287. kBytes
   grid      :      52194. kBytes
   one-center:        777. kBytes
   wavefun   :     124139. kBytes
 
     INWAV:  cpu time    0.0000: real time    0.0000
 Broyden mixing: mesh for mixing (old mesh)
   NGX = 43   NGY = 43   NGZ = 85
  (NGX  =180   NGY  =180   NGZ  =336)
  gives a total of 157165 points

 initial charge density was supplied:
 charge density of overlapping atoms calculated
 number of electron     817.0000000 magnetization      97.0000000
 keeping initial charge density in first step


--------------------------------------------------------------------------------------------------------


 Maximum index for non-local projection operator         2103
 Maximum index for augmentation-charges         1785 (set IRDMAX)


--------------------------------------------------------------------------------------------------------


 First call to EWALD:  gamma=   0.132
 Maximum number of real-space cells 4x 4x 2
 Maximum number of reciprocal cells 2x 2x 4

    FEWALD:  cpu time    0.0037: real time    0.0037


--------------------------------------- Iteration      1(   1)  ---------------------------------------


    POTLOK:  cpu time    0.4445: real time    0.4470
    SETDIJ:  cpu time    0.0384: real time    0.0387
     EDDAV:  cpu time   66.1113: real time   66.2780
       DOS:  cpu time    0.0021: real time    0.0023
    --------------------------------------------
      LOOP:  cpu time   66.5963: real time   66.7660

 eigenvalue-minimisations  :  8640
 total energy-change (2. order) : 0.5588896E+04  (-0.3976590E+05)
 number of electron     817.0000000 magnetization      97.0000000
 augmentation part      817.0000000 magnetization      97.0000000

 Free energy of the ion-electron system (eV)
  ---------------------------------------------------
  alpha Z        PSCENC =      2603.23065423
  Ewald energy   TEWEN  =    175726.59868419
  -Hartree energ DENC   =   -240157.31018786
  -exchange      EXHF   =         0.00000000
  -V(xc)+E(xc)   XCENC  =       342.89731046
  PAW double counting   =     55714.20569222   -53452.02284007
  entropy T*S    EENTRO =        -0.00309133
  eigenvalues    EBANDS =      6269.76689094
  atomic energy  EATOM  =     58541.53257041
  Solvation  Ediel_sol  =         0.00000000
  ---------------------------------------------------
  free energy    TOTEN  =      5588.89568319 eV

  energy without entropy =     5588.89877453  energy(sigma->0) =     5588.89671364


--------------------------------------------------------------------------------------------------------




--------------------------------------- Iteration      1(   2)  ---------------------------------------


     EDDAV:  cpu time   71.6812: real time   71.8512
       DOS:  cpu time    0.0019: real time    0.0019
    --------------------------------------------
      LOOP:  cpu time   71.6832: real time   71.8531

 eigenvalue-minimisations  :  9640
 total energy-change (2. order) :-0.5802212E+04  (-0.5325084E+04)
 number of electron     817.0000000 magnetization      97.0000000
 augmentation part      817.0000000 magnetization      97.0000000

 Free energy of the ion-electron system (eV)
  ---------------------------------------------------
  alpha Z        PSCENC =      2603.23065423
  Ewald energy   TEWEN  =    175726.59868419
  -Hartree energ DENC   =   -240157.31018786
  -exchange      EXHF   =         0.00000000
  -V(xc)+E(xc)   XCENC  =       342.89731046
  PAW double counting   =     55714.20569222   -53452.02284007
  entropy T*S    EENTRO =        -0.00340422
  eigenvalues    EBANDS =       467.55485692
  atomic energy  EATOM  =     58541.53257041
  Solvation  Ediel_sol  =         0.00000000
  ---------------------------------------------------
  free energy    TOTEN  =      -213.31666371 eV

  energy without entropy =     -213.31325949  energy(sigma->0) =     -213.31552897


--------------------------------------------------------------------------------------------------------




--------------------------------------- Iteration      1(   3)  ---------------------------------------


     EDDAV:  cpu time   73.0142: real time   73.1870
       DOS:  cpu time    0.0020: real time    0.0020
    --------------------------------------------
      LOOP:  cpu time   73.0162: real time   73.1889

 eigenvalue-minimisations  :  9860
 total energy-change (2. order) :-0.3074140E+03  (-0.2847624E+03)
 number of electron     817.0000000 magnetization      97.0000000
 augmentation part      817.0000000 magnetization      97.0000000

 Free energy of the ion-electron system (eV)
  ---------------------------------------------------
  alpha Z        PSCENC =      2603.23065423
  Ewald energy   TEWEN  =    175726.59868419
  -Hartree energ DENC   =   -240157.31018786
  -exchange      EXHF   =         0.00000000
  -V(xc)+E(xc)   XCENC  =       342.89731046
  PAW double counting   =     55714.20569222   -53452.02284007
  entropy T*S    EENTRO =        -0.11581971
  eigenvalues    EBANDS =       160.25329418
  atomic energy  EATOM  =     58541.53257041
  Solvation  Ediel_sol  =         0.00000000
  ---------------------------------------------------
  free energy    TOTEN  =      -520.73064195 eV

  energy without entropy =     -520.61482223  energy(sigma->0) =     -520.69203538


--------------------------------------------------------------------------------------------------------




--------------------------------------- Iteration      1(   4)  ---------------------------------------


     EDDAV:  cpu time   75.0177: real time   75.1952
       DOS:  cpu time    0.0020: real time    0.0019
    --------------------------------------------
      LOOP:  cpu time   75.0196: real time   75.1971

 eigenvalue-minimisations  : 10210
 total energy-change (2. order) :-0.8388610E+01  (-0.8297100E+01)
 number of electron     817.0000000 magnetization      97.0000000
 augmentation part      817.0000000 magnetization      97.0000000

 Free energy of the ion-electron system (eV)
  ---------------------------------------------------
  alpha Z        PSCENC =      2603.23065423
  Ewald energy   TEWEN  =    175726.59868419
  -Hartree energ DENC   =   -240157.31018786
  -exchange      EXHF   =         0.00000000
  -V(xc)+E(xc)   XCENC  =       342.89731046
  PAW double counting   =     55714.20569222   -53452.02284007
  entropy T*S    EENTRO =        -0.11905145
  eigenvalues    EBANDS =       151.86791543
  atomic energy  EATOM  =     58541.53257041
  Solvation  Ediel_sol  =         0.00000000
  ---------------------------------------------------
  free energy    TOTEN  =      -529.11925243 eV

  energy without entropy =     -529.00020098  energy(sigma->0) =     -529.07956862


--------------------------------------------------------------------------------------------------------




--------------------------------------- Iteration      1(   5)  ---------------------------------------


     EDDAV:  cpu time   74.9867: real time   75.1653
       DOS:  cpu time    0.0020: real time    0.0020
    CHARGE:  cpu time    4.9035: real time    4.9153
    MIXING:  cpu time    0.0095: real time    0.0102
    --------------------------------------------
      LOOP:  cpu time   79.9017: real time   80.0928

 eigenvalue-minimisations  : 10170
 total energy-change (2. order) :-0.2912444E+00  (-0.2905568E+00)
 number of electron     816.9999974 magnetization      89.8633415
 augmentation part      234.3183304 magnetization      68.0026771

 Broyden mixing:
  rms(total) = 0.11069E+02    rms(broyden)= 0.11069E+02
  rms(prec ) = 0.11177E+02
  weight for this iteration     100.00

 Free energy of the ion-electron system (eV)
  ---------------------------------------------------
  alpha Z        PSCENC =      2603.23065423
  Ewald energy   TEWEN  =    175726.59868419
  -Hartree energ DENC   =   -240157.31018786
  -exchange      EXHF   =         0.00000000
  -V(xc)+E(xc)   XCENC  =       342.89731046
  PAW double counting   =     55714.20569222   -53452.02284007
  entropy T*S    EENTRO =        -0.11952454
  eigenvalues    EBANDS =       151.57714414
  atomic energy  EATOM  =     58541.53257041
  Solvation  Ediel_sol  =         0.00000000
  ---------------------------------------------------
  free energy    TOTEN  =      -529.41049681 eV

  energy without entropy =     -529.29097227  energy(sigma->0) =     -529.37065530


--------------------------------------------------------------------------------------------------------




--------------------------------------- Iteration      1(   6)  ---------------------------------------


    POTLOK:  cpu time    0.4269: real time    0.4279
    SETDIJ:  cpu time    0.0380: real time    0.0381
    EDDIAG:  cpu time   11.6437: real time   11.6717
  RMM-DIIS:  cpu time   41.3029: real time   41.4005
    ORTHCH:  cpu time    1.1917: real time    1.1946
       DOS:  cpu time    0.0023: real time    0.0023
    CHARGE:  cpu time    4.8985: real time    4.9101
    MIXING:  cpu time    0.0099: real time    0.0103
    --------------------------------------------
      LOOP:  cpu time   59.5139: real time   59.6554

 eigenvalue-minimisations  :  8700
 total energy-change (2. order) : 0.2659540E+02  (-0.1683418E+02)
 number of electron     816.9999969 magnetization      84.2118681
 augmentation part      246.7997820 magnetization      69.6880382

 Broyden mixing:
  rms(total) = 0.84529E+01    rms(broyden)= 0.84529E+01
  rms(prec ) = 0.97719E+01
  weight for this iteration     100.00

 eigenvalues of (default mixing * dielectric matrix)
  average eigenvalue GAMMA=   0.7544
  0.7544

 Free energy of the ion-electron system (eV)
  ---------------------------------------------------
  alpha Z        PSCENC =      2603.23065423
  Ewald energy   TEWEN  =    175726.59868419
  -Hartree energ DENC   =   -239301.90647720
  -exchange      EXHF   =         0.00000000
  -V(xc)+E(xc)   XCENC  =       345.48266150
  PAW double counting   =     62666.81289901   -60525.16944003
  entropy T*S    EENTRO =        -0.07500352
  eigenvalues    EBANDS =      -559.32164216
  atomic energy  EATOM  =     58541.53257041
  Solvation  Ediel_sol  =         0.00000000
  ---------------------------------------------------
  free energy    TOTEN  =      -502.81509356 eV

  energy without entropy =     -502.74009004  energy(sigma->0) =     -502.79009239


--------------------------------------------------------------------------------------------------------




--------------------------------------- Iteration      1(   7)  ---------------------------------------


    POTLOK:  cpu time    0.4262: real time    0.4272
    SETDIJ:  cpu time    0.0380: real time    0.0381
    EDDIAG:  cpu time   11.6531: real time   11.6809
  RMM-DIIS:  cpu time   40.6959: real time   40.7920
    ORTHCH:  cpu time    1.1746: real time    1.1774
       DOS:  cpu time    0.0018: real time    0.0018
    CHARGE:  cpu time    5.0880: real time    5.1000
    MIXING:  cpu time    0.0101: real time    0.0102
    --------------------------------------------
      LOOP:  cpu time   59.0876: real time   59.2275

 eigenvalue-minimisations  :  8697
 total energy-change (2. order) :-0.2308682E+03  (-0.2001432E+02)
 number of electron     816.9999974 magnetization      77.3352505
 augmentation part      235.9967972 magnetization      59.0923876

 Broyden mixing:
  rms(total) = 0.12925E+02    rms(broyden)= 0.12925E+02
  rms(prec ) = 0.18496E+02
  weight for this iteration     100.00

 eigenvalues of (default mixing * dielectric matrix)
  average eigenvalue GAMMA=   0.6419
  1.0605  0.2233

 Free energy of the ion-electron system (eV)
  ---------------------------------------------------
  alpha Z        PSCENC =      2603.23065423
  Ewald energy   TEWEN  =    175726.59868419
  -Hartree energ DENC   =   -240116.12762327
  -exchange      EXHF   =         0.00000000
  -V(xc)+E(xc)   XCENC  =       341.06097394
  PAW double counting   =     66046.42639895   -63938.81436403
  entropy T*S    EENTRO =        -0.02457551
  eigenvalues    EBANDS =        62.43395703
  atomic energy  EATOM  =     58541.53257041
  Solvation  Ediel_sol  =         0.00000000
  ---------------------------------------------------
  free energy    TOTEN  =      -733.68332406 eV

  energy without entropy =     -733.65874855  energy(sigma->0) =     -733.67513222


--------------------------------------------------------------------------------------------------------




--------------------------------------- Iteration      1(   8)  ---------------------------------------


    POTLOK:  cpu time    0.4265: real time    0.4275
    SETDIJ:  cpu time    0.0380: real time    0.0381
    EDDIAG:  cpu time   11.6487: real time   11.6765
  RMM-DIIS:  cpu time   40.6432: real time   40.7392
    ORTHCH:  cpu time    1.1706: real time    1.1734
       DOS:  cpu time    0.0019: real time    0.0019
    CHARGE:  cpu time    4.9874: real time    4.9992
    MIXING:  cpu time    0.0104: real time    0.0104
    --------------------------------------------
      LOOP:  cpu time   58.9266: real time   59.0662

 eigenvalue-minimisations  :  8650
 total energy-change (2. order) : 0.1155649E+03  (-0.7241310E+01)
 number of electron     816.9999970 magnetization      71.3697198
 augmentation part      243.7484578 magnetization      55.1764755

 Broyden mixing:
  rms(total) = 0.99879E+01    rms(broyden)= 0.99879E+01
  rms(prec ) = 0.12636E+02
  weight for this iteration     100.00

 eigenvalues of (default mixing * dielectric matrix)
  average eigenvalue GAMMA=   0.7085
  1.5656  0.3721  0.1877

 Free energy of the ion-electron system (eV)
  ---------------------------------------------------
  alpha Z        PSCENC =      2603.23065423
  Ewald energy   TEWEN  =    175726.59868419
  -Hartree energ DENC   =   -240001.76704604
  -exchange      EXHF   =         0.00000000
  -V(xc)+E(xc)   XCENC  =       333.34515920
  PAW double counting   =     69876.25750947   -67820.04388158
  entropy T*S    EENTRO =         0.01047911
  eigenvalues    EBANDS =       122.71745092
  atomic energy  EATOM  =     58541.53257041
  Solvation  Ediel_sol  =         0.00000000
  ---------------------------------------------------
  free energy    TOTEN  =      -618.11842010 eV

  energy without entropy =     -618.12889920  energy(sigma->0) =     -618.12191313


--------------------------------------------------------------------------------------------------------




--------------------------------------- Iteration      1(   9)  ---------------------------------------


    POTLOK:  cpu time    0.4272: real time    0.4282
    SETDIJ:  cpu time    0.0380: real time    0.0381
    EDDIAG:  cpu time   11.6523: real time   11.6801
  RMM-DIIS:  cpu time   40.9318: real time   41.0285
    ORTHCH:  cpu time    1.1729: real time    1.1757
       DOS:  cpu time    0.0021: real time    0.0021
    CHARGE:  cpu time    4.9002: real time    4.9119
    MIXING:  cpu time    0.0108: real time    0.0108
    --------------------------------------------
      LOOP:  cpu time   59.1353: real time   59.2753

 eigenvalue-minimisations  :  8685
 total energy-change (2. order) : 0.9143724E+02  (-0.6708115E+01)
 number of electron     816.9999971 magnetization      65.0905679
 augmentation part      250.2812830 magnetization      52.3709004

 Broyden mixing:
  rms(total) = 0.56963E+01    rms(broyden)= 0.56963E+01
  rms(prec ) = 0.90113E+01
  weight for this iteration     100.00

 eigenvalues of (default mixing * dielectric matrix)
  average eigenvalue GAMMA=   0.7947
  2.0898  0.6435  0.2944  0.1509

 Free energy of the ion-electron system (eV)
  ---------------------------------------------------
  alpha Z        PSCENC =      2603.23065423
  Ewald energy   TEWEN  =    175726.59868419
  -Hartree energ DENC   =   -239389.93099316
  -exchange      EXHF   =         0.00000000
  -V(xc)+E(xc)   XCENC  =       332.24529615
  PAW double counting   =     72648.87833556   -70626.84346027
  entropy T*S    EENTRO =        -0.08771045
  eigenvalues    EBANDS =      -362.30455254
  atomic energy  EATOM  =     58541.53257041
  Solvation  Ediel_sol  =         0.00000000
  ---------------------------------------------------
  free energy    TOTEN  =      -526.68117587 eV

  energy without entropy =     -526.59346542  energy(sigma->0) =     -526.65193905


--------------------------------------------------------------------------------------------------------




--------------------------------------- Iteration      1(  10)  ---------------------------------------


    POTLOK:  cpu time    0.4270: real time    0.4280
    SETDIJ:  cpu time    0.0384: real time    0.0385
    EDDIAG:  cpu time   11.6674: real time   11.6951
  RMM-DIIS:  cpu time   40.9539: real time   41.0505
    ORTHCH:  cpu time    1.1757: real time    1.1784
       DOS:  cpu time    0.0019: real time    0.0019
    CHARGE:  cpu time    4.9039: real time    4.9155
    MIXING:  cpu time    0.0112: real time    0.0112
    --------------------------------------------
      LOOP:  cpu time   59.1792: real time   59.3192

 eigenvalue-minimisations  :  8672
 total energy-change (2. order) : 0.2184552E+02  (-0.3452849E+01)
 number of electron     816.9999974 magnetization      62.6497612
 augmentation part      248.5682280 magnetization      46.5157910

 Broyden mixing:
  rms(total) = 0.39601E+01    rms(broyden)= 0.39601E+01
  rms(prec ) = 0.46027E+01
  weight for this iteration     100.00

 eigenvalues of (default mixing * dielectric matrix)
  average eigenvalue GAMMA=   0.7023
  2.1546  0.4811  0.4811  0.2468  0.1480

 Free energy of the ion-electron system (eV)
  ---------------------------------------------------
  alpha Z        PSCENC =      2603.23065423
  Ewald energy   TEWEN  =    175726.59868419
  -Hartree energ DENC   =   -239620.80333106
  -exchange      EXHF   =         0.00000000
  -V(xc)+E(xc)   XCENC  =       329.34281269
  PAW double counting   =     73736.80201114   -71714.33545366
  entropy T*S    EENTRO =         0.07844924
  eigenvalues    EBANDS =      -107.28205331
  atomic energy  EATOM  =     58541.53257041
  Solvation  Ediel_sol  =         0.00000000
  ---------------------------------------------------
  free energy    TOTEN  =      -504.83565613 eV

  energy without entropy =     -504.91410537  energy(sigma->0) =     -504.86180588


--------------------------------------------------------------------------------------------------------




--------------------------------------- Iteration      1(  11)  ---------------------------------------


    POTLOK:  cpu time    0.4273: real time    0.4284
    SETDIJ:  cpu time    0.0380: real time    0.0381
    EDDIAG:  cpu time   11.6570: real time   11.6848
  RMM-DIIS:  cpu time   41.0153: real time   41.1122
    ORTHCH:  cpu time    1.1728: real time    1.1756
       DOS:  cpu time    0.0020: real time    0.0020
    CHARGE:  cpu time    4.8541: real time    4.8656
    MIXING:  cpu time    0.0114: real time    0.0114
    --------------------------------------------
      LOOP:  cpu time   59.1779: real time   59.3180

 eigenvalue-minimisations  :  8665
 total energy-change (2. order) : 0.1036918E+02  (-0.8735608E+00)
 number of electron     816.9999971 magnetization      59.3777741
 augmentation part      249.4451874 magnetization      43.4558536

 Broyden mixing:
  rms(total) = 0.21648E+01    rms(broyden)= 0.21648E+01
  rms(prec ) = 0.26933E+01
  weight for this iteration     100.00

 eigenvalues of (default mixing * dielectric matrix)
  average eigenvalue GAMMA=   0.7017
  1.9839  0.7192  0.7192  0.3512  0.2871  0.1496

 Free energy of the ion-electron system (eV)
  ---------------------------------------------------
  alpha Z        PSCENC =      2603.23065423
  Ewald energy   TEWEN  =    175726.59868419
  -Hartree energ DENC   =   -239543.38368562
  -exchange      EXHF   =         0.00000000
  -V(xc)+E(xc)   XCENC  =       328.19629622
  PAW double counting   =     73996.31632290   -71976.65917974
  entropy T*S    EENTRO =         0.08474515
  eigenvalues    EBANDS =      -170.38288284
  atomic energy  EATOM  =     58541.53257041
  Solvation  Ediel_sol  =         0.00000000
  ---------------------------------------------------
  free energy    TOTEN  =      -494.46647510 eV

  energy without entropy =     -494.55122025  energy(sigma->0) =     -494.49472348


--------------------------------------------------------------------------------------------------------




--------------------------------------- Iteration      1(  12)  ---------------------------------------


    POTLOK:  cpu time    0.4282: real time    0.4293
    SETDIJ:  cpu time    0.0378: real time    0.0379
    EDDIAG:  cpu time   11.6388: real time   11.6665
  RMM-DIIS:  cpu time   41.0319: real time   41.1288
    ORTHCH:  cpu time    1.2405: real time    1.2434
       DOS:  cpu time    0.0019: real time    0.0019
    CHARGE:  cpu time    4.8573: real time    4.8689
    MIXING:  cpu time    0.0118: real time    0.0119
    --------------------------------------------
      LOOP:  cpu time   59.2483: real time   59.3886

 eigenvalue-minimisations  :  8679
 total energy-change (2. order) :-0.5799920E+01  (-0.6887329E+00)
 number of electron     816.9999973 magnetization      57.7514467
 augmentation part      249.2325373 magnetization      41.6104463

 Broyden mixing:
  rms(total) = 0.19958E+01    rms(broyden)= 0.19958E+01
  rms(prec ) = 0.21452E+01
  weight for this iteration     100.00

 eigenvalues of (default mixing * dielectric matrix)
  average eigenvalue GAMMA=   0.6755
  1.9594  0.8305  0.8305  0.4205  0.1493  0.2692  0.2692

 Free energy of the ion-electron system (eV)
  ---------------------------------------------------
  alpha Z        PSCENC =      2603.23065423
  Ewald energy   TEWEN  =    175726.59868419
  -Hartree energ DENC   =   -239496.90141875
  -exchange      EXHF   =         0.00000000
  -V(xc)+E(xc)   XCENC  =       325.91172949
  PAW double counting   =     73454.69209249   -71428.60964963
  entropy T*S    EENTRO =         0.04082304
  eigenvalues    EBANDS =      -226.76188064
  atomic energy  EATOM  =     58541.53257041
  Solvation  Ediel_sol  =         0.00000000
  ---------------------------------------------------
  free energy    TOTEN  =      -500.26639515 eV

  energy without entropy =     -500.30721819  energy(sigma->0) =     -500.28000283


--------------------------------------------------------------------------------------------------------




--------------------------------------- Iteration      1(  13)  ---------------------------------------


    POTLOK:  cpu time    0.4346: real time    0.4356
    SETDIJ:  cpu time    0.0383: real time    0.0384
    EDDIAG:  cpu time   11.6711: real time   11.6989
  RMM-DIIS:  cpu time   41.0864: real time   41.1834
    ORTHCH:  cpu time    1.1736: real time    1.1764
       DOS:  cpu time    0.0018: real time    0.0018
    CHARGE:  cpu time    4.8466: real time    4.8581
    MIXING:  cpu time    0.0121: real time    0.0121
    --------------------------------------------
      LOOP:  cpu time   59.2644: real time   59.4046

 eigenvalue-minimisations  :  8665
 total energy-change (2. order) :-0.6178950E+00  (-0.1747667E+00)
 number of electron     816.9999972 magnetization      51.9827776
 augmentation part      249.1263660 magnetization      35.3864580

 Broyden mixing:
  rms(total) = 0.12085E+01    rms(broyden)= 0.12085E+01
  rms(prec ) = 0.12671E+01
  weight for this iteration     100.00

 eigenvalues of (default mixing * dielectric matrix)
  average eigenvalue GAMMA=   0.7242
  1.9131  1.1546  1.1546  0.1494  0.4058  0.4058  0.2697  0.3411

 Free energy of the ion-electron system (eV)
  ---------------------------------------------------
  alpha Z        PSCENC =      2603.23065423
  Ewald energy   TEWEN  =    175726.59868419
  -Hartree energ DENC   =   -239517.63422902
  -exchange      EXHF   =         0.00000000
  -V(xc)+E(xc)   XCENC  =       324.65461772
  PAW double counting   =     73477.47406024   -71451.06665539
  entropy T*S    EENTRO =         0.00714273
  eigenvalues    EBANDS =      -205.68113522
  atomic energy  EATOM  =     58541.53257041
  Solvation  Ediel_sol  =         0.00000000
  ---------------------------------------------------
  free energy    TOTEN  =      -500.88429011 eV

  energy without entropy =     -500.89143284  energy(sigma->0) =     -500.88667102


--------------------------------------------------------------------------------------------------------




--------------------------------------- Iteration      1(  14)  ---------------------------------------


    POTLOK:  cpu time    0.4280: real time    0.4290
    SETDIJ:  cpu time    0.0384: real time    0.0385
    EDDIAG:  cpu time   11.6494: real time   11.6772
  RMM-DIIS:  cpu time   40.9392: real time   41.0429
    ORTHCH:  cpu time    1.1905: real time    1.1933
       DOS:  cpu time    0.0022: real time    0.0022
    CHARGE:  cpu time    4.8490: real time    4.8605
    MIXING:  cpu time    0.0127: real time    0.0127
    --------------------------------------------
      LOOP:  cpu time   59.1094: real time   59.2563

 eigenvalue-minimisations  :  8659
 total energy-change (2. order) :-0.1071243E+02  (-0.4867090E+00)
 number of electron     816.9999972 magnetization      48.1765156
 augmentation part      249.0010736 magnetization      32.6533989

 Broyden mixing:
  rms(total) = 0.17760E+01    rms(broyden)= 0.17760E+01
  rms(prec ) = 0.22452E+01
  weight for this iteration     100.00

 eigenvalues of (default mixing * dielectric matrix)
  average eigenvalue GAMMA=   0.7187
  1.7015  1.6117  1.1337  0.5203  0.5203  0.1494  0.3294  0.2545  0.2478

 Free energy of the ion-electron system (eV)
  ---------------------------------------------------
  alpha Z        PSCENC =      2603.23065423
  Ewald energy   TEWEN  =    175726.59868419
  -Hartree energ DENC   =   -239527.88579651
  -exchange      EXHF   =         0.00000000
  -V(xc)+E(xc)   XCENC  =       320.17437775
  PAW double counting   =     73608.18908706   -71582.55762875
  entropy T*S    EENTRO =        -0.02474603
  eigenvalues    EBANDS =      -200.85392053
  atomic energy  EATOM  =     58541.53257041
  Solvation  Ediel_sol  =         0.00000000
  ---------------------------------------------------
  free energy    TOTEN  =      -511.59671817 eV

  energy without entropy =     -511.57197214  energy(sigma->0) =     -511.58846950


--------------------------------------------------------------------------------------------------------




--------------------------------------- Iteration      1(  15)  ---------------------------------------


    POTLOK:  cpu time    0.4282: real time    0.4293
    SETDIJ:  cpu time    0.0376: real time    0.0377
    EDDIAG:  cpu time   11.6736: real time   11.7012
  RMM-DIIS:  cpu time   40.9871: real time   41.0839
    ORTHCH:  cpu time    1.1741: real time    1.1768
       DOS:  cpu time    0.0022: real time    0.0022
    CHARGE:  cpu time    4.8648: real time    4.8763
    MIXING:  cpu time    0.0130: real time    0.0130
    --------------------------------------------
      LOOP:  cpu time   59.1806: real time   59.3204

 eigenvalue-minimisations  :  8664
 total energy-change (2. order) :-0.3256741E+01  (-0.2680159E+00)
 number of electron     816.9999972 magnetization      43.3404090
 augmentation part      248.9823064 magnetization      28.0554485

 Broyden mixing:
  rms(total) = 0.11699E+01    rms(broyden)= 0.11699E+01
  rms(prec ) = 0.14396E+01
  weight for this iteration     100.00

 eigenvalues of (default mixing * dielectric matrix)
  average eigenvalue GAMMA=   0.7781
  2.5028  1.6996  0.8837  0.8837  0.4883  0.4242  0.2783  0.2783  0.1494  0.1922

 Free energy of the ion-electron system (eV)
  ---------------------------------------------------
  alpha Z        PSCENC =      2603.23065423
  Ewald energy   TEWEN  =    175726.59868419
  -Hartree energ DENC   =   -239532.32938074
  -exchange      EXHF   =         0.00000000
  -V(xc)+E(xc)   XCENC  =       317.94672871
  PAW double counting   =     73661.46366536   -71635.82962144
  entropy T*S    EENTRO =        -0.09035793
  eigenvalues    EBANDS =      -197.37640156
  atomic energy  EATOM  =     58541.53257041
  Solvation  Ediel_sol  =         0.00000000
  ---------------------------------------------------
  free energy    TOTEN  =      -514.85345876 eV

  energy without entropy =     -514.76310083  energy(sigma->0) =     -514.82333945


--------------------------------------------------------------------------------------------------------




--------------------------------------- Iteration      1(  16)  ---------------------------------------


    POTLOK:  cpu time    0.4318: real time    0.4328
    SETDIJ:  cpu time    0.0376: real time    0.0376
    EDDIAG:  cpu time   11.6700: real time   11.6995
  RMM-DIIS:  cpu time   41.0120: real time   41.1088
    ORTHCH:  cpu time    1.1706: real time    1.1734
       DOS:  cpu time    0.0021: real time    0.0021
    CHARGE:  cpu time    4.8610: real time    4.8725
    MIXING:  cpu time    0.0136: real time    0.0136
    --------------------------------------------
      LOOP:  cpu time   59.1986: real time   59.3403

 eigenvalue-minimisations  :  8653
 total energy-change (2. order) :-0.4445540E+01  (-0.2750707E+00)
 number of electron     816.9999971 magnetization      41.5015471
 augmentation part      248.9378045 magnetization      28.4544962

 Broyden mixing:
  rms(total) = 0.11536E+01    rms(broyden)= 0.11536E+01
  rms(prec ) = 0.14973E+01
  weight for this iteration     100.00

 eigenvalues of (default mixing * dielectric matrix)
  average eigenvalue GAMMA=   0.7455
  2.5599  1.6470  0.9338  0.9338  0.4750  0.4750  0.1494  0.2940  0.2940  0.2480
  0.1901

 Free energy of the ion-electron system (eV)
  ---------------------------------------------------
  alpha Z        PSCENC =      2603.23065423
  Ewald energy   TEWEN  =    175726.59868419
  -Hartree energ DENC   =   -239564.07962089
  -exchange      EXHF   =         0.00000000
  -V(xc)+E(xc)   XCENC  =       315.01099319
  PAW double counting   =     73798.87400570   -71774.28427500
  entropy T*S    EENTRO =         0.01927497
  eigenvalues    EBANDS =      -166.20128574
  atomic energy  EATOM  =     58541.53257041
  Solvation  Ediel_sol  =         0.00000000
  ---------------------------------------------------
  free energy    TOTEN  =      -519.29899893 eV

  energy without entropy =     -519.31827390  energy(sigma->0) =     -519.30542392


--------------------------------------------------------------------------------------------------------




--------------------------------------- Iteration      1(  17)  ---------------------------------------


    POTLOK:  cpu time    0.4325: real time    0.4335
    SETDIJ:  cpu time    0.0374: real time    0.0375
    EDDIAG:  cpu time   11.6617: real time   11.6893
  RMM-DIIS:  cpu time   41.0664: real time   41.1634
    ORTHCH:  cpu time    1.1732: real time    1.1760
       DOS:  cpu time    0.0020: real time    0.0020
    CHARGE:  cpu time    4.8652: real time    4.8766
    MIXING:  cpu time    0.0139: real time    0.0139
    --------------------------------------------
      LOOP:  cpu time   59.2523: real time   59.3922

 eigenvalue-minimisations  :  8661
 total energy-change (2. order) :-0.9683810E+00  (-0.5661203E-01)
 number of electron     816.9999972 magnetization      39.9123492
 augmentation part      248.8239133 magnetization      26.5956352

 Broyden mixing:
  rms(total) = 0.73580E+00    rms(broyden)= 0.73580E+00
  rms(prec ) = 0.85988E+00
  weight for this iteration     100.00

 eigenvalues of (default mixing * dielectric matrix)
  average eigenvalue GAMMA=   0.7340
  2.4962  1.8967  0.8987  0.8987  0.4743  0.4743  0.4299  0.1494  0.3273  0.2865
  0.2865  0.1898

 Free energy of the ion-electron system (eV)
  ---------------------------------------------------
  alpha Z        PSCENC =      2603.23065423
  Ewald energy   TEWEN  =    175726.59868419
  -Hartree energ DENC   =   -239574.80826951
  -exchange      EXHF   =         0.00000000
  -V(xc)+E(xc)   XCENC  =       314.03403251
  PAW double counting   =     73821.50327327   -71797.14454873
  entropy T*S    EENTRO =        -0.02095590
  eigenvalues    EBANDS =      -155.19282037
  atomic energy  EATOM  =     58541.53257041
  Solvation  Ediel_sol  =         0.00000000
  ---------------------------------------------------
  free energy    TOTEN  =      -520.26737990 eV

  energy without entropy =     -520.24642400  energy(sigma->0) =     -520.26039460


--------------------------------------------------------------------------------------------------------




--------------------------------------- Iteration      1(  18)  ---------------------------------------


    POTLOK:  cpu time    0.4321: real time    0.4331
    SETDIJ:  cpu time    0.0374: real time    0.0375
    EDDIAG:  cpu time   11.6529: real time   11.6805
  RMM-DIIS:  cpu time   41.0282: real time   41.1250
    ORTHCH:  cpu time    1.1746: real time    1.1773
       DOS:  cpu time    0.0020: real time    0.0020
    CHARGE:  cpu time    4.8600: real time    4.8714
    MIXING:  cpu time    0.0141: real time    0.0141
    --------------------------------------------
      LOOP:  cpu time   59.2012: real time   59.3410

 eigenvalue-minimisations  :  8658
 total energy-change (2. order) :-0.1343164E+01  (-0.3937753E-01)
 number of electron     816.9999972 magnetization      35.8448280
 augmentation part      248.7537810 magnetization      22.6982544

 Broyden mixing:
  rms(total) = 0.65384E+00    rms(broyden)= 0.65384E+00
  rms(prec ) = 0.73951E+00
  weight for this iteration     100.00

 eigenvalues of (default mixing * dielectric matrix)
  average eigenvalue GAMMA=   0.7992
  2.7271  2.3862  0.9659  0.9659  0.6606  0.6142  0.6142  0.3050  0.2983  0.2983
  0.1494  0.2203  0.1846

 Free energy of the ion-electron system (eV)
  ---------------------------------------------------
  alpha Z        PSCENC =      2603.23065423
  Ewald energy   TEWEN  =    175726.59868419
  -Hartree energ DENC   =   -239577.32890139
  -exchange      EXHF   =         0.00000000
  -V(xc)+E(xc)   XCENC  =       313.15457563
  PAW double counting   =     73748.03336325   -71722.63231456
  entropy T*S    EENTRO =        -0.01919778
  eigenvalues    EBANDS =      -154.17997828
  atomic energy  EATOM  =     58541.53257041
  Solvation  Ediel_sol  =         0.00000000
  ---------------------------------------------------
  free energy    TOTEN  =      -521.61054429 eV

  energy without entropy =     -521.59134651  energy(sigma->0) =     -521.60414503


--------------------------------------------------------------------------------------------------------




--------------------------------------- Iteration      1(  19)  ---------------------------------------


    POTLOK:  cpu time    0.4325: real time    0.4335
    SETDIJ:  cpu time    0.0374: real time    0.0375
    EDDIAG:  cpu time   11.6785: real time   11.7060
  RMM-DIIS:  cpu time   41.0748: real time   41.1718
    ORTHCH:  cpu time    1.1719: real time    1.1746
       DOS:  cpu time    0.0019: real time    0.0019
    CHARGE:  cpu time    4.8626: real time    4.8741
    MIXING:  cpu time    0.0145: real time    0.0145
    --------------------------------------------
      LOOP:  cpu time   59.2741: real time   59.4141

 eigenvalue-minimisations  :  8657
 total energy-change (2. order) :-0.3320705E+01  (-0.1572873E+00)
 number of electron     816.9999971 magnetization      31.2754596
[...]
   0.493E-02 -.811E+01 -.244E+04   -.754E-02 0.717E+01 0.244E+04   0.534E-02 0.949E+00 -.111E+01   -.200E-02 0.128E-02 0.701E-03
   -.165E+01 0.162E-02 -.246E+04   0.164E+01 -.403E-01 0.246E+04   0.120E-01 0.408E-01 -.233E+00   -.372E-02 -.824E-02 0.152E-02
   -.549E+00 -.423E+00 -.246E+04   0.536E+00 0.422E+00 0.246E+04   -.156E-01 -.177E-01 -.210E+00   0.285E-03 0.329E-03 0.942E-02
   0.593E+00 -.134E+01 -.246E+04   -.562E+00 0.136E+01 0.246E+04   -.311E-01 -.171E-01 -.236E+00   0.891E-02 0.132E-03 0.335E-02
   -.835E+00 0.124E+01 -.246E+04   0.861E+00 -.122E+01 0.246E+04   -.253E-01 -.186E-01 -.227E+00   0.544E-02 0.677E-02 0.273E-02
   0.784E+00 -.376E+00 -.246E+04   -.762E+00 0.378E+00 0.246E+04   0.919E-02 -.177E-01 -.212E+00   -.448E-02 0.321E-03 0.120E-01
   0.109E+02 -.625E+01 -.246E+04   -.116E+02 0.663E+01 0.246E+04   0.700E+00 -.405E+00 0.242E+00   -.719E-02 0.608E-02 -.899E-02
   -.223E+00 0.130E+02 -.246E+04   0.215E+00 -.137E+02 0.246E+04   0.977E-02 0.787E+00 0.245E+00   0.157E-02 -.905E-02 -.770E-02
   0.891E+00 0.132E+01 -.246E+04   -.932E+00 -.130E+01 0.246E+04   0.484E-01 -.294E-01 -.233E+00   -.560E-02 0.879E-02 0.289E-02
   0.145E+01 0.735E-01 -.246E+04   -.145E+01 -.112E+00 0.246E+04   -.419E-03 0.445E-01 -.234E+00   0.581E-02 -.852E-02 0.442E-02
   -.216E+01 -.337E+01 -.122E+04   0.215E+01 0.339E+01 0.122E+04   0.220E-01 -.163E-02 0.756E+00   0.232E-02 -.142E-02 -.475E-02
   -.389E-01 -.125E+00 0.260E+04   0.348E-01 0.118E+00 -.260E+04   -.522E-02 -.397E-02 -.142E+01   0.426E-02 0.974E-02 0.233E-03
   0.104E+01 -.603E+00 -.122E+04   -.105E+01 0.608E+00 0.122E+04   -.945E-02 0.437E-02 0.690E+00   0.821E-02 -.450E-02 -.412E-02
   -.744E+00 0.439E+00 0.260E+04   0.719E+00 -.422E+00 -.260E+04   0.313E-01 -.193E-01 -.144E+01   -.551E-02 0.217E-02 0.117E-02
   -.469E+00 0.118E+00 0.135E+04   0.460E+00 -.113E+00 -.135E+04   0.240E-01 -.153E-01 -.713E+00   0.573E-03 -.250E-03 -.882E-02
   0.655E-01 0.100E+01 0.136E+04   -.640E-01 -.940E+00 -.136E+04   -.572E-02 -.631E-01 -.722E+00   0.111E-02 -.134E-01 -.153E-02
   -.114E+01 -.776E+00 -.122E+04   0.114E+01 0.779E+00 0.122E+04   0.152E-01 0.771E-02 0.689E+00   -.853E-02 -.424E-02 -.403E-02
   0.762E+00 0.325E+00 0.260E+04   -.731E+00 -.312E+00 -.260E+04   -.413E-01 -.167E-01 -.144E+01   0.720E-02 0.354E-02 0.204E-02
   -.401E+00 -.329E+00 0.135E+04   0.390E+00 0.308E+00 -.135E+04   -.309E-02 0.243E-01 -.763E+00   0.822E-02 0.122E-02 -.252E-02
   0.714E+01 0.428E+01 -.244E+04   -.629E+01 -.378E+01 0.244E+04   -.848E+00 -.498E+00 -.112E+01   -.342E-02 -.130E-02 0.289E-02
   -.829E+00 -.248E+00 0.521E+02   0.812E+00 0.239E+00 -.522E+02   0.104E-01 0.404E-02 0.954E-01   0.563E-02 0.287E-02 -.193E-01
   -.114E+02 -.626E+01 -.246E+04   0.120E+02 0.665E+01 0.246E+04   -.679E+00 -.405E+00 0.240E+00   0.581E-02 0.339E-02 -.894E-02
   0.959E+00 -.396E+00 0.136E+04   -.904E+00 0.365E+00 -.136E+04   -.568E-01 0.289E-01 -.724E+00   -.108E-01 0.694E-02 -.240E-02
   -.961E+00 -.458E+00 0.136E+04   0.907E+00 0.425E+00 -.136E+04   0.534E-01 0.347E-01 -.721E+00   0.110E-01 0.573E-02 -.101E-02
   0.134E-01 0.307E+00 0.564E+02   -.155E-01 -.309E+00 -.565E+02   0.376E-03 0.412E-02 0.923E-01   0.171E-02 -.281E-02 -.182E-02
   0.413E+01 -.883E-01 -.122E+04   -.415E+01 0.771E-01 0.122E+04   -.664E-02 0.108E-01 0.750E+00   0.119E-02 -.853E-03 -.330E-02
   -.416E+01 -.204E+00 -.122E+04   0.418E+01 0.187E+00 0.122E+04   0.167E-01 0.137E-01 0.756E+00   -.220E-02 0.322E-02 -.414E-02
   0.194E+00 -.577E-01 0.260E+04   -.182E+00 0.527E-01 -.260E+04   -.369E-02 0.465E-02 -.142E+01   -.921E-02 0.232E-03 -.115E-02
   -.665E-01 0.102E-01 0.260E+04   0.618E-01 -.122E-01 -.260E+04   -.118E-01 0.291E-02 -.142E+01   0.116E-01 -.250E-02 -.287E-05
   0.839E-01 -.610E-01 0.135E+04   -.888E-01 0.643E-01 -.135E+04   -.149E-01 0.110E-01 -.743E+00   0.101E-01 -.630E-02 -.126E-01
   0.597E+00 0.138E+00 0.135E+04   -.585E+00 -.132E+00 -.135E+04   -.316E-01 -.151E-01 -.717E+00   0.899E-03 -.403E-03 -.966E-02
   0.587E-01 -.157E-01 0.714E+02   -.601E-01 0.183E-01 -.716E+02   0.341E-02 -.312E-02 0.277E+00   -.229E-02 -.433E-03 -.226E-01
   0.192E+01 -.342E+01 -.122E+04   -.192E+01 0.344E+01 0.122E+04   -.164E-01 -.244E-02 0.753E+00   0.170E-02 -.298E-02 -.453E-02
   -.771E-02 -.719E-01 0.260E+04   0.140E-01 0.667E-01 -.260E+04   -.165E-02 -.557E-02 -.142E+01   -.359E-02 0.972E-02 -.425E-03
   -.432E+00 -.614E-01 0.566E+02   0.430E+00 0.614E-01 -.567E+02   -.140E-02 -.257E-02 0.871E-01   0.565E-02 0.290E-02 -.565E-04
   -.998E-02 0.691E+00 0.517E+02   0.123E-01 -.670E+00 -.518E+02   -.245E-02 -.155E-01 0.938E-01   -.143E-02 -.507E-02 -.181E-01
   0.782E+00 -.194E+00 0.522E+02   -.761E+00 0.187E+00 -.522E+02   -.169E-01 0.265E-02 0.964E-01   -.535E-02 0.113E-02 -.171E-01
   -.966E+00 0.350E+00 0.557E+02   0.992E+00 -.368E+00 -.557E+02   -.258E-01 0.143E-01 0.311E-01   0.202E-02 0.143E-02 -.957E-02
   0.417E+00 0.796E+00 0.579E+02   -.443E+00 -.764E+00 -.580E+02   0.169E-01 -.276E-01 0.756E-01   -.767E-03 0.388E-02 -.131E-01
   -.843E-02 0.603E+00 0.135E+04   0.209E-01 -.583E+00 -.135E+04   -.253E-01 -.118E-01 -.753E+00   0.426E-02 -.738E-02 -.386E-02
   0.358E+00 -.372E-01 0.568E+02   -.363E+00 0.375E-01 -.568E+02   0.544E-02 -.227E-02 0.886E-01   -.136E-02 0.254E-02 -.316E-02
   -.736E-01 -.139E+01 -.122E+04   0.691E-01 0.138E+01 0.122E+04   0.131E-02 0.438E-02 0.703E+00   0.386E-02 -.365E-02 -.134E-02
   0.205E+01 0.373E+01 -.122E+04   -.207E+01 -.374E+01 0.122E+04   0.108E-01 -.142E-01 0.755E+00   -.212E-03 -.851E-04 -.394E-02
   0.101E+00 -.715E-01 0.260E+04   -.958E-01 0.648E-01 -.260E+04   -.742E-02 0.134E-02 -.139E+01   0.135E-03 0.505E-02 -.382E-03
   0.506E-01 0.206E+00 0.260E+04   -.481E-01 -.195E+00 -.260E+04   0.602E-03 0.658E-03 -.142E+01   -.487E-02 -.882E-02 -.111E-02
   -.661E+00 0.507E-01 0.580E+02   0.645E+00 -.913E-01 -.581E+02   0.174E-01 0.318E-01 0.755E-01   -.325E-02 -.838E-03 -.131E-01
   0.352E+00 -.788E+00 0.575E+02   -.312E+00 0.799E+00 -.576E+02   -.319E-01 -.144E-03 0.758E-01   0.223E-02 -.408E-02 -.976E-02
   0.438E-01 -.173E+00 0.135E+04   -.429E-01 0.174E+00 -.135E+04   -.222E-02 0.699E-03 -.779E+00   0.231E-03 -.809E-05 -.525E-02
   -.531E-01 -.133E+01 0.558E+02   0.514E-01 0.136E+01 -.559E+02   -.514E-03 -.296E-01 0.336E-01   0.226E-02 0.193E-02 -.100E-01
   -.395E+00 -.696E+00 0.575E+02   0.351E+00 0.704E+00 -.575E+02   0.352E-01 -.268E-02 0.729E-01   -.200E-02 -.125E-02 -.144E-01
   -.385E+01 -.222E+01 -.305E+03   0.454E+01 0.262E+01 0.307E+03   -.703E+00 -.407E+00 -.161E+01   -.105E-02 -.675E-03 0.878E-03
   -.284E-01 -.155E-01 -.301E+03   0.318E-01 0.194E-01 0.302E+03   -.350E-02 -.483E-02 -.144E+01   0.115E-03 -.814E-05 0.111E-02
   0.373E+01 -.213E+01 -.305E+03   -.441E+01 0.252E+01 0.307E+03   0.693E+00 -.399E+00 -.160E+01   0.113E-02 -.732E-03 0.671E-03
   0.808E+00 -.434E+00 -.304E+03   -.808E+00 0.431E+00 0.306E+03   0.435E-02 0.144E-03 -.150E+01   -.114E-02 0.830E-03 0.388E-03
   0.198E-01 0.427E+01 -.305E+03   -.217E-01 -.505E+01 0.307E+03   0.247E-02 0.794E+00 -.160E+01   -.260E-04 0.128E-02 0.678E-03
   -.794E+00 -.399E+00 -.304E+03   0.793E+00 0.394E+00 0.306E+03   -.256E-02 0.172E-02 -.150E+01   0.112E-02 0.554E-03 0.521E-03
   0.664E-01 -.763E-01 -.305E+03   -.716E-01 0.802E-01 0.306E+03   0.451E-02 -.536E-02 -.150E+01   0.947E-04 0.564E-03 -.496E-04
   0.119E-01 0.359E+00 -.304E+03   0.397E-01 -.381E+00 0.306E+03   -.497E-01 0.144E-01 -.149E+01   -.121E-03 -.591E-04 0.720E-03
   -.601E-01 0.358E+00 -.304E+03   0.214E-01 -.383E+00 0.306E+03   0.425E-01 0.159E-01 -.149E+01   0.181E-03 -.154E-03 0.618E-03
   -.142E-01 0.372E-01 -.304E+03   0.184E-01 -.389E-01 0.306E+03   -.204E-02 0.217E-02 -.149E+01   -.120E-03 -.343E-04 0.628E-03
   0.319E+00 -.184E+00 -.304E+03   -.313E+00 0.241E+00 0.306E+03   -.109E-01 -.524E-01 -.149E+01   -.105E-03 0.459E-04 0.827E-03
   -.209E-01 0.884E+00 -.304E+03   0.223E-01 -.879E+00 0.306E+03   -.323E-03 0.556E-03 -.150E+01   0.187E-03 -.129E-02 0.430E-03
   -.346E+00 -.131E+00 -.304E+03   0.347E+00 0.180E+00 0.306E+03   0.733E-02 -.463E-01 -.149E+01   0.955E-04 -.151E-03 0.599E-03
   -.280E+00 -.301E+00 -.304E+03   0.322E+00 0.281E+00 0.306E+03   -.356E-01 0.257E-01 -.149E+01   -.141E-03 0.189E-03 0.578E-03
   0.297E+00 -.304E+00 -.304E+03   -.338E+00 0.286E+00 0.306E+03   0.369E-01 0.243E-01 -.149E+01   -.922E-04 0.206E-03 0.745E-03
   -.809E-01 0.205E-01 -.305E+03   0.845E-01 -.217E-01 0.306E+03   -.489E-02 0.163E-02 -.149E+01   0.647E-03 -.244E-03 0.353E-04
   0.133E+00 -.920E-02 -.305E+03   -.141E+00 0.886E-02 0.306E+03   0.974E-02 0.915E-03 -.149E+01   -.410E-03 -.293E-03 -.177E-03
 -----------------------------------------------------------------------------------------------
   0.259E-01 0.106E+00 0.528E+02   -.207E-12 0.103E-12 0.460E-11   -.341E-01 -.860E-01 -.524E+02   0.919E-02 0.186E-02 -.301E+00
 
 
 POSITION                                       TOTAL-FORCE (eV/Angst)
 -----------------------------------------------------------------------------------
     13.68492      8.44424      7.17696        -0.000216     -0.001493     -0.002203
      5.26741      8.44342      7.17719        -0.002773      0.002602     -0.002511
      3.86470      6.01473      7.17671        -0.001676     -0.011130      0.004275
     13.69122      8.44191      0.46744        -0.001771      0.000796     -0.002863
      5.27363      8.44148      0.46765        -0.002319      0.001305     -0.003072
      3.87164      6.01175      0.46594        -0.001891      0.001385     -0.006047
      8.07982      1.96332      2.74211        -0.003796     -0.007242     -0.000728
      9.48028      9.24927      2.74017        -0.000925      0.016251      0.003497
      2.46626      3.58136      7.16529        -0.002754      0.002246     -0.007661
      2.46858      3.58117      0.46309        -0.006264      0.002382      0.003898
     10.88108      1.96284      2.74169         0.002687     -0.004679     -0.000684
     13.68692      5.20343      4.94279         0.000252     -0.014135     -0.010164
      3.86450      1.15854      7.16539        -0.000784     -0.002569     -0.007991
      9.47515      6.01289      7.19502         0.002462      0.001343     -0.024572
      5.26257      3.58084      7.16542         0.002355      0.003330     -0.006654
      3.87163      1.15193      0.46407        -0.000800     -0.003639      0.003288
      9.48306      6.01130      0.46817        -0.003781     -0.001002     -0.010696
      5.27363      3.58166      0.46274         0.001229      0.002819      0.004174
     12.28751      9.25022      2.74227         0.003942      0.003974     -0.002079
     12.28358      7.63226      4.94631        -0.005540     -0.002223     -0.000366
     13.68808      6.82484      2.74148         0.004723      0.000730     -0.000487
      9.48046      4.39432      2.74384         0.002223     -0.009349      0.004323
      8.07012      8.44135      7.17903         0.012081     -0.019894      0.005223
      8.07895      8.44061      0.46948        -0.001312      0.002409     -0.007632
     10.88133      6.82183      2.74334         0.009785      0.006507      0.005706
      2.46434      0.34383      4.94292         0.011380      0.006942     -0.007686
     15.08418      9.25302      9.50601         0.003699      0.001039     -0.007518
      3.86148      4.39160      9.50361         0.000515      0.030785     -0.022801
      6.66260      9.25747      9.51098        -0.006522      0.004668     -0.013064
     12.29000      4.38767      9.48579         0.002615     -0.002760      0.026648
      9.47281      9.26739      9.48626         0.000783      0.003423      0.026044
     10.87720      1.95894      9.50889         0.001434     -0.006082     -0.013939
      2.46083      1.96530      9.50187        -0.028617     -0.019180     -0.023035
     12.28275      9.25710      9.51068         0.008501      0.000830     -0.013695
     13.68647      6.82505      9.50872         0.005737      0.007686     -0.015096
      5.26319      1.96525      9.50190         0.026343     -0.015918     -0.023364
      8.05253      6.83416      9.55731         0.016939     -0.010340      0.013517
      9.47201      4.37503      9.55703         0.003507      0.017112      0.016913
      5.25854      6.82511      9.50988         0.001812      0.003460     -0.014341
      8.06893      1.95837      9.50928         0.004196     -0.002509     -0.015236
      8.07566      3.58248      7.17864         0.014396      0.021548      0.007342
      8.08048      3.58185      0.46967        -0.004553     -0.001312     -0.008033
      6.67191      1.15238      7.17674        -0.010605      0.004691      0.004464
      6.67757      1.15174      0.46638        -0.000251     -0.000738     -0.006862
     12.28412      4.39313      2.74013         0.014038     -0.009672      0.003688
      3.86917      4.39937      2.73175        -0.002982     -0.010722     -0.002599
      1.05687      1.15228      7.17670         0.012783      0.006651      0.004285
      1.06505      1.15123      0.46606        -0.003160     -0.000138     -0.006194
      6.67328      9.24975      2.74258        -0.005411      0.004514     -0.004258
      6.65599      4.38770      9.48579         0.000325     -0.001139      0.034952
      8.07668      5.20425      4.94937        -0.001795     -0.002989      0.014864
     10.89097      6.83349      9.55721        -0.008905     -0.009279      0.014046
      5.27766      1.95979      2.73195        -0.011610      0.003951     -0.004562
      2.46006      1.95933      2.73178         0.008976      0.006779     -0.004708
     15.08981      7.63205      4.94636        -0.000157     -0.001369     -0.001407
     12.28124      6.01702      7.17885        -0.025032     -0.002500      0.004777
      6.66978      6.01632      7.17870         0.028749     -0.000820      0.007366
     12.28824      6.01203      0.47089        -0.001481     -0.000033     -0.008262
      6.67792      6.01204      0.47099        -0.004021     -0.001470     -0.008596
      8.07935      6.82142      2.74356        -0.009534      0.007705      0.002829
      6.67704      4.39317      2.74043        -0.017180     -0.009134      0.001645
      3.86652      2.77338      4.91417        -0.000194     -0.001381      0.040334
     10.87550      3.58295      7.17867        -0.013040      0.020601      0.005209
     10.88431      3.58216      0.46936         0.000219     -0.000614     -0.008115
     10.88128      0.34411      4.94632         0.002361      0.000508     -0.002749
      9.47867      7.63148      4.94982        -0.001624      0.000865      0.012981
     10.88059      5.20456      4.94920        -0.000888     -0.003542      0.015315
      6.67366      7.63196      4.94644         0.003496     -0.003423      0.001039
      5.26959      0.34399      4.94284        -0.011726      0.007371     -0.008608
      5.27296      6.82495      2.74184        -0.008321      0.000917      0.000268
      8.07505      0.34435      4.94615        -0.000777      0.000692     -0.002318
      9.47592      1.15384      7.17727         0.000657     -0.004444     -0.004112
     10.88161      8.44154      7.17904        -0.012304     -0.021336      0.006891
      9.48287      1.15143      0.46894        -0.002368     -0.000362     -0.003065
     10.88552      8.44075      0.46967        -0.002084      0.001084     -0.006773
      5.26980      5.20283      4.94272        -0.000748     -0.010849     -0.008997
     12.28403      2.77305      4.94339         0.011021      0.007086     -0.007954
     15.09168      9.25167      2.74396        -0.001093      0.000781     -0.017261
      9.47843      2.77414      4.94618         0.000095      0.006386      0.001838
      6.67211      2.77319      4.94363        -0.010778      0.004764     -0.011078
      7.83754      5.06997     10.48266        -0.015198     -0.009726      0.014714
      9.47052      6.01259     10.35478         0.000029     -0.001165      0.024279
     11.10377      5.07266     10.47758         0.016585     -0.010354      0.020798
      6.62664      7.65693     10.42723         0.004846     -0.002484      0.008114
      9.47410      7.89620     10.47707         0.000554      0.018538      0.022401
     12.31828      7.65620     10.42585        -0.003068     -0.002684      0.008772
     15.08474      7.63813     10.40978        -0.000569     -0.001148      0.008766
      5.25397      5.20584     10.40241         0.001646     -0.007495     -0.005677
     13.68944      5.20706     10.40216         0.004065     -0.008745     -0.005714
      3.86139      2.77343     10.40265         0.002031      0.000227      0.009967
      6.66444      2.76308     10.40162        -0.004587      0.004875     -0.005642
      9.47307      2.72697     10.42627         0.001260      0.005568      0.005986
     12.28088      2.76490     10.40162         0.008118      0.002153     -0.006649
      2.45202      0.35011     10.40245         0.006145      0.006059     -0.006392
      5.27128      0.34959     10.40192        -0.004303      0.006885     -0.004326
      8.07502      0.34169     10.41042        -0.000657     -0.000059      0.007146
     10.87172      0.34241     10.41089         0.001149      0.000044      0.004510
 -----------------------------------------------------------------------------------
    total drift:                                0.000960      0.021646      0.096791


--------------------------------------------------------------------------------------------------------



  FREE ENERGIE OF THE ION-ELECTRON SYSTEM (eV)
  ---------------------------------------------------
  free  energy   TOTEN  =      -578.30639015 eV

  energy  without entropy=     -578.39064044  energy(sigma->0) =     -578.33447358
 
 d Force = 0.3045441E-02[ 0.200E-02, 0.410E-02]  d Energy = 0.3026782E-02 0.187E-04
 d Force = 0.7370603E+02[ 0.737E+02, 0.737E+02]  d Ewald  = 0.7370602E+02 0.997E-05


--------------------------------------------------------------------------------------------------------


    POTLOK:  cpu time    0.4614: real time    0.4625


--------------------------------------------------------------------------------------------------------


 Conjugate gradient step on ions:
 trial-energy change:   -0.003027  1 .order   -0.003045   -0.004095   -0.001995
  (g-gl).g = 0.355E-02      g.g   = 0.347E-02  gl.gl    = 0.397E-02
 g(Force)  = 0.347E-02   g(Stress)= 0.000E+00 ortho     =-0.700E-05
 gamma     =   0.89415
 trial     =   1.18374
 opt step  =   2.30860  (harmonic =   2.30860) maximal distance =0.01840657
 next E    =  -578.307357   (d E  =  -0.00399)


--------------------------------------------------------------------------------------------------------


  
 reached required accuracy - stopping structural energy minimisation
     LOOP+:  cpu time  633.6640: real time  635.1732
    4ORBIT:  cpu time    0.0000: real time    0.0000

 total amount of memory used by VASP MPI-rank0   268257. kBytes
=======================================================================

   base      :      30000. kBytes
   nonlr-proj:      40860. kBytes
   fftplans  :      20287. kBytes
   grid      :      52194. kBytes
   one-center:        777. kBytes
   wavefun   :     124139. kBytes
 
  
  
 General timing and accounting informations for this job:
 ========================================================
  
                  Total CPU time used (sec):    12595.928
                            User time (sec):    12584.345
                          System time (sec):       11.583
                         Elapsed time (sec):    12627.284
  
                   Maximum memory used (kb):      947352.
                   Average memory used (kb):           0.
  
                          Minor page faults:      2850277
                          Major page faults:            0
                 Voluntary context switches:         6295
