 vasp.5.4.4.18Apr17-6-g9f103f2a35 (build Oct 25 2019 11:13:22) complex          
  
 executed on             LinuxIFC date 2021.10.14  05:18:46
 running on   48 total cores
 distrk:  each k-point on   48 cores,    1 groups
 distr:  one band on NCORES_PER_BAND=   4 cores,   12 groups


--------------------------------------------------------------------------------------------------------


 INCAR:
 POTCAR:    PAW_PBE Pt 04Feb2005                  
 POTCAR:    PAW_PBE Fe 06Sep2000                  
 POTCAR:    PAW_PBE Co 02Aug2007                  
 POTCAR:    PAW_PBE Cu 22Jun2005                  
 POTCAR:    PAW_PBE Ni 02Aug2007                  
 POTCAR:    PAW_PBE H 15Jun2001                   
 POTCAR:    PAW_PBE Pt 04Feb2005                  
   VRHFIN =Pt: s1d9                                                             
   LEXCH  = PE                                                                  
   EATOM  =   729.1176 eV,   53.5886 Ry                                         
                                                                                
   TITEL  = PAW_PBE Pt 04Feb2005                                                
   LULTRA =        F    use ultrasoft PP ?                                      
   IUNSCR =        1    unscreen: 0-lin 1-nonlin 2-no                           
   RPACOR =    2.330    partial core radius                                     
   POMASS =  195.080; ZVAL   =   10.000    mass and valenz                      
   RCORE  =    2.600    outmost cutoff radius                                   
   RWIGS  =    2.750; RWIGS  =    1.455    wigner-seitz radius (au A)           
   ENMAX  =  230.283; ENMIN  =  172.712 eV                                      
   ICORE  =        3    local potential                                         
   LCOR   =        T    correct aug charges                                     
   LPAW   =        T    paw PP                                                  
   EAUG   =  358.966                                                            
   DEXC   =    0.000                                                            
   RMAX   =    2.658    core radius for proj-oper                               
   RAUG   =    1.300    factor for augmentation sphere                          
   RDEP   =    2.761    radius for radial grids                                 
   RDEPT  =    2.203    core radius for aug-charge                              
                                                                                
   Atomic configuration                                                         
   16 entries                                                                   
     n  l   j            E        occ.                                          
     1  0  0.50    -78401.1885   2.0000                                         
     2  0  0.50    -13770.7750   2.0000                                         
     2  1  1.50    -11931.0468   6.0000                                         
     3  0  0.50     -3234.7234   2.0000                                         
     3  1  1.50     -2699.2216   6.0000                                         
     3  2  2.50     -2119.5714  10.0000                                         
     4  0  0.50      -695.1528   2.0000                                         
     4  1  1.50      -519.6034   6.0000                                         
     4  2  2.50      -306.6786  10.0000                                         
     4  3  3.50       -70.1041  14.0000                                         
     5  0  0.50      -101.7747   2.0000                                         
     5  1  1.50       -55.9873   6.0000                                         
     5  2  2.50        -6.1423   9.0000                                         
     6  0  0.50        -5.6573   1.0000                                         
     6  1  1.50        -6.8029   0.0000                                         
     5  3  2.50        -1.3606   0.0000                                         
   Description                                                                  
     l       E           TYP  RCUT    TYP  RCUT                                 
     2     -6.1423404     23  2.500                                             
     2     -7.5029230     23  2.500                                             
     0     -5.6573207     23  2.500                                             
     0      0.7416693     23  2.500                                             
     1     -2.7211652     23  2.600                                             
     1     20.4087390     23  2.600                                             
     3     -1.3605826     23  2.500                                             
  local pseudopotential read in
  partial core-charges read in
  partial kinetic energy density read in
  atomic valenz-charges read in
  non local Contribution for L=           2  read in
    real space projection operators read in
  non local Contribution for L=           2  read in
    real space projection operators read in
  non local Contribution for L=           0  read in
    real space projection operators read in
  non local Contribution for L=           0  read in
    real space projection operators read in
  non local Contribution for L=           1  read in
    real space projection operators read in
  non local Contribution for L=           1  read in
    real space projection operators read in
    PAW grid and wavefunctions read in
 
   number of l-projection  operators is LMAX  =           6
   number of lm-projection operators is LMMAX =          18
 
 POTCAR:    PAW_PBE Fe 06Sep2000                  
   VRHFIN =Fe:  d7 s1                                                           
   LEXCH  = PE                                                                  
   EATOM  =   594.3153 eV,   43.6809 Ry                                         
                                                                                
   TITEL  = PAW_PBE Fe 06Sep2000                                                
   LULTRA =        F    use ultrasoft PP ?                                      
   IUNSCR =        1    unscreen: 0-lin 1-nonlin 2-no                           
   RPACOR =    2.000    partial core radius                                     
   POMASS =   55.847; ZVAL   =    8.000    mass and valenz                      
   RCORE  =    2.300    outmost cutoff radius                                   
   RWIGS  =    2.460; RWIGS  =    1.302    wigner-seitz radius (au A)           
   ENMAX  =  267.882; ENMIN  =  200.911 eV                                      
   RCLOC  =    1.701    cutoff for local pot                                    
   LCOR   =        T    correct aug charges                                     
   LPAW   =        T    paw PP                                                  
   EAUG   =  511.368                                                            
   DEXC   =    0.000                                                            
   RMAX   =    2.356    core radius for proj-oper                               
   RAUG   =    1.300    factor for augmentation sphere                          
   RDEP   =    2.442    radius for radial grids                                 
   RDEPT  =    1.890    core radius for aug-charge                              
                                                                                
   Atomic configuration                                                         
    9 entries                                                                   
     n  l   j            E        occ.                                          
     1  0  0.50     -6993.8440   2.0000                                         
     2  0  0.50      -814.6047   2.0000                                         
     2  1  1.50      -693.3689   6.0000                                         
     3  0  0.50       -89.4732   2.0000                                         
     3  1  1.50       -55.6373   6.0000                                         
     3  2  2.50        -3.8151   7.0000                                         
     4  0  0.50        -4.2551   1.0000                                         
     4  1  1.50        -3.4015   0.0000                                         
     4  3  2.50        -1.3606   0.0000                                         
   Description                                                                  
     l       E           TYP  RCUT    TYP  RCUT                                 
     2     -3.8151135     23  2.300                                             
     2     -5.1756961     23  2.300                                             
     0     -4.2550963     23  2.300                                             
     0      7.2035603     23  2.300                                             
     1     -2.7211652     23  2.300                                             
     1     18.4316424     23  2.300                                             
  local pseudopotential read in
  partial core-charges read in
  partial kinetic energy density read in
  atomic valenz-charges read in
  non local Contribution for L=           2  read in
    real space projection operators read in
  non local Contribution for L=           2  read in
    real space projection operators read in
  non local Contribution for L=           0  read in
    real space projection operators read in
  non local Contribution for L=           0  read in
    real space projection operators read in
  non local Contribution for L=           1  read in
    real space projection operators read in
  non local Contribution for L=           1  read in
    real space projection operators read in
    PAW grid and wavefunctions read in
 
   number of l-projection  operators is LMAX  =           6
   number of lm-projection operators is LMMAX =          18
 
 POTCAR:    PAW_PBE Co 02Aug2007                  
   VRHFIN =Co: d8 s1                                                            
   LEXCH  = PE                                                                  
   EATOM  =   813.3670 eV,   59.7808 Ry                                         
                                                                                
   TITEL  = PAW_PBE Co 02Aug2007                                                
   LULTRA =        F    use ultrasoft PP ?                                      
   IUNSCR =        1    unscreen: 0-lin 1-nonlin 2-no                           
   RPACOR =    2.000    partial core radius                                     
   POMASS =   58.933; ZVAL   =    9.000    mass and valenz                      
   RCORE  =    2.300    outmost cutoff radius                                   
   RWIGS  =    2.460; RWIGS  =    1.302    wigner-seitz radius (au A)           
   ENMAX  =  267.968; ENMIN  =  200.976 eV                                      
   RCLOC  =    1.203    cutoff for local pot                                    
   LCOR   =        T    correct aug charges                                     
   LPAW   =        T    paw PP                                                  
   EAUG   =  477.818                                                            
   DEXC   =    0.000                                                            
   RMAX   =    2.360    core radius for proj-oper                               
   RAUG   =    1.300    factor for augmentation sphere                          
   RDEP   =    2.393    radius for radial grids                                 
   RDEPT  =    1.864    core radius for aug-charge                              
                                                                                
   Atomic configuration                                                         
    9 entries                                                                   
     n  l   j            E        occ.                                          
     1  0  0.50     -7587.6674   2.0000                                         
     2  0  0.50      -893.6084   2.0000                                         
     2  1  1.50      -764.5805   6.0000                                         
     3  0  0.50       -97.5973   2.0000                                         
     3  1  1.50       -60.9648   6.0000                                         
     3  2  2.50        -4.2382   8.0000                                         
     4  0  0.50        -4.3746   1.0000                                         
     4  1  1.50        -4.0817   0.0000                                         
     4  3  2.50        -1.3606   0.0000                                         
   Description                                                                  
     l       E           TYP  RCUT    TYP  RCUT                                 
     2     -4.2382362     23  2.300                                             
     2     -5.5988188     23  2.300                                             
     0     -4.3745797     23  2.300                                             
     0      5.7660125     23  2.300                                             
     1     -2.7211652     23  2.300                                             
     1     16.9860234     23  2.300                                             
  local pseudopotential read in
  partial core-charges read in
  partial kinetic energy density read in
  atomic valenz-charges read in
  non local Contribution for L=           2  read in
    real space projection operators read in
  non local Contribution for L=           2  read in
    real space projection operators read in
  non local Contribution for L=           0  read in
    real space projection operators read in
  non local Contribution for L=           0  read in
    real space projection operators read in
  non local Contribution for L=           1  read in
    real space projection operators read in
  non local Contribution for L=           1  read in
    real space projection operators read in
    PAW grid and wavefunctions read in
 
   number of l-projection  operators is LMAX  =           6
   number of lm-projection operators is LMMAX =          18
 
 POTCAR:    PAW_PBE Cu 22Jun2005                  
   VRHFIN =Cu: d10 p1                                                           
   LEXCH  = PE                                                                  
   EATOM  =  1390.9808 eV,  102.2342 Ry                                         
                                                                                
   TITEL  = PAW_PBE Cu 22Jun2005                                                
   LULTRA =        F    use ultrasoft PP ?                                      
   IUNSCR =        1    unscreen: 0-lin 1-nonlin 2-no                           
   RPACOR =    2.000    partial core radius                                     
   POMASS =   63.546; ZVAL   =   11.000    mass and valenz                      
   RCORE  =    2.300    outmost cutoff radius                                   
   RWIGS  =    2.200; RWIGS  =    1.164    wigner-seitz radius (au A)           
   ENMAX  =  295.446; ENMIN  =  221.585 eV                                      
   ICORE  =        3    local potential                                         
   LCOR   =        T    correct aug charges                                     
   LPAW   =        T    paw PP                                                  
   EAUG   =  586.980                                                            
   DEXC   =    0.000                                                            
   RMAX   =    2.344    core radius for proj-oper                               
   RAUG   =    1.300    factor for augmentation sphere                          
   RDEP   =    2.302    radius for radial grids                                 
   RDEPT  =    1.771    core radius for aug-charge                              
                                                                                
   Atomic configuration                                                         
    9 entries                                                                   
     n  l   j            E        occ.                                          
     1  0  0.50     -8850.2468   2.0000                                         
     2  0  0.50     -1062.3498   2.0000                                         
     2  1  1.50      -916.8226   6.0000                                         
     3  0  0.50      -114.6929   2.0000                                         
     3  1  1.50       -72.1325   6.0000                                         
     3  2  2.50        -5.0394  10.0000                                         
     4  0  0.50        -4.6097   1.0000                                         
     4  1  0.50        -4.0817   0.0000                                         
     4  3  2.50        -1.3606   0.0000                                         
   Description                                                                  
     l       E           TYP  RCUT    TYP  RCUT                                 
     2     -5.0393973     23  2.200                                             
     2     10.8846608     23  2.200                                             
     0     -4.6097109     23  2.200                                             
     0      8.2520465     23  2.200                                             
     1     -2.7211652     23  2.200                                             
     1     21.7055443     23  2.200                                             
     3      2.7211652     23  2.300                                             
  local pseudopotential read in
  partial core-charges read in
  partial kinetic energy density read in
  atomic valenz-charges read in
  non local Contribution for L=           2  read in
    real space projection operators read in
  non local Contribution for L=           2  read in
    real space projection operators read in
  non local Contribution for L=           0  read in
    real space projection operators read in
  non local Contribution for L=           0  read in
    real space projection operators read in
  non local Contribution for L=           1  read in
    real space projection operators read in
  non local Contribution for L=           1  read in
    real space projection operators read in
    PAW grid and wavefunctions read in
 
   number of l-projection  operators is LMAX  =           6
   number of lm-projection operators is LMMAX =          18
 
 POTCAR:    PAW_PBE Ni 02Aug2007                  
   VRHFIN =Ni:                                                                  
   LEXCH  = PE                                                                  
   EATOM  =  1077.6739 eV,   79.2068 Ry                                         
                                                                                
   TITEL  = PAW_PBE Ni 02Aug2007                                                
   LULTRA =        F    use ultrasoft PP ?                                      
   IUNSCR =        1    unscreen: 0-lin 1-nonlin 2-no                           
   RPACOR =    2.000    partial core radius                                     
   POMASS =   58.690; ZVAL   =   10.000    mass and valenz                      
   RCORE  =    2.300    outmost cutoff radius                                   
   RWIGS  =    2.430; RWIGS  =    1.286    wigner-seitz radius (au A)           
   ENMAX  =  269.532; ENMIN  =  202.149 eV                                      
   RCLOC  =    1.201    cutoff for local pot                                    
   LCOR   =        T    correct aug charges                                     
   LPAW   =        T    paw PP                                                  
   EAUG   =  544.565                                                            
   DEXC   =    0.000                                                            
   RMAX   =    2.357    core radius for proj-oper                               
   RAUG   =    1.300    factor for augmentation sphere                          
   RDEP   =    2.390    radius for radial grids                                 
   RDEPT  =    1.838    core radius for aug-charge                              
                                                                                
   Atomic configuration                                                         
    9 entries                                                                   
     n  l   j            E        occ.                                          
     1  0  0.50     -8206.4253   2.0000                                         
     2  0  0.50      -976.1748   2.0000                                         
     2  1  1.50      -839.0571   6.0000                                         
     3  0  0.50      -105.9991   2.0000                                         
     3  1  1.50       -66.4603   6.0000                                         
     3  2  2.50        -4.6458   9.0000                                         
     4  0  0.50        -4.4926   1.0000                                         
     4  1  1.50        -4.0817   0.0000                                         
     4  3  2.50        -1.3606   0.0000                                         
   Description                                                                  
     l       E           TYP  RCUT    TYP  RCUT                                 
     2     -4.6457903     23  2.300                                             
     2     -6.0063729     23  2.300                                             
     0     -4.4925590     23  2.300                                             
     0      5.0102601     23  2.300                                             
     1     -2.7211652     23  2.300                                             
     1     16.5183231     23  2.300                                             
  local pseudopotential read in
  partial core-charges read in
  partial kinetic energy density read in
  atomic valenz-charges read in
  non local Contribution for L=           2  read in
    real space projection operators read in
  non local Contribution for L=           2  read in
    real space projection operators read in
  non local Contribution for L=           0  read in
    real space projection operators read in
  non local Contribution for L=           0  read in
    real space projection operators read in
  non local Contribution for L=           1  read in
    real space projection operators read in
  non local Contribution for L=           1  read in
    real space projection operators read in
    PAW grid and wavefunctions read in
 
   number of l-projection  operators is LMAX  =           6
   number of lm-projection operators is LMMAX =          18
 
 POTCAR:    PAW_PBE H 15Jun2001                   
   VRHFIN =H: ultrasoft test                                                    
   LEXCH  = PE                                                                  
   EATOM  =    12.4884 eV,    0.9179 Ry                                         
                                                                                
   TITEL  = PAW_PBE H 15Jun2001                                                 
   LULTRA =        F    use ultrasoft PP ?                                      
   IUNSCR =        0    unscreen: 0-lin 1-nonlin 2-no                           
   RPACOR =    0.000    partial core radius                                     
   POMASS =    1.000; ZVAL   =    1.000    mass and valenz                      
   RCORE  =    1.100    outmost cutoff radius                                   
   RWIGS  =    0.700; RWIGS  =    0.370    wigner-seitz radius (au A)           
   ENMAX  =  250.000; ENMIN  =  200.000 eV                                      
   RCLOC  =    0.701    cutoff for local pot                                    
   LCOR   =        T    correct aug charges                                     
   LPAW   =        T    paw PP                                                  
   EAUG   =  400.000                                                            
   RMAX   =    1.123    core radius for proj-oper                               
   RAUG   =    1.200    factor for augmentation sphere                          
   RDEP   =    1.112    radius for radial grids                                 
   RDEPT  =    0.926    core radius for aug-charge                              
                                                                                
   Atomic configuration                                                         
    2 entries                                                                   
     n  l   j            E        occ.                                          
     1  0  0.50        -6.4927   1.0000                                         
     2  1  0.50        -3.4015   0.0000                                         
   Description                                                                  
     l       E           TYP  RCUT    TYP  RCUT                                 
     0     -6.4927494     23  1.100                                             
     0      6.8029130     23  1.100                                             
     1     -4.0817478     23  1.100                                             
  local pseudopotential read in
  atomic valenz-charges read in
  non local Contribution for L=           0  read in
    real space projection operators read in
  non local Contribution for L=           0  read in
    real space projection operators read in
  non local Contribution for L=           1  read in
    real space projection operators read in
    PAW grid and wavefunctions read in
 
   number of l-projection  operators is LMAX  =           3
   number of lm-projection operators is LMMAX =           5
 
 Optimization of the real space projectors (new method)

 maximal supplied QI-value         = 14.36
 optimisation between [QCUT,QGAM] = [ 11.92, 23.98] = [ 39.79,161.09] Ry 
 Optimized for a Real-space Cutoff    1.49 Angstroem

   l    n(q)    QCUT    max X(q) W(low)/X(q) W(high)/X(q)  e(spline) 
   2     10    11.920    66.195    0.79E-04    0.18E-03    0.24E-06
   2     10    11.920    64.643    0.81E-04    0.19E-03    0.24E-06
   0     11    11.920    95.520    0.28E-04    0.54E-04    0.18E-06
   0     11    11.920    63.403    0.27E-04    0.52E-04    0.17E-06
   1     10    11.920    19.961    0.18E-04    0.11E-03    0.23E-06
   1     10    11.920    13.289    0.25E-04    0.87E-04    0.19E-06
 Optimization of the real space projectors (new method)

 maximal supplied QI-value         = 16.25
 optimisation between [QCUT,QGAM] = [ 11.86, 23.89] = [ 39.41,159.82] Ry 
 Optimized for a Real-space Cutoff    1.49 Angstroem

   l    n(q)    QCUT    max X(q) W(low)/X(q) W(high)/X(q)  e(spline) 
   2     10    11.864    80.901    0.13E-03    0.23E-03    0.37E-06
   2     10    11.864    75.754    0.13E-03    0.23E-03    0.38E-06
   0     11    11.864    58.752    0.44E-04    0.11E-04    0.20E-06
   0     11    11.864    30.679    0.36E-04    0.10E-04    0.18E-06
   1     10    11.864    17.977    0.31E-04    0.45E-04    0.10E-06
   1     10    11.864    13.559    0.25E-04    0.37E-04    0.89E-07
 Optimization of the real space projectors (new method)

 maximal supplied QI-value         = 16.25
 optimisation between [QCUT,QGAM] = [ 11.86, 23.89] = [ 39.41,159.82] Ry 
 Optimized for a Real-space Cutoff    1.33 Angstroem

   l    n(q)    QCUT    max X(q) W(low)/X(q) W(high)/X(q)  e(spline) 
   2      9    11.864    65.824    0.22E-03    0.53E-03    0.26E-06
   2      9    11.864    61.429    0.22E-03    0.53E-03    0.26E-06
   0      9    11.864    56.174    0.21E-03    0.32E-04    0.15E-06
   0      9    11.864    31.263    0.19E-03    0.30E-04    0.14E-06
   1      9    11.864    19.828    0.63E-04    0.30E-03    0.16E-06
   1      9    11.864    15.139    0.49E-04    0.25E-03    0.13E-06
 Optimization of the real space projectors (new method)

 maximal supplied QI-value         = 16.25
 optimisation between [QCUT,QGAM] = [ 11.86, 23.89] = [ 39.41,159.82] Ry 
 Optimized for a Real-space Cutoff    1.49 Angstroem

   l    n(q)    QCUT    max X(q) W(low)/X(q) W(high)/X(q)  e(spline) 
   2     10    11.864     4.610    0.10E-03    0.20E-03    0.29E-06
   2     10    11.864     8.522    0.17E-03    0.33E-03    0.50E-06
   0     11    11.864    51.609    0.52E-04    0.55E-04    0.33E-06
   0     11    11.864    27.747    0.46E-04    0.52E-04    0.31E-06
   1     10    11.864    20.408    0.54E-04    0.25E-04    0.21E-06
   1     10    11.864    13.425    0.48E-04    0.22E-04    0.18E-06
 Optimization of the real space projectors (new method)

 maximal supplied QI-value         = 16.25
 optimisation between [QCUT,QGAM] = [ 11.86, 23.89] = [ 39.41,159.82] Ry 
 Optimized for a Real-space Cutoff    1.33 Angstroem

   l    n(q)    QCUT    max X(q) W(low)/X(q) W(high)/X(q)  e(spline) 
   2      9    11.864    60.317    0.21E-03    0.51E-03    0.25E-06
   2      9    11.864    55.921    0.21E-03    0.51E-03    0.26E-06
   0      9    11.864    51.690    0.22E-03    0.30E-04    0.17E-06
   0      9    11.864    30.015    0.20E-03    0.28E-04    0.15E-06
   1      9    11.864    18.849    0.76E-04    0.33E-03    0.17E-06
   1      9    11.864    14.624    0.60E-04    0.28E-03    0.15E-06
 Optimization of the real space projectors (new method)

 maximal supplied QI-value         = 34.20
 optimisation between [QCUT,QGAM] = [ 11.97, 23.94] = [ 40.13,160.53] Ry 
 Optimized for a Real-space Cutoff    1.18 Angstroem

   l    n(q)    QCUT    max X(q) W(low)/X(q) W(high)/X(q)  e(spline) 
   0      8    11.971    19.460    0.15E-03    0.31E-03    0.25E-06
   0      8    11.971    12.209    0.13E-03    0.29E-03    0.25E-06
   1      8    11.971     4.655    0.22E-03    0.24E-03    0.21E-06
  PAW_PBE Pt 04Feb2005                  :
 energy of atom  1       EATOM= -729.1176
 kinetic energy error for atom=    0.0021 (will be added to EATOM!!)
  PAW_PBE Fe 06Sep2000                  :
 energy of atom  2       EATOM= -594.3153
 kinetic energy error for atom=    0.0024 (will be added to EATOM!!)
  PAW_PBE Co 02Aug2007                  :
 energy of atom  3       EATOM= -813.3670
 kinetic energy error for atom=    0.0026 (will be added to EATOM!!)
  PAW_PBE Cu 22Jun2005                  :
 energy of atom  4       EATOM=-1390.9808
 kinetic energy error for atom=    0.0036 (will be added to EATOM!!)
  PAW_PBE Ni 02Aug2007                  :
 energy of atom  5       EATOM=-1077.6739
 kinetic energy error for atom=    0.0027 (will be added to EATOM!!)
  PAW_PBE H 15Jun2001                   :
 energy of atom  6       EATOM=  -12.4884
 kinetic energy error for atom=    0.0008 (will be added to EATOM!!)
 
 
 POSCAR: 10.66                                   
  positions in direct lattice
  velocities in cartesian coordinates
 exchange correlation table for  LEXCH =        8
   RHO(1)=    0.500       N(1)  =     2000
   RHO(2)=  100.500       N(2)  =     4000
 


--------------------------------------------------------------------------------------------------------


 ion  position               nearest neighbor table
   1  0.787  0.879  0.317-  49 2.62  28 2.62  59 2.64  19 2.66  33 2.68  61 2.68  29 2.70  60 2.70
                             2 2.74  11 2.76   4 2.84  12 2.84
   2  0.042  0.882  0.316-  79 2.56  77 2.60  60 2.65  30 2.66  28 2.67  52 2.69  33 2.69  22 2.71
                             1 2.74   6 2.79   4 2.87  16 2.94
   3  0.279  0.381  0.319-  64 2.57  39 2.59  33 2.61  31 2.63  68 2.71  19 2.73  43 2.73  30 2.73
                             5 2.77  13 2.79  25 2.84  18 2.84
   4  0.870  0.964  0.425-  17 2.63  11 2.64   9 2.67  12 2.70   6 2.72  16 2.74  60 2.83   1 2.84
                             2 2.87
   5  0.121  0.462  0.426-  81 1.80  16 2.63  12 2.64  10 2.65   7 2.65  13 2.70  25 2.70  39 2.71
                            33 2.72   3 2.77
   6  0.125  0.964  0.422-   8 2.63  10 2.65   9 2.68  14 2.69   4 2.72  16 2.74   2 2.79  52 2.80
                            22 2.86
   7  0.874  0.460  0.425-   9 2.64  15 2.64   5 2.65  10 2.66  12 2.66  39 2.69  27 2.69  75 2.75
                            29 2.79
   8  0.374  0.960  0.419-  43 2.60   6 2.63  14 2.64  27 2.65  13 2.66  11 2.67  10 2.67  52 2.68
                            61 2.71
   9  0.872  0.213  0.419-  15 2.64   7 2.64  17 2.66  75 2.66   4 2.67   6 2.68  10 2.69  60 2.71
                            22 2.80
  10  0.125  0.212  0.421-  13 2.64   5 2.65   6 2.65   7 2.66  39 2.66   8 2.67   9 2.69  43 2.72
                            22 2.77
  11  0.624  0.961  0.422-   4 2.64  13 2.66  27 2.66  12 2.66   8 2.67  17 2.67   1 2.76  19 2.81
                            61 2.82
  12  0.873  0.710  0.424-   5 2.64   7 2.66  27 2.66  11 2.66  33 2.69  16 2.69   4 2.70  29 2.78
                             1 2.84
  13  0.374  0.209  0.423-  10 2.64  11 2.66   8 2.66  17 2.67  25 2.69   5 2.70  43 2.75   3 2.79
                            19 2.81
  14  0.377  0.712  0.422-  27 2.61   8 2.64  15 2.65  44 2.67  25 2.68   6 2.69  16 2.70  52 2.73
                            30 2.75
  15  0.626  0.462  0.421-   9 2.64   7 2.64  27 2.65  14 2.65  25 2.68  17 2.68  44 2.69  75 2.71
                            18 2.76
  16  0.127  0.707  0.427-  81 1.77  25 2.63   5 2.63  12 2.69  14 2.70  33 2.71   4 2.74   6 2.74
                            30 2.84   2 2.94
  17  0.624  0.211  0.421-   4 2.63   9 2.66  25 2.66  11 2.67  13 2.67  15 2.68  18 2.75  60 2.77
                            19 2.85
  18  0.548  0.376  0.316-  67 2.56  60 2.62  75 2.63  68 2.65  26 2.66  44 2.66  30 2.74  17 2.75
                            19 2.75  15 2.76   3 2.84  25 2.86
  19  0.534  0.125  0.314-  80 2.55  68 2.57  43 2.58  59 2.60   1 2.66  61 2.66   3 2.73  18 2.75
                            60 2.78  13 2.81  11 2.81  17 2.85
  20  0.549  0.122  0.042-  37 2.55  57 2.55  48 2.57  62 2.66  63 2.70  34 2.71  45 2.73  47 2.74
                            56 2.74
  21  0.120  0.460  0.128-  40 2.52  36 2.53  47 2.53  42 2.60  64 2.62  69 2.62  70 2.66  50 2.67
                            31 2.71  58 2.71  57 2.74  74 2.75
  22  0.044  0.136  0.314-  65 2.52  55 2.54  77 2.57  43 2.60  39 2.61  75 2.64   2 2.71  60 2.71
                            52 2.75  10 2.77   9 2.80   6 2.86  31 3.41
  23  0.042  0.131  0.034-  70 2.57  40 2.60  41 2.61  45 2.64  62 2.65  76 2.65  24 2.69  35 2.76
                            53 2.81
  24  0.131  0.958  0.132-  79 2.52  77 2.55  35 2.57  53 2.58  55 2.59  70 2.64  38 2.66  58 2.66
                            73 2.67  23 2.69  66 2.73  41 2.75
  25  0.375  0.461  0.424-  81 1.83  16 2.63  17 2.66  15 2.68  14 2.68  13 2.69   5 2.70  30 2.82
                             3 2.84  18 2.86
  26  0.455  0.546  0.219-  73 2.50  74 2.54  51 2.55  79 2.63  64 2.65  30 2.66  18 2.66  68 2.69
                            78 2.69  32 2.70  44 2.74  67 2.75
  27  0.622  0.712  0.423-  14 2.61   8 2.65  15 2.65  11 2.66  12 2.66   7 2.69  44 2.70  61 2.77
                            29 2.78
  28  0.956  0.789  0.221-  58 2.56  66 2.58  50 2.58  42 2.61   1 2.62  49 2.64  64 2.66   2 2.67
                            33 2.70  59 2.74  79 2.80  77 2.81
  29  0.794  0.623  0.319-  42 2.56  39 2.56  75 2.60  32 2.62  44 2.67  33 2.67  49 2.68  61 2.70
                             1 2.70  12 2.78  27 2.78   7 2.79
  30  0.290  0.631  0.318-  79 2.56  64 2.61  52 2.63  26 2.66  44 2.66   2 2.66  33 2.67   3 2.73
                            18 2.74  14 2.75  25 2.82  16 2.84
  31  0.202  0.280  0.225-  70 2.51  55 2.58  43 2.58  65 2.59  57 2.60   3 2.63  39 2.66  21 2.71
                            80 2.72  42 2.74  68 2.79  64 2.83  22 3.41
  32  0.706  0.550  0.221-  54 2.53  69 2.56  51 2.58  49 2.60  29 2.62  42 2.62  78 2.64  65 2.65
                            75 2.68  44 2.69  26 2.70  67 2.72
  33  0.040  0.632  0.325-   3 2.61  30 2.67  39 2.67  29 2.67   1 2.68  12 2.69   2 2.69  28 2.70
                            64 2.70  16 2.71   5 2.72  42 2.73
  34  0.796  0.862  0.044-  50 2.39  66 2.51  48 2.52  36 2.55  71 2.58  63 2.62  20 2.71  62 2.79
                            35 2.80
  35  0.057  0.865  0.039-  58 2.54  72 2.55  36 2.56  24 2.57  66 2.62  53 2.68  23 2.76  62 2.76
                            34 2.80
  36  0.044  0.632  0.039-  21 2.53  34 2.55  35 2.56  58 2.58  50 2.59  47 2.67  72 2.69  71 2.74
                            40 2.76
  37  0.628  0.224  0.129-  51 2.51  67 2.52  56 2.52  74 2.53  20 2.55  68 2.56  59 2.56  41 2.57
                            62 2.59  66 2.69  57 2.76  48 2.95
  38  0.383  0.954  0.131-  53 2.46  45 2.47  80 2.47  78 2.53  73 2.56  63 2.56  48 2.56  54 2.58
                            55 2.58  57 2.65  24 2.66  70 2.70
  39  0.035  0.384  0.324-  29 2.56   3 2.59  75 2.60  22 2.61  42 2.65  10 2.66  31 2.66  33 2.67
                             7 2.69   5 2.71  65 2.74  43 2.82
  40  0.028  0.381  0.039-  69 2.42  21 2.52  71 2.54  76 2.54  70 2.56  23 2.60  36 2.76  45 2.84
                            47 2.85
  41  0.872  0.215  0.129-  76 2.45  65 2.52  77 2.53  67 2.53  37 2.57  62 2.57  69 2.59  23 2.61
                            51 2.61  70 2.68  66 2.68  24 2.75
  42  0.955  0.545  0.224-  50 2.55  29 2.56  69 2.60  21 2.60  28 2.61  32 2.62  49 2.65  39 2.65
                            65 2.65  64 2.69  33 2.73  31 2.74
  43  0.296  0.116  0.320-  55 2.52  52 2.57  31 2.58  19 2.58  61 2.59   8 2.60  22 2.60  80 2.64
                            10 2.72   3 2.73  13 2.75  39 2.82
  44  0.541  0.629  0.321-  61 2.59  52 2.60  78 2.63  30 2.66  18 2.66  14 2.67  29 2.67  75 2.68
                            15 2.69  32 2.69  27 2.70  26 2.74
  45  0.296  0.116  0.041-  38 2.47  70 2.49  57 2.57  53 2.58  23 2.64  63 2.65  20 2.73  47 2.83
                            40 2.84
  46  0.549  0.625  0.045-  51 2.38  73 2.39  54 2.41  71 2.57  53 2.59  63 2.60  76 2.62  56 2.63
                            72 2.66
  47  0.294  0.382  0.040-  74 2.41  21 2.53  57 2.64  72 2.65  56 2.66  36 2.67  20 2.74  45 2.83
                            40 2.85
  48  0.626  0.948  0.133-  49 2.39  54 2.48  80 2.49  34 2.52  59 2.56  63 2.56  38 2.56  20 2.57
                            50 2.58  57 2.68  66 2.72  37 2.95
  49  0.707  0.793  0.220-  48 2.39  50 2.47  54 2.48  80 2.57  32 2.60   1 2.62  61 2.63  28 2.64
                            78 2.64  42 2.65  29 2.68  59 2.73
  50  0.865  0.704  0.130-  34 2.39  71 2.42  49 2.47  54 2.49  42 2.55  48 2.58  28 2.58  69 2.58
                            36 2.59  21 2.67  66 2.81  58 2.90
  51  0.627  0.460  0.128-  46 2.38  76 2.44  56 2.51  37 2.51  26 2.55  32 2.58  41 2.61  67 2.62
                            73 2.63  69 2.64  74 2.65  54 2.72
  52  0.298  0.874  0.318-  55 2.44  79 2.52  78 2.52  61 2.56  43 2.57  44 2.60  30 2.63   8 2.68
                             2 2.69  14 2.73  22 2.75   6 2.80
  53  0.307  0.869  0.042-  73 2.42  38 2.46  63 2.57  24 2.58  45 2.58  46 2.59  72 2.61  35 2.68
                            23 2.81
  54  0.627  0.715  0.129-  46 2.41  71 2.46  63 2.48  48 2.48  49 2.48  50 2.49  32 2.53  38 2.58
                            73 2.58  78 2.62  69 2.70  51 2.72
  55  0.225  0.027  0.228-  52 2.44  78 2.48  79 2.51  43 2.52  80 2.54  22 2.54  31 2.58  38 2.58
                            24 2.59  70 2.72  77 2.75  65 2.90
  56  0.544  0.381  0.036-  74 2.50  51 2.51  37 2.52  76 2.61  46 2.63  72 2.64  47 2.66  62 2.72
                            20 2.74
  57  0.379  0.204  0.133-  68 2.46  80 2.54  20 2.55  45 2.57  31 2.60  47 2.64  38 2.65  74 2.66
                            70 2.66  48 2.68  21 2.74  37 2.76
  58  0.137  0.705  0.133-  72 2.46  64 2.50  35 2.54  28 2.56  79 2.57  36 2.58  74 2.66  24 2.66
                            73 2.70  21 2.71  50 2.90
  59  0.705  0.051  0.220-  66 2.52  48 2.56  37 2.56  19 2.60  68 2.61  67 2.61  60 2.62   1 2.64
                            77 2.69  80 2.71  49 2.73  28 2.74
  60  0.793  0.129  0.317-  67 2.53  77 2.57  59 2.62  18 2.62   2 2.65  75 2.67   1 2.70   9 2.71
                            22 2.71  17 2.77  19 2.78   4 2.83
  61  0.539  0.873  0.317-  78 2.49  80 2.52  52 2.56  43 2.59  44 2.59  49 2.63  19 2.66   1 2.68
                            29 2.70   8 2.71  27 2.77  11 2.82
  62  0.797  0.123  0.036-  66 2.53  41 2.57  37 2.59  23 2.65  20 2.66  76 2.68  56 2.72  35 2.76
                            34 2.79
  63  0.546  0.870  0.037-  54 2.48  38 2.56  48 2.56  53 2.57  46 2.60  34 2.62  71 2.63  45 2.65
                            20 2.70
  64  0.208  0.542  0.224-  58 2.50   3 2.57  30 2.61  21 2.62  26 2.65  28 2.66  68 2.66  74 2.67
                            42 2.69  33 2.70  79 2.76  31 2.83
  65  0.951  0.297  0.222-  69 2.52  22 2.52  41 2.52  67 2.55  77 2.58  31 2.59  75 2.61  70 2.61
                            32 2.65  42 2.65  39 2.74  55 2.90
  66  0.872  0.964  0.130-  34 2.51  59 2.52  62 2.53  77 2.58  28 2.58  35 2.62  41 2.68  37 2.69
                            48 2.72  24 2.73  50 2.81
  67  0.715  0.290  0.224-  37 2.52  60 2.53  41 2.53  77 2.54  65 2.55  18 2.56  59 2.61  51 2.62
                            75 2.63  32 2.72  68 2.74  26 2.75
  68  0.457  0.292  0.221-  57 2.46  74 2.54  37 2.56  19 2.57  59 2.61  18 2.65  64 2.66  26 2.69
                             3 2.71  67 2.74  80 2.78  31 2.79
  69  0.875  0.457  0.129-  40 2.42  71 2.45  76 2.46  65 2.52  32 2.56  50 2.58  41 2.59  42 2.60
                            21 2.62  51 2.64  70 2.68  54 2.70
  70  0.128  0.206  0.129-  45 2.49  31 2.51  40 2.56  23 2.57  65 2.61  24 2.64  21 2.66  57 2.66
                            41 2.68  69 2.68  38 2.70  55 2.72
  71  0.792  0.622  0.041-  50 2.42  69 2.45  54 2.46  40 2.54  46 2.57  34 2.58  76 2.61  63 2.63
                            36 2.74
  72  0.298  0.629  0.044-  74 2.46  58 2.46  73 2.47  35 2.55  53 2.61  56 2.64  47 2.65  46 2.66
                            36 2.69
  73  0.386  0.713  0.130-  46 2.39  53 2.42  72 2.47  26 2.50  78 2.54  38 2.56  54 2.58  79 2.63
                            51 2.63  24 2.67  58 2.70  74 2.80
  74  0.382  0.451  0.127-  47 2.41  72 2.46  56 2.50  37 2.53  68 2.54  26 2.54  51 2.65  57 2.66
                            58 2.66  64 2.67  21 2.75  73 2.80
  75  0.793  0.380  0.320-  29 2.60  39 2.60  65 2.61  67 2.63  18 2.63  22 2.64   9 2.66  60 2.67
                            44 2.68  32 2.68  15 2.71   7 2.75
  76  0.791  0.377  0.041-  51 2.44  41 2.45  69 2.46  40 2.54  56 2.61  71 2.61  46 2.62  23 2.65
                            62 2.68
  77  0.956  0.053  0.222-  41 2.53  67 2.54  24 2.55  22 2.57  60 2.57  66 2.58  65 2.58   2 2.60
                            59 2.69  79 2.74  55 2.75  28 2.81
  78  0.458  0.796  0.225-  55 2.48  61 2.49  80 2.50  52 2.52  38 2.53  73 2.54  79 2.59  54 2.62
                            44 2.63  49 2.64  32 2.64  26 2.69
  79  0.215  0.798  0.225-  55 2.51  24 2.52  52 2.52   2 2.56  30 2.56  58 2.57  78 2.59  73 2.63
                            26 2.63  77 2.74  64 2.76  28 2.80
  80  0.462  0.029  0.223-  38 2.47  48 2.49  78 2.50  61 2.52  55 2.54  57 2.54  19 2.55  49 2.57
                            43 2.64  59 2.71  31 2.72  68 2.78
  81  0.207  0.542  0.468-  16 1.77   5 1.80  25 1.83
 
  LATTYP: Found a hexagonal cell.
 ALAT       =    10.6599998474
 C/A-ratio  =     2.0637898982
  
  Lattice vectors:
  
 A1 = (   5.3299999237,  -9.2318306722,   0.0000000000)
 A2 = ( -10.6599998474,   0.0000000000,   0.0000000000)
 A3 = (   0.0000000000,   0.0000000000, -22.0000000000)


Analysis of symmetry for initial positions (statically):
=====================================================================
 Subroutine PRICEL returns:
 Original cell was already a primitive cell.
 

 Routine SETGRP: Setting up the symmetry group for a 
 hexagonal supercell.


 Subroutine GETGRP returns: Found  1 space group operations
 (whereof  1 operations were pure point group operations)
 out of a pool of 24 trial point group operations.


The static configuration has the point symmetry C_1 .


Analysis of symmetry for dynamics (positions and initial velocities):
=====================================================================
 Subroutine PRICEL returns:
 Original cell was already a primitive cell.
 

 Routine SETGRP: Setting up the symmetry group for a 
 hexagonal supercell.


 Subroutine GETGRP returns: Found  1 space group operations
 (whereof  1 operations were pure point group operations)
 out of a pool of 24 trial point group operations.


The dynamic configuration has the point symmetry C_1 .


Analysis of constrained symmetry for selective dynamics:
=====================================================================
 Subroutine PRICEL returns:
 Original cell was already a primitive cell.
 

 Routine SETGRP: Setting up the symmetry group for a 
 hexagonal supercell.


 Subroutine GETGRP returns: Found  1 space group operations
 (whereof  1 operations were pure point group operations)
 out of a pool of 24 trial point group operations.


The constrained configuration has the point symmetry C_1 .


Analysis of structural, dynamic, and magnetic symmetry:
=====================================================================
 Subroutine PRICEL returns:
 Original cell was already a primitive cell.
 

 Routine SETGRP: Setting up the symmetry group for a 
 hexagonal supercell.


 Subroutine GETGRP returns: Found  1 space group operations
 (whereof  1 operations were pure point group operations)
 out of a pool of 24 trial point group operations.


The magnetic configuration has the point symmetry C_1 .


 Subroutine INISYM returns: Found  1 space group operations
 (whereof  1 operations are pure point group operations),
 and found     1 'primitive' translations

 
 
 KPOINTS: mesh auto                               

Automatic generation of k-mesh.
Space group operators:
 irot       det(A)        alpha          n_x          n_y          n_z        tau_x        tau_y        tau_z
    1     1.000000     0.000000     1.000000     0.000000     0.000000     0.000000     0.000000     0.000000
 
 Subroutine IBZKPT returns following result:
 ===========================================
 
 Found      4 irreducible k-points:
 
 Following reciprocal coordinates:
            Coordinates               Weight
  0.000000  0.000000  0.000000      1.000000
  0.500000 -0.000000  0.000000      1.000000
  0.000000  0.500000  0.000000      1.000000
  0.500000  0.500000  0.000000      1.000000
 
 Following cartesian coordinates:
            Coordinates               Weight
  0.000000  0.000000  0.000000      1.000000
  0.046904 -0.027080  0.000000      1.000000
  0.000000  0.054160  0.000000      1.000000
  0.046904  0.027080  0.000000      1.000000
 


--------------------------------------------------------------------------------------------------------




 Dimension of arrays:
   k-points           NKPTS =      4   k-points in BZ     NKDIM =      4   number of bands    NBANDS=    588
   number of dos      NEDOS =    301   number of ions     NIONS =     81
   non local maximal  LDIM  =      6   non local SUM 2l+1 LMDIM =     18
   total plane-waves  NPLWV = ******
   max r-space proj   IRMAX =   7657   max aug-charges    IRDMAX=  33358
   dimension x,y,z NGX =    84 NGY =   84 NGZ =  168
   dimension x,y,z NGXF=   168 NGYF=  168 NGZF=  336
   support grid    NGXF=   168 NGYF=  168 NGZF=  336
   ions per type =              32  13  10  13  12   1
   NGX,Y,Z   is equivalent  to a cutoff of  13.10, 13.10, 12.70 a.u.
   NGXF,Y,Z  is equivalent  to a cutoff of  26.20, 26.20, 25.39 a.u.

 SYSTEM =  Pt111                                   
 POSCAR =  10.66                                   

 Startparameter for this run:
   NWRITE =      2    write-flag & timer
   PREC   = accura    normal or accurate (medium, high low for compatibility)
   ISTART =      0    job   : 0-new  1-cont  2-samecut
   ICHARG =      2    charge: 1-file 2-atom 10-const
   ISPIN  =      2    spin polarized calculation?
   LNONCOLLINEAR =      F non collinear calculations
   LSORBIT =      F    spin-orbit coupling
   INIWAV =      1    electr: 0-lowe 1-rand  2-diag
   LASPH  =      F    aspherical Exc in radial PAW
   METAGGA=      F    non-selfconsistent MetaGGA calc.

 Electronic Relaxation 1
   ENCUT  =  550.0 eV  40.42 Ry    6.36 a.u.  20.38 20.38 42.07*2*pi/ulx,y,z
   ENINI  =  550.0     initial cutoff
   ENAUG  =  587.0 eV  augmentation charge cutoff
   NELM   =    200;   NELMIN=  2; NELMDL= -5     # of ELM steps 
   EDIFF  = 0.1E-04   stopping-criterion for ELM
   LREAL  =      T    real-space projection
   NLSPLINE    = F    spline interpolate recip. space projectors
   LCOMPAT=      F    compatible to vasp.4.4
   GGA_COMPAT  = T    GGA compatible to vasp.4.4-vasp.4.6
   LMAXPAW     = -100 max onsite density
   LMAXMIX     =    2 max onsite mixed and CHGCAR
   VOSKOWN=      0    Vosko Wilk Nusair interpolation
   ROPT   =   -0.00025  -0.00025  -0.00025  -0.00025
   ROPT   =   -0.00025  -0.00025
 Ionic relaxation
   EDIFFG = -.5E-01   stopping-criterion for IOM
   NSW    =    300    number of steps for IOM
   NBLOCK =      1;   KBLOCK =    300    inner block; outer block 
   IBRION =      2    ionic relax: 0-MD 1-quasi-New 2-CG
   NFREE  =      1    steps in history (QN), initial steepest desc. (CG)
   ISIF   =      2    stress and relaxation
   IWAVPR =     11    prediction:  0-non 1-charg 2-wave 3-comb
   ISYM   =      2    0-nonsym 1-usesym 2-fastsym
   LCORR  =      T    Harris-Foulkes like correction to forces

   POTIM  = 0.5000    time-step for ionic-motion
   TEIN   =    0.0    initial temperature
   TEBEG  =    0.0;   TEEND  =   0.0 temperature during run
   SMASS  =  -3.00    Nose mass-parameter (am)
   estimated Nose-frequenzy (Omega)   =  0.10E-29 period in steps =****** mass=  -0.260E-26a.u.
   SCALEE = 1.0000    scale energy and forces
   NPACO  =    256;   APACO  = 16.0  distance and # of slots for P.C.
   PSTRESS=    0.0 pullay stress

  Mass of Ions in am
   POMASS = 195.08 55.85 58.93 63.55 58.69  1.00
  Ionic Valenz
   ZVAL   =  10.00  8.00  9.00 11.00 10.00  1.00
  Atomic Wigner-Seitz radii
   RWIGS  =  -1.00 -1.00 -1.00 -1.00 -1.00 -1.00
  virtual crystal weights 
   VCA    =   1.00  1.00  1.00  1.00  1.00  1.00
   NELECT =     778.0000    total number of electrons
   NUPDOWN=      -1.0000    fix difference up-down

 DOS related values:
   EMIN   =  10.00;   EMAX   =-10.00  energy-range for DOS
   EFERMI =   0.00
   ISMEAR =     1;   SIGMA  =   0.10  broadening in eV -4-tet -1-fermi 0-gaus

 Electronic relaxation 2 (details)
   IALGO  =     68    algorithm
   LDIAG  =      T    sub-space diagonalisation (order eigenvalues)
   LSUBROT=      F    optimize rotation matrix (better conditioning)
   TURBO    =      0    0=normal 1=particle mesh
   IRESTART =      0    0=no restart 2=restart with 2 vectors
   NREBOOT  =      0    no. of reboots
   NMIN     =      0    reboot dimension
   EREF     =   0.00    reference energy to select bands
   IMIX   =      4    mixing-type and parameters
     AMIX     =   0.40;   BMIX     =  1.00
     AMIX_MAG =   1.60;   BMIX_MAG =  1.00
     AMIN     =   0.10
     WC   =   100.;   INIMIX=   1;  MIXPRE=   1;  MAXMIX= -45

 Intra band minimization:
   WEIMIN = 0.0010     energy-eigenvalue tresh-hold
   EBREAK =  0.43E-08  absolut break condition
   DEPER  =   0.30     relativ break condition  

   TIME   =   0.40     timestep for ELM

  volume/ion in A,a.u.               =      26.73       180.38
  Fermi-wavevector in a.u.,A,eV,Ry     =   1.163891  2.199434 18.431011  1.354641
  Thomas-Fermi vector in A             =   2.300435
 
 Write flags
   LWAVE        =      F    write WAVECAR
   LDOWNSAMPLE  =      F    k-point downsampling of WAVECAR
   LCHARG       =      F    write CHGCAR
   LVTOT        =      F    write LOCPOT, total local potential
   LVHAR        =      F    write LOCPOT, Hartree potential only
   LELF         =      F    write electronic localiz. function (ELF)
   LORBIT       =      0    0 simple, 1 ext, 2 COOP (PROOUT), +10 PAW based schemes


 Dipole corrections
   LMONO  =      F    monopole corrections only (constant potential shift)
   LDIPOL =      F    correct potential (dipole corrections)
   IDIPOL =      0    1-x, 2-y, 3-z, 4-all directions 
   EPSILON=  1.0000000 bulk dielectric constant

 Exchange correlation treatment:
   GGA     =    --    GGA type
   LEXCH   =     8    internal setting for exchange type
   VOSKOWN=      0    Vosko Wilk Nusair interpolation
   LHFCALC =     F    Hartree Fock is set to
   LHFONE  =     F    Hartree Fock one center treatment
   AEXX    =    0.0000 exact exchange contribution

 Linear response parameters
   LEPSILON=     F    determine dielectric tensor
   LRPA    =     F    only Hartree local field effects (RPA)
   LNABLA  =     F    use nabla operator in PAW spheres
   LVEL    =     F    velocity operator in full k-point grid
   LINTERFAST=   F  fast interpolation
   KINTER  =     0    interpolate to denser k-point grid
   CSHIFT  =0.1000    complex shift for real part using Kramers Kronig
   OMEGAMAX=  -1.0    maximum frequency
   DEG_THRESHOLD= 0.2000000E-02 threshold for treating states as degnerate
   RTIME   =   -0.100 relaxation time in fs
  (WPLASMAI=    0.000 imaginary part of plasma frequency in eV, 0.658/RTIME)
   DFIELD  = 0.0000000 0.0000000 0.0000000 field for delta impulse in time
 
 Orbital magnetization related:
   ORBITALMAG=     F  switch on orbital magnetization
   LCHIMAG   =     F  perturbation theory with respect to B field
   DQ        =  0.001000  dq finite difference perturbation B field
   LLRAUG    =     F  two centre corrections for induced B field



--------------------------------------------------------------------------------------------------------


 conjugate gradient relaxation of ions
   using selective dynamics as specified on POSCAR
 charge density and potential will be updated during run
 spin polarized calculation
 RMM-DIIS sequential band-by-band and
  variant of blocked Davidson during initial phase
 perform sub-space diagonalisation
    before iterative eigenvector-optimisation
 modified Broyden-mixing scheme, WC =      100.0
 initial mixing is a Kerker type mixing with AMIX =  0.4000 and BMIX =      1.0000
 Hartree-type preconditioning will be used
 using additional bands          199
 real space projection scheme for non local part
 use partial core corrections
 calculate Harris-corrections to forces 
   (improved forces if not selfconsistent)
 use gradient corrections 
 use of overlap-Matrix (Vanderbilt PP)
 Methfessel and Paxton  Order N= 1 SIGMA  =   0.10


--------------------------------------------------------------------------------------------------------


  energy-cutoff  :      550.00
  volume of cell :     2165.05
      direct lattice vectors                 reciprocal lattice vectors
    10.659999847  0.000000000  0.000000000     0.093808632 -0.054160439  0.000000000
     5.329999924  9.231830672  0.000000000     0.000000000  0.108320878  0.000000000
     0.000000000  0.000000000 22.000000000     0.000000000  0.000000000  0.045454545

  length of vectors
    10.659999847 10.659999847 22.000000000     0.108320878  0.108320878  0.045454545


 
 k-points in units of 2pi/SCALE and weight: mesh auto                               
   0.00000000  0.00000000  0.00000000       0.250
   0.04690432 -0.02708022  0.00000000       0.250
   0.00000000  0.05416044  0.00000000       0.250
   0.04690432  0.02708022  0.00000000       0.250
 
 k-points in reciprocal lattice and weights: mesh auto                               
   0.00000000  0.00000000  0.00000000       0.250
   0.50000000 -0.00000000  0.00000000       0.250
   0.00000000  0.50000000  0.00000000       0.250
   0.50000000  0.50000000  0.00000000       0.250
 
 position of ions in fractional coordinates (direct lattice) 
   0.78698156  0.87934948  0.31670903
   0.04234848  0.88246863  0.31591121
   0.27906093  0.38077159  0.31860809
   0.87037601  0.96396705  0.42463440
   0.12086295  0.46246961  0.42579099
   0.12543563  0.96387204  0.42212371
   0.87404697  0.45970614  0.42522089
   0.37414116  0.96018450  0.41859529
   0.87209320  0.21346419  0.41866451
   0.12504209  0.21244796  0.42095965
   0.62402401  0.96062852  0.42207325
   0.87281104  0.70992359  0.42433242
   0.37420595  0.20933820  0.42297381
   0.37724820  0.71152838  0.42154660
   0.62552648  0.46180555  0.42118050
   0.12661411  0.70664851  0.42737501
   0.62411420  0.21111642  0.42062184
   0.54809608  0.37581131  0.31638217
   0.53418159  0.12488383  0.31438418
   0.54860226  0.12207837  0.04171946
   0.12037701  0.45967589  0.12832010
   0.04398259  0.13560906  0.31394450
   0.04184264  0.13051489  0.03430237
   0.13087669  0.95764103  0.13245935
   0.37478501  0.46119156  0.42416400
   0.45485914  0.54588982  0.21874999
   0.62218054  0.71199103  0.42264004
   0.95645968  0.78899581  0.22100756
   0.79431358  0.62283920  0.31869408
   0.29035371  0.63122911  0.31786704
   0.20217908  0.27972982  0.22528100
   0.70611390  0.54959934  0.22097174
   0.04036407  0.63157605  0.32455883
   0.79601056  0.86182010  0.04358326
   0.05654378  0.86511100  0.03922008
   0.04354811  0.63172365  0.03890931
   0.62768151  0.22351632  0.12936912
   0.38251648  0.95408414  0.13073287
   0.03528268  0.38373991  0.32354596
   0.02789537  0.38111357  0.03922688
   0.87238548  0.21524336  0.12909491
   0.95467932  0.54470465  0.22394960
   0.29644672  0.11628504  0.32044908
   0.54060553  0.62917590  0.32136700
   0.29593874  0.11566849  0.04109769
   0.54915757  0.62535345  0.04512996
   0.29444361  0.38188257  0.03954700
   0.62577798  0.94799811  0.13283874
   0.70705774  0.79324161  0.22005214
   0.86523064  0.70443471  0.12965162
   0.62674088  0.45978399  0.12791088
   0.29845064  0.87417220  0.31768696
   0.30656831  0.86859519  0.04153612
   0.62656079  0.71505450  0.12903147
   0.22515281  0.02743556  0.22759778
   0.54425403  0.38139876  0.03593963
   0.37883082  0.20414358  0.13341050
   0.13702030  0.70469682  0.13275664
   0.70477493  0.05064794  0.22041944
   0.79288205  0.12930665  0.31656623
   0.53879004  0.87299165  0.31663114
   0.79690904  0.12300803  0.03589815
   0.54639677  0.86991640  0.03703501
   0.20779659  0.54239767  0.22376022
   0.95111425  0.29749285  0.22182122
   0.87203635  0.96412677  0.12966428
   0.71537339  0.29000752  0.22356538
   0.45718173  0.29225077  0.22086730
   0.87549525  0.45703326  0.12894021
   0.12808024  0.20618715  0.12934578
   0.79201094  0.62176511  0.04149761
   0.29752238  0.62870438  0.04356032
   0.38614974  0.71252577  0.12966825
   0.38234618  0.45146388  0.12688447
   0.79315007  0.37965716  0.31998752
   0.79142063  0.37689392  0.04093851
   0.95561894  0.05311826  0.22176563
   0.45832980  0.79639200  0.22484809
   0.21473375  0.79774967  0.22502562
   0.46199744  0.02941329  0.22254954
   0.20735797  0.54231958  0.46840172
 
 position of ions in cartesian coordinates  (Angst):
  13.07615599  8.11800551  6.96759867
   5.15499251  8.14680092  6.95004655
   5.00430200  3.51521882  7.00937790
  14.41615247  8.89918061  9.34195677
   3.75336201  4.26944112  9.36740170
   6.47458174  8.89830346  9.28672158
  11.76757422  4.24392924  9.35485963
   9.10612809  8.86426075  9.20909647
  10.43427746  1.97066527  9.21061932
   2.46529630  1.96128357  9.26111228
  11.77224579  8.86835980  9.28561147
  13.08805823  6.55389440  9.33531328
   5.10480797  1.93257482  9.30542384
   7.81391199  6.56870955  9.27402517
   9.12953571  4.26331063  9.26597090
   5.11614291  6.52365937  9.40225030
   7.77830774  1.94899106  9.25368057
   7.84577839  3.46942635  6.96040778
   6.36000644  1.15290638  6.91645200
   6.49877769  1.12700682  0.91782815
   3.73329140  4.24365001  2.82304227
   1.19165074  1.25191993  6.90677896
   1.14168689  1.20489139  0.75465211
   6.49937211  8.84077982  2.91410569
   6.45335914  4.25764239  9.33160810
   7.75839111  5.03956240  4.81249981
  10.42735662  6.57298059  9.29808086
  14.40120767  7.28387573  4.86216630
  11.78711552  5.74994601  7.01126987
   6.45962155  5.82740022  6.99307492
   3.64618885  2.58241830  4.95618191
  10.45653852  5.07380801  4.86137834
   3.79658130  5.83060319  7.14029420
  13.07897347  7.95617723  0.95883175
   5.21379828  7.98655826  0.86284167
   3.83130979  5.83196573  0.85600479
   7.88242681  2.06346482  2.84612068
   9.16289403  8.80794326  2.87612304
   2.42144708  3.54262184  7.11801115
   2.32869997  3.51837592  0.86299137
  10.44687620  1.98709023  2.84008810
  13.08015720  5.02862111  4.92689116
   3.77992122  1.07352384  7.04987973
   9.11636234  5.80844539  7.07007403
   3.77121995  1.06783187  0.90414915
   9.18715339  5.77315714  0.99285907
   5.17420286  3.52547522  0.87003394
  11.72362308  8.75175804  2.92245229
  11.76521306  7.32307218  4.84114715
  12.97799537  6.50322193  2.85233561
   9.13170631  4.24464793  2.81403934
   7.84082150  8.07020973  6.98911306
   7.89763048  8.01872375  0.91379463
  10.49037833  6.60126203  2.83869239
   2.54636042  0.25328046  5.00715111
   7.83460323  3.52100880  0.79067188
   5.12642169  1.88461893  2.93503107
   5.21667036  6.50564171  2.92064609
   7.78285419  0.46757319  4.84922766
   9.14132700  1.19373713  6.96445700
  10.39654712  8.05931108  6.96588500
   9.15068307  1.13558928  0.78975929
  10.46124387  8.03092093  0.81477030
   5.10609115  5.00732347  4.92272485
  11.72451460  2.74640359  4.88006674
  14.43470298  8.90065509  2.85261421
   9.17162027  2.67730030  4.91843837
   6.43125380  2.69800961  4.85908059
  11.76876646  4.21925362  2.83668457
   2.46431279  1.90348482  2.84560726
  11.75684446  5.74003023  0.91294740
   6.52258279  5.80409234  0.95832694
   7.91411848  6.57791728  2.85270146
   6.48211261  4.16783809  2.79145838
  10.47855222  3.50493060  7.03972547
  10.44538833  3.47942085  0.90064720
  10.47001811  0.49037882  4.87884395
   9.13056487  7.35215612  4.94665795
   6.54106736  7.36468985  4.95056361
   5.08166545  0.27153855  4.89608981
   5.10099927  5.00660252 10.30483790
 


--------------------------------------------------------------------------------------------------------


 k-point  1 :   0.0000 0.0000 0.0000  plane waves:   63475
 k-point  2 :   0.5000-0.0000 0.0000  plane waves:   63428
 k-point  3 :   0.0000 0.5000 0.0000  plane waves:   63428
 k-point  4 :   0.5000 0.5000 0.0000  plane waves:   63428

 maximum and minimum number of plane-waves per node :     15884    15811

 maximum number of plane-waves:     63475
 maximum index in each direction: 
   IXMAX=   20   IYMAX=   20   IZMAX=   42
   IXMIN=  -20   IYMIN=  -20   IZMIN=  -42


 real space projection operators:
  total allocation   :      76347.37 KBytes
  max/ min on nodes  :      19104.31      19065.02


 parallel 3D FFT for wavefunctions:
    minimum data exchange during FFTs selected (reduces bandwidth)
 parallel 3D FFT for charge:
    minimum data exchange during FFTs selected (reduces bandwidth)


 total amount of memory used by VASP MPI-rank0   231983. kBytes
=======================================================================

   base      :      30000. kBytes
   nonlr-proj:      34033. kBytes
   fftplans  :      16133. kBytes
   grid      :      49182. kBytes
   one-center:        653. kBytes
   wavefun   :     101982. kBytes
 
     INWAV:  cpu time    0.0000: real time    0.0000
 Broyden mixing: mesh for mixing (old mesh)
   NGX = 41   NGY = 41   NGZ = 85
  (NGX  =168   NGY  =168   NGZ  =336)
  gives a total of 142885 points

 initial charge density was supplied:
 charge density of overlapping atoms calculated
 number of electron     778.0000000 magnetization     231.0000000
 keeping initial charge density in first step


--------------------------------------------------------------------------------------------------------


 Maximum index for non-local projection operator         1866
 Maximum index for augmentation-charges         1444 (set IRDMAX)


--------------------------------------------------------------------------------------------------------


 First call to EWALD:  gamma=   0.137
 Maximum number of real-space cells 4x 4x 2
 Maximum number of reciprocal cells 2x 2x 4

    FEWALD:  cpu time    0.0056: real time    0.0061


--------------------------------------- Iteration      1(   1)  ---------------------------------------


    POTLOK:  cpu time    0.4239: real time    0.4611
    SETDIJ:  cpu time    0.0369: real time    0.0376
     EDDAV:  cpu time   62.7905: real time   62.9874
       DOS:  cpu time    0.0025: real time    0.0217
    --------------------------------------------
      LOOP:  cpu time   63.2539: real time   63.5079

 eigenvalue-minimisations  :  9408
 total energy-change (2. order) : 0.7829829E+04  (-0.3294643E+05)
 number of electron     778.0000000 magnetization     231.0000000
 augmentation part      778.0000000 magnetization     231.0000000

 Free energy of the ion-electron system (eV)
  ---------------------------------------------------
  alpha Z        PSCENC =      2197.15539535
  Ewald energy   TEWEN  =    222782.92666723
  -Hartree energ DENC   =   -294924.30306775
  -exchange      EXHF   =         0.00000000
  -V(xc)+E(xc)   XCENC  =      1384.76592380
  PAW double counting   =     64136.80006862   -66038.70876209
  entropy T*S    EENTRO =         0.00431236
  eigenvalues    EBANDS =      8072.53373622
  atomic energy  EATOM  =     70218.65458108
  Solvation  Ediel_sol  =         0.00000000
  ---------------------------------------------------
  free energy    TOTEN  =      7829.82885482 eV

  energy without entropy =     7829.82454246  energy(sigma->0) =     7829.82741736


--------------------------------------------------------------------------------------------------------




--------------------------------------- Iteration      1(   2)  ---------------------------------------


     EDDAV:  cpu time   62.7801: real time   63.0584
       DOS:  cpu time    0.0029: real time    0.0039
    --------------------------------------------
      LOOP:  cpu time   62.7830: real time   63.0623

 eigenvalue-minimisations  :  9408
 total energy-change (2. order) :-0.6998962E+04  (-0.6261052E+04)
 number of electron     778.0000000 magnetization     231.0000000
 augmentation part      778.0000000 magnetization     231.0000000

 Free energy of the ion-electron system (eV)
  ---------------------------------------------------
  alpha Z        PSCENC =      2197.15539535
  Ewald energy   TEWEN  =    222782.92666723
  -Hartree energ DENC   =   -294924.30306775
  -exchange      EXHF   =         0.00000000
  -V(xc)+E(xc)   XCENC  =      1384.76592380
  PAW double counting   =     64136.80006862   -66038.70876209
  entropy T*S    EENTRO =         0.00462948
  eigenvalues    EBANDS =      1073.57126912
  atomic energy  EATOM  =     70218.65458108
  Solvation  Ediel_sol  =         0.00000000
  ---------------------------------------------------
  free energy    TOTEN  =       830.86670484 eV

  energy without entropy =      830.86207536  energy(sigma->0) =      830.86516168


--------------------------------------------------------------------------------------------------------




--------------------------------------- Iteration      1(   3)  ---------------------------------------


     EDDAV:  cpu time   62.6276: real time   62.8664
       DOS:  cpu time    0.0028: real time    0.0087
    --------------------------------------------
      LOOP:  cpu time   62.6304: real time   62.8751

 eigenvalue-minimisations  :  9408
 total energy-change (2. order) :-0.1206519E+04  (-0.9768156E+03)
 number of electron     778.0000000 magnetization     231.0000000
 augmentation part      778.0000000 magnetization     231.0000000

 Free energy of the ion-electron system (eV)
  ---------------------------------------------------
  alpha Z        PSCENC =      2197.15539535
  Ewald energy   TEWEN  =    222782.92666723
  -Hartree energ DENC   =   -294924.30306775
  -exchange      EXHF   =         0.00000000
  -V(xc)+E(xc)   XCENC  =      1384.76592380
  PAW double counting   =     64136.80006862   -66038.70876209
  entropy T*S    EENTRO =        -0.00387705
  eigenvalues    EBANDS =      -132.93919971
  atomic energy  EATOM  =     70218.65458108
  Solvation  Ediel_sol  =         0.00000000
  ---------------------------------------------------
  free energy    TOTEN  =      -375.65227052 eV

  energy without entropy =     -375.64839348  energy(sigma->0) =     -375.65097817


--------------------------------------------------------------------------------------------------------




--------------------------------------- Iteration      1(   4)  ---------------------------------------


     EDDAV:  cpu time   74.6135: real time   74.8605
       DOS:  cpu time    0.0031: real time    0.0040
    --------------------------------------------
      LOOP:  cpu time   74.6166: real time   74.8645

 eigenvalue-minimisations  : 11760
 total energy-change (2. order) :-0.1170961E+03  (-0.1074272E+03)
 number of electron     778.0000000 magnetization     231.0000000
 augmentation part      778.0000000 magnetization     231.0000000

 Free energy of the ion-electron system (eV)
  ---------------------------------------------------
  alpha Z        PSCENC =      2197.15539535
  Ewald energy   TEWEN  =    222782.92666723
  -Hartree energ DENC   =   -294924.30306775
  -exchange      EXHF   =         0.00000000
  -V(xc)+E(xc)   XCENC  =      1384.76592380
  PAW double counting   =     64136.80006862   -66038.70876209
  entropy T*S    EENTRO =        -0.00879293
  eigenvalues    EBANDS =      -250.03036595
  atomic energy  EATOM  =     70218.65458108
  Solvation  Ediel_sol  =         0.00000000
  ---------------------------------------------------
  free energy    TOTEN  =      -492.74835265 eV

  energy without entropy =     -492.73955971  energy(sigma->0) =     -492.74542167


--------------------------------------------------------------------------------------------------------




--------------------------------------- Iteration      1(   5)  ---------------------------------------


     EDDAV:  cpu time   71.1358: real time   71.4029
       DOS:  cpu time    0.0031: real time    0.0041
    CHARGE:  cpu time    3.8497: real time    3.8827
    MIXING:  cpu time    0.0106: real time    0.0108
    --------------------------------------------
      LOOP:  cpu time   74.9992: real time   75.3006

 eigenvalue-minimisations  : 11112
 total energy-change (2. order) :-0.4394048E+01  (-0.4359394E+01)
 number of electron     778.0000011 magnetization     216.5311757
 augmentation part      335.0975302 magnetization     184.0949439

 Broyden mixing:
  rms(total) = 0.11741E+02    rms(broyden)= 0.11741E+02
  rms(prec ) = 0.12056E+02
  weight for this iteration     100.00

 Free energy of the ion-electron system (eV)
  ---------------------------------------------------
  alpha Z        PSCENC =      2197.15539535
  Ewald energy   TEWEN  =    222782.92666723
  -Hartree energ DENC   =   -294924.30306775
  -exchange      EXHF   =         0.00000000
  -V(xc)+E(xc)   XCENC  =      1384.76592380
  PAW double counting   =     64136.80006862   -66038.70876209
  entropy T*S    EENTRO =        -0.00637416
  eigenvalues    EBANDS =      -254.42683225
  atomic energy  EATOM  =     70218.65458108
  Solvation  Ediel_sol  =         0.00000000
  ---------------------------------------------------
  free energy    TOTEN  =      -497.14240017 eV

  energy without entropy =     -497.13602601  energy(sigma->0) =     -497.14027545


--------------------------------------------------------------------------------------------------------




--------------------------------------- Iteration      1(   6)  ---------------------------------------


    POTLOK:  cpu time    0.3883: real time    0.4115
    SETDIJ:  cpu time    0.0347: real time    0.0348
    EDDIAG:  cpu time   11.2102: real time   11.2429
  RMM-DIIS:  cpu time   36.9317: real time   38.3170
    ORTHCH:  cpu time    1.3261: real time    1.3298
       DOS:  cpu time    0.0025: real time    0.0025
    CHARGE:  cpu time    3.7070: real time    3.7169
    MIXING:  cpu time    0.0112: real time    0.0118
    --------------------------------------------
      LOOP:  cpu time   53.6118: real time   55.0671

 eigenvalue-minimisations  :  9546
 total energy-change (2. order) :-0.1604757E+03  (-0.9248880E+02)
 number of electron     778.0000015 magnetization     212.4230427
 augmentation part      406.2071849 magnetization     179.8150668

 Broyden mixing:
  rms(total) = 0.19613E+02    rms(broyden)= 0.19613E+02
  rms(prec ) = 0.25391E+02
  weight for this iteration     100.00

 eigenvalues of (default mixing * dielectric matrix)
  average eigenvalue GAMMA=   0.2257
  0.2257

 Free energy of the ion-electron system (eV)
  ---------------------------------------------------
  alpha Z        PSCENC =      2197.15539535
  Ewald energy   TEWEN  =    222782.92666723
  -Hartree energ DENC   =   -293317.41360189
  -exchange      EXHF   =         0.00000000
  -V(xc)+E(xc)   XCENC  =      1338.93142612
  PAW double counting   =     69093.12693826   -70785.78339141
  entropy T*S    EENTRO =         0.01052194
  eigenvalues    EBANDS =     -2185.22661562
  atomic energy  EATOM  =     70218.65458108
  Solvation  Ediel_sol  =         0.00000000
  ---------------------------------------------------
  free energy    TOTEN  =      -657.61807895 eV

  energy without entropy =     -657.62860089  energy(sigma->0) =     -657.62158626


--------------------------------------------------------------------------------------------------------




--------------------------------------- Iteration      1(   7)  ---------------------------------------


    POTLOK:  cpu time    0.3890: real time    0.4597
    SETDIJ:  cpu time    0.0349: real time    0.0351
    EDDIAG:  cpu time   11.2297: real time   11.3089
  RMM-DIIS:  cpu time   37.1080: real time   37.2576
    ORTHCH:  cpu time    1.3141: real time    1.3178
       DOS:  cpu time    0.0026: real time    0.0026
    CHARGE:  cpu time    3.7480: real time    3.7585
    MIXING:  cpu time    0.0114: real time    0.0116
    --------------------------------------------
      LOOP:  cpu time   53.8378: real time   54.1518

 eigenvalue-minimisations  :  9419
 total energy-change (2. order) : 0.1190761E+03  (-0.1658015E+02)
 number of electron     778.0000016 magnetization     207.7915178
 augmentation part      366.2831279 magnetization     165.2476942

 Broyden mixing:
  rms(total) = 0.15628E+02    rms(broyden)= 0.15628E+02
  rms(prec ) = 0.21063E+02
  weight for this iteration     100.00

 eigenvalues of (default mixing * dielectric matrix)
  average eigenvalue GAMMA=   0.2682
  0.3694  0.1669

 Free energy of the ion-electron system (eV)
  ---------------------------------------------------
  alpha Z        PSCENC =      2197.15539535
  Ewald energy   TEWEN  =    222782.92666723
  -Hartree energ DENC   =   -294001.75048615
  -exchange      EXHF   =         0.00000000
  -V(xc)+E(xc)   XCENC  =      1359.27655479
  PAW double counting   =     70149.36667019   -72002.52119469
  entropy T*S    EENTRO =        -0.00306372
  eigenvalues    EBANDS =     -1241.64707059
  atomic energy  EATOM  =     70218.65458108
  Solvation  Ediel_sol  =         0.00000000
  ---------------------------------------------------
  free energy    TOTEN  =      -538.54194653 eV

  energy without entropy =     -538.53888281  energy(sigma->0) =     -538.54092529


--------------------------------------------------------------------------------------------------------




--------------------------------------- Iteration      1(   8)  ---------------------------------------


    POTLOK:  cpu time    0.3802: real time    0.3893
    SETDIJ:  cpu time    0.0347: real time    0.0348
    EDDIAG:  cpu time   11.1500: real time   11.2237
  RMM-DIIS:  cpu time   37.1732: real time   37.3242
    ORTHCH:  cpu time    1.3242: real time    1.3278
       DOS:  cpu time    0.0027: real time    0.0027
    CHARGE:  cpu time    3.6677: real time    3.6775
    MIXING:  cpu time    0.0117: real time    0.0122
    --------------------------------------------
      LOOP:  cpu time   53.7444: real time   53.9963

 eigenvalue-minimisations  :  9429
 total energy-change (2. order) : 0.6044468E+02  (-0.1031371E+02)
 number of electron     778.0000013 magnetization     200.5588925
 augmentation part      371.7080257 magnetization     163.1116451

 Broyden mixing:
  rms(total) = 0.16139E+02    rms(broyden)= 0.16139E+02
  rms(prec ) = 0.18899E+02
  weight for this iteration     100.00

 eigenvalues of (default mixing * dielectric matrix)
  average eigenvalue GAMMA=   0.3069
  0.5788  0.2608  0.0810

 Free energy of the ion-electron system (eV)
  ---------------------------------------------------
  alpha Z        PSCENC =      2197.15539535
  Ewald energy   TEWEN  =    222782.92666723
  -Hartree energ DENC   =   -294265.97074765
  -exchange      EXHF   =         0.00000000
  -V(xc)+E(xc)   XCENC  =      1364.70105225
  PAW double counting   =     71343.67095827   -73264.99000950
  entropy T*S    EENTRO =         0.00131295
  eigenvalues    EBANDS =      -854.24647513
  atomic energy  EATOM  =     70218.65458108
  Solvation  Ediel_sol  =         0.00000000
  ---------------------------------------------------
  free energy    TOTEN  =      -478.09726515 eV

  energy without entropy =     -478.09857811  energy(sigma->0) =     -478.09770281


--------------------------------------------------------------------------------------------------------




--------------------------------------- Iteration      1(   9)  ---------------------------------------


    POTLOK:  cpu time    0.3993: real time    0.6980
    SETDIJ:  cpu time    0.0345: real time    0.0346
    EDDIAG:  cpu time   11.1471: real time   11.1801
  RMM-DIIS:  cpu time   37.3020: real time   37.4036
    ORTHCH:  cpu time    1.3236: real time    1.3310
       DOS:  cpu time    0.0027: real time    0.0027
    CHARGE:  cpu time    3.7314: real time    3.7465
    MIXING:  cpu time    0.0121: real time    0.0123
    --------------------------------------------
      LOOP:  cpu time   53.9525: real time   54.4047

 eigenvalue-minimisations  :  9444
 total energy-change (2. order) : 0.1003885E+03  (-0.1503061E+02)
 number of electron     778.0000010 magnetization     192.3676706
 augmentation part      373.5253982 magnetization     147.4554558

 Broyden mixing:
  rms(total) = 0.12595E+02    rms(broyden)= 0.12595E+02
  rms(prec ) = 0.14330E+02
  weight for this iteration     100.00

 eigenvalues of (default mixing * dielectric matrix)
  average eigenvalue GAMMA=   0.3659
  0.8866  0.3444  0.1393  0.0932

 Free energy of the ion-electron system (eV)
  ---------------------------------------------------
  alpha Z        PSCENC =      2197.15539535
  Ewald energy   TEWEN  =    222782.92666723
  -Hartree energ DENC   =   -293996.21813998
  -exchange      EXHF   =         0.00000000
  -V(xc)+E(xc)   XCENC  =      1381.43117397
  PAW double counting   =     72802.98156984   -74777.15950271
  entropy T*S    EENTRO =        -0.00674143
  eigenvalues    EBANDS =      -987.47375789
  atomic energy  EATOM  =     70218.65458108
  Solvation  Ediel_sol  =         0.00000000
  ---------------------------------------------------
  free energy    TOTEN  =      -377.70875455 eV

[...]
   -.341E+01 0.242E+02 -.290E+04   0.361E+01 -.242E+02 0.290E+04   -.179E+00 -.812E-01 0.874E+00   -.284E-02 0.181E-01 -.144E-02
   -.792E+01 0.820E+01 -.289E+04   0.630E+01 -.847E+01 0.288E+04   0.164E+01 0.292E+00 0.160E+01   -.871E-02 -.527E-02 0.225E-01
   0.234E+01 0.864E+00 -.288E+04   -.232E+01 -.109E+01 0.288E+04   0.556E-02 0.179E+00 0.106E+01   0.324E-02 0.896E-02 0.120E-02
   -.155E+02 -.617E+01 -.292E+04   0.157E+02 0.573E+01 0.292E+04   -.179E+00 0.442E+00 0.146E+01   -.916E-02 -.104E-01 0.143E-01
   0.107E+02 -.192E+02 -.290E+04   -.110E+02 0.193E+02 0.290E+04   0.325E+00 -.119E+00 0.189E+01   0.563E-02 -.488E-02 0.140E-01
   -.220E+02 0.147E+02 -.291E+04   0.217E+02 -.145E+02 0.291E+04   0.202E+00 -.216E+00 0.114E+01   -.180E-02 -.957E-02 0.253E-01
   -.788E+01 0.239E+01 -.287E+04   0.830E+01 -.205E+01 0.287E+04   -.368E+00 -.307E+00 0.166E+01   -.869E-02 -.104E-01 0.747E-02
   -.850E+01 -.425E+01 -.291E+04   0.875E+01 0.405E+01 0.291E+04   -.280E+00 0.147E+00 0.786E+00   -.330E-02 0.131E-01 0.219E-01
   -.145E+02 0.310E+00 -.288E+04   0.145E+02 -.476E+00 0.288E+04   0.543E-01 0.148E+00 0.130E+01   -.323E-02 0.713E-02 0.212E-01
   0.289E+01 -.248E+02 -.288E+04   -.319E+01 0.241E+02 0.288E+04   0.305E+00 0.699E+00 0.105E+01   0.839E-02 -.934E-02 -.435E-02
   0.286E+02 0.129E+02 -.289E+04   -.277E+02 -.125E+02 0.289E+04   -.890E+00 -.387E+00 0.164E+01   0.970E-02 0.343E-02 0.107E-01
   0.212E+02 -.995E+01 -.290E+04   -.208E+02 0.102E+02 0.290E+04   -.342E+00 -.187E+00 0.142E+01   -.125E-01 -.114E-03 0.173E-01
   -.965E+00 -.117E+02 -.287E+04   0.601E+00 0.120E+02 0.287E+04   0.357E+00 -.351E+00 0.614E+00   0.138E-02 0.688E-02 0.280E-02
   0.251E+02 -.612E+01 -.290E+04   -.250E+02 0.635E+01 0.290E+04   -.960E-01 -.240E+00 0.109E+01   -.311E-02 -.326E-02 0.130E-01
   0.700E+02 -.675E+02 -.152E+04   -.689E+02 0.678E+02 0.152E+04   -.101E+01 -.318E+00 0.152E+01   -.473E-02 -.251E-02 0.122E-01
   0.280E+02 -.439E+02 -.150E+04   -.292E+02 0.436E+02 0.150E+04   0.110E+01 0.391E+00 0.247E+01   0.567E-02 -.365E-02 0.237E-01
   0.377E+02 0.173E+02 0.299E+04   -.378E+02 -.175E+02 -.299E+04   0.371E-01 0.356E+00 -.255E+01   -.123E-02 0.609E-02 -.130E-01
   0.245E+02 -.312E+01 0.159E+04   -.254E+02 0.382E+01 -.160E+04   0.986E+00 -.676E+00 0.900E+00   -.365E-02 0.835E-02 -.112E-01
   -.681E+02 0.117E+02 -.147E+04   0.690E+02 -.110E+02 0.146E+04   -.874E+00 -.631E+00 0.270E+01   -.667E-02 -.223E-01 0.170E-01
   -.543E+02 0.531E+02 0.305E+04   0.550E+02 -.522E+02 -.305E+04   -.718E+00 -.978E+00 -.220E+01   -.491E-02 0.104E-01 -.539E-02
   0.521E+01 -.537E+02 0.157E+04   -.494E+01 0.532E+02 -.157E+04   -.314E+00 0.429E+00 -.745E+00   -.704E-02 0.315E-02 0.186E-01
   -.352E+00 0.858E+01 -.288E+04   0.590E+00 -.880E+01 0.288E+04   -.271E+00 0.218E+00 0.691E-01   0.113E-01 -.117E-01 0.650E-02
   -.159E+02 -.396E+01 0.124E+02   0.159E+02 0.418E+01 -.137E+02   -.821E-01 -.297E+00 0.128E+01   0.312E-03 0.783E-03 -.612E-04
   -.122E+02 0.823E+01 -.291E+04   0.117E+02 -.837E+01 0.291E+04   0.488E+00 0.139E+00 0.134E+01   -.147E-01 0.173E-01 0.208E-01
   0.156E+02 0.588E+02 0.126E+02   -.166E+02 -.601E+02 -.129E+02   0.104E+01 0.119E+01 0.290E+00   0.168E-01 0.143E-01 0.177E-02
   -.656E+02 0.803E+01 -.147E+04   0.660E+02 -.924E+01 0.147E+04   -.412E+00 0.127E+01 0.285E+01   -.520E-02 0.110E-01 0.246E-01
   0.328E+02 0.287E+02 -.153E+04   -.326E+02 -.280E+02 0.153E+04   -.231E+00 -.649E+00 0.228E+01   0.490E-02 0.562E-02 0.185E-01
   0.138E+02 -.650E+02 -.705E+02   -.149E+02 0.644E+02 0.708E+02   0.109E+01 0.556E+00 -.228E+00   0.299E-02 -.156E-01 -.104E-02
   -.218E+02 -.203E+02 0.430E+01   0.226E+02 0.210E+02 -.495E+01   -.796E+00 -.721E+00 0.673E+00   -.143E-01 -.837E-02 -.666E-02
   0.144E+02 0.153E+02 -.124E+04   -.145E+02 -.157E+02 0.124E+04   0.897E-01 0.466E+00 0.457E+00   0.129E-01 0.120E-01 0.186E-01
   -.636E+02 -.544E+01 0.241E+04   0.640E+02 0.416E+01 -.240E+04   -.379E+00 0.132E+01 -.277E+01   0.388E-02 -.131E-01 -.328E-02
   0.327E+02 -.163E+02 0.244E+04   -.325E+02 0.148E+02 -.244E+04   -.662E-01 0.156E+01 -.245E+01   -.733E-02 -.374E-02 -.187E-02
   0.171E+02 0.618E+01 0.244E+04   -.172E+02 -.548E+01 -.244E+04   0.161E+00 -.804E+00 -.297E+01   -.524E-02 -.343E-03 0.516E-03
   0.158E+02 0.539E+02 0.128E+04   -.149E+02 -.532E+02 -.128E+04   -.934E+00 -.744E+00 -.711E-01   0.835E-02 0.102E-01 -.497E-03
   0.318E+02 -.611E+02 0.126E+04   -.317E+02 0.608E+02 -.126E+04   -.118E+00 0.246E+00 -.423E+00   -.755E-02 0.379E-02 0.827E-02
   -.581E+02 -.241E+02 -.122E+04   0.583E+02 0.243E+02 0.122E+04   -.178E+00 -.235E+00 0.696E+00   -.332E-02 -.145E-01 0.190E-01
   -.111E+03 0.207E+02 0.245E+04   0.110E+03 -.205E+02 -.245E+04   0.584E+00 -.190E+00 -.280E+01   -.514E-02 0.776E-02 -.380E-02
   -.351E+02 0.484E+02 0.128E+04   0.343E+02 -.479E+02 -.128E+04   0.840E+00 -.532E+00 -.356E+00   -.461E-03 0.407E-02 0.210E-02
   -.501E+02 0.234E+01 -.418E+02   0.498E+02 -.195E+01 0.418E+02   0.228E+00 -.410E+00 -.874E-01   0.354E-02 0.101E-02 -.130E-01
   0.152E+02 -.817E+02 -.123E+04   -.153E+02 0.816E+02 0.123E+04   0.109E+00 0.201E+00 0.107E+01   -.370E-02 -.152E-01 0.154E-01
   0.127E+02 0.296E+02 -.122E+04   -.128E+02 -.296E+02 0.122E+04   0.148E+00 -.452E-01 0.306E+00   -.933E-02 0.639E-02 0.179E-01
   0.570E+01 -.629E+02 0.242E+04   -.644E+01 0.619E+02 -.242E+04   0.788E+00 0.984E+00 -.287E+01   0.161E-02 0.847E-02 -.614E-02
   0.866E+01 -.149E+02 0.272E+04   -.876E+01 0.152E+02 -.272E+04   0.103E+00 -.243E+00 -.239E+01   0.693E-02 -.174E-01 0.118E-02
   0.119E+03 0.345E+02 0.276E+04   -.119E+03 -.337E+02 -.276E+04   0.401E+00 -.859E+00 -.273E+01   -.150E-02 0.458E-02 -.579E-02
   -.421E+02 -.391E+02 0.140E+04   0.416E+02 0.380E+02 -.140E+04   0.464E+00 0.113E+01 -.398E+00   0.279E-02 -.767E-03 -.939E-02
   -.636E+02 0.601E+02 0.217E+02   0.637E+02 -.599E+02 -.224E+02   -.534E-01 -.205E+00 0.721E+00   0.311E-02 -.239E-03 0.315E-02
   -.982E+02 0.163E+02 0.139E+04   0.977E+02 -.158E+02 -.139E+04   0.472E+00 -.508E+00 -.160E+00   0.754E-02 -.122E-01 -.213E-01
   -.151E+02 0.920E+01 0.137E+04   0.152E+02 -.947E+01 -.137E+04   -.146E+00 0.308E+00 -.148E+00   0.217E-02 0.410E-02 -.981E-02
   0.468E+02 0.407E+01 -.138E+04   -.466E+02 -.429E+01 0.138E+04   -.247E+00 0.252E+00 0.140E+01   -.472E-02 0.131E-01 0.152E-01
   0.567E+02 -.800E+02 0.273E+04   -.564E+02 0.798E+02 -.273E+04   -.385E+00 0.224E+00 -.250E+01   0.528E-03 -.591E-02 -.134E-03
   -.131E+02 0.399E+01 0.136E+04   0.132E+02 -.373E+01 -.136E+04   -.138E+00 -.269E+00 -.466E+00   -.402E-02 -.212E-01 -.198E-01
   0.233E+02 -.692E+02 -.147E+02   -.225E+02 0.687E+02 0.150E+02   -.794E+00 0.589E+00 -.411E+00   -.818E-02 -.394E-02 0.147E-01
   0.462E+02 0.348E+02 0.340E+04   -.462E+02 -.340E+02 -.340E+04   -.145E+00 -.855E+00 -.389E+01   0.107E-01 0.122E-01 -.136E-02
   0.594E+02 -.162E+01 0.173E+04   -.596E+02 0.950E+00 -.173E+04   0.123E+00 0.751E+00 -.234E+00   -.660E-02 0.616E-02 -.774E-03
   0.104E+03 -.276E+02 0.169E+04   -.104E+03 0.276E+02 -.169E+04   -.135E+00 -.369E-01 -.319E-01   -.219E-02 0.224E-03 -.443E-02
   0.193E+02 0.672E+02 0.956E+02   -.199E+02 -.671E+02 -.962E+02   0.532E+00 -.271E+00 0.534E+00   0.196E-01 0.108E-01 0.189E-01
   0.141E+02 0.543E+02 -.168E+04   -.137E+02 -.539E+02 0.168E+04   -.446E+00 -.407E+00 0.135E+01   0.908E-02 -.881E-02 0.238E-01
   -.390E+02 0.296E+02 -.166E+04   0.381E+02 -.293E+02 0.166E+04   0.960E+00 -.264E+00 0.228E+01   -.160E-01 0.189E-01 0.392E-01
   -.257E+01 0.992E+02 0.335E+04   0.267E+01 -.995E+02 -.335E+04   -.147E+00 0.431E+00 -.304E+01   0.605E-02 0.518E-02 -.668E-02
   -.192E+02 -.829E+02 0.338E+04   0.182E+02 0.826E+02 -.338E+04   0.975E+00 0.311E+00 -.279E+01   0.546E-02 -.124E-01 -.129E-01
   0.107E+03 0.788E+01 -.614E+02   -.107E+03 -.766E+01 0.616E+02   -.332E-01 -.304E+00 -.345E+00   0.148E-01 0.208E-02 0.391E-02
   -.115E+03 -.349E+02 0.377E+02   0.115E+03 0.347E+02 -.377E+02   0.284E+00 0.162E+00 -.405E-01   -.121E-01 -.224E-01 -.512E-02
   -.111E+02 0.578E+02 0.179E+04   0.108E+02 -.572E+02 -.179E+04   0.344E+00 -.637E+00 -.746E+00   0.145E-01 -.408E-02 0.370E-02
   0.149E+02 -.720E+02 0.475E+02   -.145E+02 0.709E+02 -.483E+02   -.375E+00 0.128E+01 0.606E+00   0.289E-02 -.568E-02 0.614E-02
   0.552E+02 -.303E+02 0.924E+01   -.545E+02 0.299E+02 -.944E+01   -.691E+00 0.347E+00 0.247E+00   0.571E-02 0.582E-02 0.121E-01
   -.769E+02 0.538E+01 0.153E+04   0.765E+02 -.527E+01 -.153E+04   0.431E+00 -.797E-01 -.186E+00   -.734E-02 0.551E-02 -.196E-01
   -.178E+02 0.152E+02 0.160E+04   0.182E+02 -.155E+02 -.160E+04   -.380E+00 0.262E+00 -.467E+00   -.362E-02 -.109E-02 0.202E-02
   -.104E+03 -.235E+01 0.305E+04   0.104E+03 0.242E+01 -.305E+04   -.556E+00 -.379E-01 -.148E+01   -.173E-03 -.844E-02 0.412E-03
   0.741E+02 -.369E+02 0.305E+04   -.745E+02 0.374E+02 -.305E+04   0.380E+00 -.656E+00 -.995E+00   -.153E-03 -.883E-02 -.127E-02
   0.212E+02 -.333E+02 0.153E+04   -.209E+02 0.331E+02 -.153E+04   -.379E+00 0.207E+00 -.653E-01   0.167E-03 -.163E-01 0.347E-02
   0.584E+02 0.621E+01 0.159E+04   -.580E+02 -.626E+01 -.159E+04   -.497E+00 0.750E-01 -.132E+00   0.821E-02 0.854E-02 -.313E-02
   -.368E+02 -.674E+02 -.153E+04   0.367E+02 0.675E+02 0.153E+04   0.130E+00 -.101E+00 0.674E+00   -.109E-01 -.154E-01 0.207E-01
   -.500E+02 0.301E+02 0.303E+04   0.504E+02 -.295E+02 -.303E+04   -.396E+00 -.593E+00 -.192E+01   -.145E-02 0.131E-01 0.160E-02
   -.479E+02 0.787E+02 0.779E+02   0.483E+02 -.784E+02 -.780E+02   -.372E+00 -.358E+00 0.236E-01   0.771E-02 -.237E-02 0.121E-01
   0.114E+01 0.588E+02 -.859E+01   -.121E+01 -.580E+02 0.850E+01   0.118E+00 -.856E+00 -.409E-01   -.246E-01 0.939E-02 0.101E-01
   0.550E+02 0.270E+01 -.320E+02   -.546E+02 -.205E+01 0.319E+02   -.393E+00 -.668E+00 -.825E-02   0.236E-02 0.143E-01 0.107E-01
   0.159E+02 -.572E+02 0.332E+02   -.163E+02 0.567E+02 -.333E+02   0.344E+00 0.466E+00 0.947E-01   -.184E-01 0.123E-01 0.187E-01
   0.168E+01 0.840E+00 -.342E+03   -.192E+01 -.910E+00 0.344E+03   0.281E+00 0.922E-01 -.165E+01   0.331E-03 -.122E-03 0.827E-03
 -----------------------------------------------------------------------------------------------
   -.311E+01 -.117E+01 -.357E+01   -.530E-12 0.526E-12 0.546E-11   0.314E+01 0.111E+01 0.307E+01   -.138E-01 0.391E-01 0.499E+00
 
 
 POSITION                                       TOTAL-FORCE (eV/Angst)
 -----------------------------------------------------------------------------------
     13.06711      8.11307      6.95868         0.012283      0.005743     -0.016265
      5.15305      8.13310      6.93550         0.012831     -0.012711      0.010376
      4.99812      3.51658      7.03082         0.002003      0.010968      0.001668
     14.44197      8.88473      9.27775         0.019335      0.004324      0.007320
      3.72855      4.25109      9.41812        -0.006209      0.000278     -0.022505
      6.45694      8.88198      9.24258         0.008006     -0.007628      0.001552
     11.76591      4.23563      9.34932        -0.001861      0.012787      0.008045
      9.10168      8.86437      9.22260        -0.000219     -0.001522      0.009052
     10.43450      1.94711      9.21685        -0.003600     -0.004243      0.004482
      2.45983      1.94733      9.26117         0.002225      0.002008      0.010284
     11.77406      8.86499      9.29170         0.003246     -0.001884      0.007087
     13.08610      6.56549      9.33286        -0.002073     -0.011885     -0.004544
      5.10499      1.90613      9.30274         0.001028      0.003908     -0.010311
      7.82037      6.58829      9.27025         0.006845      0.015702     -0.005373
      9.13665      4.26063      9.26305         0.003889     -0.010710     -0.012437
      5.10577      6.59696      9.37626        -0.000223     -0.002747      0.029921
      7.78144      1.93314      9.25427         0.008580      0.020227     -0.004460
      7.83371      3.46928      6.97350         0.006529     -0.006396      0.001839
      6.35919      1.15345      6.91202         0.006699      0.003669      0.000885
      6.49878      1.12701      0.91783        -0.031521      0.016577      0.002059
      3.73329      4.24365      2.82304         0.033105     -0.006611     -0.028095
      1.18531      1.25044      6.89910         0.009332     -0.000814      0.023981
      1.14169      1.20489      0.75465        -0.008429      0.007030     -0.007363
      6.49937      8.84078      2.91411        -0.004958     -0.012236      0.045785
      6.47985      4.24021      9.38713        -0.003829     -0.013715      0.008277
      7.76324      5.03719      4.81521         0.002120     -0.018190      0.003965
     10.42883      6.56219      9.29106         0.007902     -0.007574      0.004335
     14.40042      7.27516      4.85739        -0.014512      0.009591      0.005128
     11.78930      5.74283      7.00560         0.004133     -0.005381      0.007108
      6.46364      5.81691      6.99490        -0.015958     -0.003127      0.005514
      3.65082      2.58367      4.96080         0.003492     -0.000615      0.002472
     10.45827      5.06995      4.85986        -0.008773      0.004270      0.011594
      3.79077      5.81624      7.14718         0.021887     -0.012945     -0.001095
     13.07897      7.95618      0.95883        -0.007025     -0.002421      0.030716
      5.21380      7.98656      0.86284         0.003929      0.015205      0.004175
      3.83131      5.83197      0.85600         0.030697     -0.019803     -0.023842
      7.88243      2.06346      2.84612        -0.030190      0.008596      0.037485
      9.16289      8.80794      2.87612         0.013545      0.009269      0.001253
      2.41800      3.53393      7.12301         0.001458      0.003870     -0.005807
      2.32870      3.51838      0.86299         0.023001      0.006083     -0.046409
     10.44688      1.98709      2.84009        -0.005352     -0.003168      0.008791
     13.08369      5.02346      4.92514         0.001871      0.005226      0.007374
      3.77899      1.06815      7.05164         0.009944      0.007317      0.002255
      9.11514      5.80582      7.06531         0.003483     -0.005376      0.006042
      3.77122      1.06783      0.90415        -0.007629      0.021384     -0.011815
      9.18715      5.77316      0.99286        -0.009983      0.008862     -0.028013
      5.17420      3.52548      0.87003         0.026730      0.010086      0.031407
     11.72362      8.75176      2.92245        -0.005929      0.012098      0.026860
     11.76427      7.32312      4.84423         0.018632      0.000891      0.014728
     12.97800      6.50322      2.85234         0.004877     -0.005403     -0.022382
      9.13171      4.24465      2.81404        -0.014346     -0.002923     -0.012030
      7.83826      8.07345      6.98860        -0.002227     -0.000509     -0.001221
      7.89763      8.01872      0.91379        -0.007669      0.014750      0.003381
     10.49038      6.60126      2.83869        -0.009713     -0.012165     -0.006529
      2.54837      0.25569      5.00430        -0.001310     -0.018389     -0.003658
      7.83460      3.52101      0.79067        -0.020683      0.003186     -0.003516
      5.12642      1.88462      2.93503        -0.016954      0.004388     -0.000959
      5.21667      6.50564      2.92065         0.031077     -0.022837     -0.023695
      7.78442      0.46758      4.84543        -0.007303     -0.002667      0.010065
      9.13999      1.19406      6.95755        -0.015323     -0.000305      0.000190
     10.39490      8.05838      6.97172        -0.007483     -0.008895     -0.014082
      9.15068      1.13559      0.78976        -0.018842      0.000957      0.007233
     10.46124      8.03092      0.81477        -0.018190      0.017013      0.021046
      5.10842      5.00169      4.92800        -0.006233     -0.003961     -0.004046
     11.72856      2.74503      4.88023        -0.011327      0.003843     -0.009735
     14.43470      8.90066      2.85261        -0.004170     -0.006048      0.006563
      9.17117      2.67750      4.91988        -0.003906     -0.005290      0.007006
      6.42991      2.70328      4.86138         0.005809     -0.010343      0.003257
     11.76877      4.21925      2.83668        -0.012888     -0.026288     -0.037823
      2.46431      1.90348      2.84561         0.011052      0.029580      0.027203
     11.75684      5.74003      0.91295        -0.009023      0.016140     -0.018370
      6.52258      5.80409      0.95833         0.001521     -0.028965     -0.003656
      7.91412      6.57792      2.85270        -0.005564     -0.020538     -0.001694
      6.48211      4.16784      2.79146        -0.027945      0.003231     -0.004850
     10.47057      3.50079      7.04205         0.003890     -0.001060      0.001665
     10.44539      3.47942      0.90065        -0.001138     -0.008876     -0.030520
     10.46681      0.49027      4.87363         0.004946     -0.007151     -0.017243
      9.13470      7.35201      4.94737         0.001594     -0.006197     -0.005112
      6.54548      7.35740      4.94560        -0.019151      0.025318     -0.005191
      5.08235      0.26882      4.89558        -0.001296      0.004404     -0.000753
      5.24425      5.08420     10.38236         0.037431      0.021730     -0.016026
 -----------------------------------------------------------------------------------
    total drift:                                0.017114     -0.013003      0.001923


--------------------------------------------------------------------------------------------------------



  FREE ENERGIE OF THE ION-ELECTRON SYSTEM (eV)
  ---------------------------------------------------
  free  energy   TOTEN  =      -510.35299523 eV

  energy  without entropy=     -510.37971187  energy(sigma->0) =     -510.36190078
 
 d Force = 0.1408631E-02[ 0.614E-03, 0.220E-02]  d Energy = 0.1253916E-02 0.155E-03
 d Force = 0.1289641E+02[ 0.129E+02, 0.129E+02]  d Ewald  = 0.1289637E+02 0.413E-04


--------------------------------------------------------------------------------------------------------


    POTLOK:  cpu time    0.4215: real time    0.4245


--------------------------------------------------------------------------------------------------------


 Conjugate gradient step on ions:
 trial-energy change:   -0.001254  1 .order   -0.001409   -0.002203   -0.000614
  (g-gl).g = 0.198E-02      g.g   = 0.182E-02  gl.gl    = 0.194E-02
 g(Force)  = 0.182E-02   g(Stress)= 0.000E+00 ortho     =-0.148E-03
 gamma     =   1.02479
 trial     =   1.32412
 opt step  =   1.83534  (harmonic =   1.83534) maximal distance =0.01992484
 next E    =  -510.353268   (d E  =  -0.00153)


--------------------------------------------------------------------------------------------------------


  
 reached required accuracy - stopping structural energy minimisation
     LOOP+:  cpu time  756.7850: real time  761.5034
    4ORBIT:  cpu time    0.0000: real time    0.0000

 total amount of memory used by VASP MPI-rank0   231983. kBytes
=======================================================================

   base      :      30000. kBytes
   nonlr-proj:      34033. kBytes
   fftplans  :      16133. kBytes
   grid      :      49182. kBytes
   one-center:        653. kBytes
   wavefun   :     101982. kBytes
 
  
  
 General timing and accounting informations for this job:
 ========================================================
  
                  Total CPU time used (sec):    16513.918
                            User time (sec):    16053.189
                          System time (sec):      460.729
                         Elapsed time (sec):    16634.612
  
                   Maximum memory used (kb):      388576.
                   Average memory used (kb):           0.
  
                          Minor page faults:     16727018
                          Major page faults:          454
                 Voluntary context switches:        15576
