 vasp.5.4.4.18Apr17-6-g9f103f2a35 (build Oct 25 2019 11:13:22) complex          
  
 executed on             LinuxIFC date 2022.02.13  08:49:24
 running on   48 total cores
 distrk:  each k-point on   48 cores,    1 groups
 distr:  one band on NCORES_PER_BAND=   1 cores,   48 groups


--------------------------------------------------------------------------------------------------------


 INCAR:
 POTCAR:    PAW_PBE Pt 04Feb2005                  
 POTCAR:    PAW_PBE Fe 06Sep2000                  
 POTCAR:    PAW_PBE Co 02Aug2007                  
 POTCAR:    PAW_PBE Ni 02Aug2007                  
 POTCAR:    PAW_PBE H 15Jun2001                   

 ----------------------------------------------------------------------------- 
|                                                                             |
|           W    W    AA    RRRRR   N    N  II  N    N   GGGG   !!!           |
|           W    W   A  A   R    R  NN   N  II  NN   N  G    G  !!!           |
|           W    W  A    A  R    R  N N  N  II  N N  N  G       !!!           |
|           W WW W  AAAAAA  RRRRR   N  N N  II  N  N N  G  GGG   !            |
|           WW  WW  A    A  R   R   N   NN  II  N   NN  G    G                |
|           W    W  A    A  R    R  N    N  II  N    N   GGGG   !!!           |
|                                                                             |
|      For optimal performance we recommend to set                            |
|        NCORE= 4 - approx SQRT( number of cores)                             |
|      NCORE specifies how many cores store one orbital (NPAR=cpu/NCORE).     |
|      This setting can  greatly improve the performance of VASP for DFT.     |
|      The default,   NCORE=1            might be grossly inefficient         |
|      on modern multi-core architectures or massively parallel machines.     |
|      Do your own testing !!!!                                               |
|      Unfortunately you need to use the default for GW and RPA calculations. |
|      (for HF NCORE is supported but not extensively tested yet)             |
|                                                                             |
 ----------------------------------------------------------------------------- 

 POTCAR:    PAW_PBE Pt 04Feb2005                  
   VRHFIN =Pt: s1d9                                                             
   LEXCH  = PE                                                                  
   EATOM  =   729.1176 eV,   53.5886 Ry                                         
                                                                                
   TITEL  = PAW_PBE Pt 04Feb2005                                                
   LULTRA =        F    use ultrasoft PP ?                                      
   IUNSCR =        1    unscreen: 0-lin 1-nonlin 2-no                           
   RPACOR =    2.330    partial core radius                                     
   POMASS =  195.080; ZVAL   =   10.000    mass and valenz                      
   RCORE  =    2.600    outmost cutoff radius                                   
   RWIGS  =    2.750; RWIGS  =    1.455    wigner-seitz radius (au A)           
   ENMAX  =  230.283; ENMIN  =  172.712 eV                                      
   ICORE  =        3    local potential                                         
   LCOR   =        T    correct aug charges                                     
   LPAW   =        T    paw PP                                                  
   EAUG   =  358.966                                                            
   DEXC   =    0.000                                                            
   RMAX   =    2.658    core radius for proj-oper                               
   RAUG   =    1.300    factor for augmentation sphere                          
   RDEP   =    2.761    radius for radial grids                                 
   RDEPT  =    2.203    core radius for aug-charge                              
                                                                                
   Atomic configuration                                                         
   16 entries                                                                   
     n  l   j            E        occ.                                          
     1  0  0.50    -78401.1885   2.0000                                         
     2  0  0.50    -13770.7750   2.0000                                         
     2  1  1.50    -11931.0468   6.0000                                         
     3  0  0.50     -3234.7234   2.0000                                         
     3  1  1.50     -2699.2216   6.0000                                         
     3  2  2.50     -2119.5714  10.0000                                         
     4  0  0.50      -695.1528   2.0000                                         
     4  1  1.50      -519.6034   6.0000                                         
     4  2  2.50      -306.6786  10.0000                                         
     4  3  3.50       -70.1041  14.0000                                         
     5  0  0.50      -101.7747   2.0000                                         
     5  1  1.50       -55.9873   6.0000                                         
     5  2  2.50        -6.1423   9.0000                                         
     6  0  0.50        -5.6573   1.0000                                         
     6  1  1.50        -6.8029   0.0000                                         
     5  3  2.50        -1.3606   0.0000                                         
   Description                                                                  
     l       E           TYP  RCUT    TYP  RCUT                                 
     2     -6.1423404     23  2.500                                             
     2     -7.5029230     23  2.500                                             
     0     -5.6573207     23  2.500                                             
     0      0.7416693     23  2.500                                             
     1     -2.7211652     23  2.600                                             
     1     20.4087390     23  2.600                                             
     3     -1.3605826     23  2.500                                             
  local pseudopotential read in
  partial core-charges read in
  partial kinetic energy density read in
  atomic valenz-charges read in
  non local Contribution for L=           2  read in
    real space projection operators read in
  non local Contribution for L=           2  read in
    real space projection operators read in
  non local Contribution for L=           0  read in
    real space projection operators read in
  non local Contribution for L=           0  read in
    real space projection operators read in
  non local Contribution for L=           1  read in
    real space projection operators read in
  non local Contribution for L=           1  read in
    real space projection operators read in
    PAW grid and wavefunctions read in
 
   number of l-projection  operators is LMAX  =           6
   number of lm-projection operators is LMMAX =          18
 
 POTCAR:    PAW_PBE Fe 06Sep2000                  
   VRHFIN =Fe:  d7 s1                                                           
   LEXCH  = PE                                                                  
   EATOM  =   594.3153 eV,   43.6809 Ry                                         
                                                                                
   TITEL  = PAW_PBE Fe 06Sep2000                                                
   LULTRA =        F    use ultrasoft PP ?                                      
   IUNSCR =        1    unscreen: 0-lin 1-nonlin 2-no                           
   RPACOR =    2.000    partial core radius                                     
   POMASS =   55.847; ZVAL   =    8.000    mass and valenz                      
   RCORE  =    2.300    outmost cutoff radius                                   
   RWIGS  =    2.460; RWIGS  =    1.302    wigner-seitz radius (au A)           
   ENMAX  =  267.882; ENMIN  =  200.911 eV                                      
   RCLOC  =    1.701    cutoff for local pot                                    
   LCOR   =        T    correct aug charges                                     
   LPAW   =        T    paw PP                                                  
   EAUG   =  511.368                                                            
   DEXC   =    0.000                                                            
   RMAX   =    2.356    core radius for proj-oper                               
   RAUG   =    1.300    factor for augmentation sphere                          
   RDEP   =    2.442    radius for radial grids                                 
   RDEPT  =    1.890    core radius for aug-charge                              
                                                                                
   Atomic configuration                                                         
    9 entries                                                                   
     n  l   j            E        occ.                                          
     1  0  0.50     -6993.8440   2.0000                                         
     2  0  0.50      -814.6047   2.0000                                         
     2  1  1.50      -693.3689   6.0000                                         
     3  0  0.50       -89.4732   2.0000                                         
     3  1  1.50       -55.6373   6.0000                                         
     3  2  2.50        -3.8151   7.0000                                         
     4  0  0.50        -4.2551   1.0000                                         
     4  1  1.50        -3.4015   0.0000                                         
     4  3  2.50        -1.3606   0.0000                                         
   Description                                                                  
     l       E           TYP  RCUT    TYP  RCUT                                 
     2     -3.8151135     23  2.300                                             
     2     -5.1756961     23  2.300                                             
     0     -4.2550963     23  2.300                                             
     0      7.2035603     23  2.300                                             
     1     -2.7211652     23  2.300                                             
     1     18.4316424     23  2.300                                             
  local pseudopotential read in
  partial core-charges read in
  partial kinetic energy density read in
  atomic valenz-charges read in
  non local Contribution for L=           2  read in
    real space projection operators read in
  non local Contribution for L=           2  read in
    real space projection operators read in
  non local Contribution for L=           0  read in
    real space projection operators read in
  non local Contribution for L=           0  read in
    real space projection operators read in
  non local Contribution for L=           1  read in
    real space projection operators read in
  non local Contribution for L=           1  read in
    real space projection operators read in
    PAW grid and wavefunctions read in
 
   number of l-projection  operators is LMAX  =           6
   number of lm-projection operators is LMMAX =          18
 
 POTCAR:    PAW_PBE Co 02Aug2007                  
   VRHFIN =Co: d8 s1                                                            
   LEXCH  = PE                                                                  
   EATOM  =   813.3670 eV,   59.7808 Ry                                         
                                                                                
   TITEL  = PAW_PBE Co 02Aug2007                                                
   LULTRA =        F    use ultrasoft PP ?                                      
   IUNSCR =        1    unscreen: 0-lin 1-nonlin 2-no                           
   RPACOR =    2.000    partial core radius                                     
   POMASS =   58.933; ZVAL   =    9.000    mass and valenz                      
   RCORE  =    2.300    outmost cutoff radius                                   
   RWIGS  =    2.460; RWIGS  =    1.302    wigner-seitz radius (au A)           
   ENMAX  =  267.968; ENMIN  =  200.976 eV                                      
   RCLOC  =    1.203    cutoff for local pot                                    
   LCOR   =        T    correct aug charges                                     
   LPAW   =        T    paw PP                                                  
   EAUG   =  477.818                                                            
   DEXC   =    0.000                                                            
   RMAX   =    2.360    core radius for proj-oper                               
   RAUG   =    1.300    factor for augmentation sphere                          
   RDEP   =    2.393    radius for radial grids                                 
   RDEPT  =    1.864    core radius for aug-charge                              
                                                                                
   Atomic configuration                                                         
    9 entries                                                                   
     n  l   j            E        occ.                                          
     1  0  0.50     -7587.6674   2.0000                                         
     2  0  0.50      -893.6084   2.0000                                         
     2  1  1.50      -764.5805   6.0000                                         
     3  0  0.50       -97.5973   2.0000                                         
     3  1  1.50       -60.9648   6.0000                                         
     3  2  2.50        -4.2382   8.0000                                         
     4  0  0.50        -4.3746   1.0000                                         
     4  1  1.50        -4.0817   0.0000                                         
     4  3  2.50        -1.3606   0.0000                                         
   Description                                                                  
     l       E           TYP  RCUT    TYP  RCUT                                 
     2     -4.2382362     23  2.300                                             
     2     -5.5988188     23  2.300                                             
     0     -4.3745797     23  2.300                                             
     0      5.7660125     23  2.300                                             
     1     -2.7211652     23  2.300                                             
     1     16.9860234     23  2.300                                             
  local pseudopotential read in
  partial core-charges read in
  partial kinetic energy density read in
  atomic valenz-charges read in
  non local Contribution for L=           2  read in
    real space projection operators read in
  non local Contribution for L=           2  read in
    real space projection operators read in
  non local Contribution for L=           0  read in
    real space projection operators read in
  non local Contribution for L=           0  read in
    real space projection operators read in
  non local Contribution for L=           1  read in
    real space projection operators read in
  non local Contribution for L=           1  read in
    real space projection operators read in
    PAW grid and wavefunctions read in
 
   number of l-projection  operators is LMAX  =           6
   number of lm-projection operators is LMMAX =          18
 
 POTCAR:    PAW_PBE Ni 02Aug2007                  
   VRHFIN =Ni:                                                                  
   LEXCH  = PE                                                                  
   EATOM  =  1077.6739 eV,   79.2068 Ry                                         
                                                                                
   TITEL  = PAW_PBE Ni 02Aug2007                                                
   LULTRA =        F    use ultrasoft PP ?                                      
   IUNSCR =        1    unscreen: 0-lin 1-nonlin 2-no                           
   RPACOR =    2.000    partial core radius                                     
   POMASS =   58.690; ZVAL   =   10.000    mass and valenz                      
   RCORE  =    2.300    outmost cutoff radius                                   
   RWIGS  =    2.430; RWIGS  =    1.286    wigner-seitz radius (au A)           
   ENMAX  =  269.532; ENMIN  =  202.149 eV                                      
   RCLOC  =    1.201    cutoff for local pot                                    
   LCOR   =        T    correct aug charges                                     
   LPAW   =        T    paw PP                                                  
   EAUG   =  544.565                                                            
   DEXC   =    0.000                                                            
   RMAX   =    2.357    core radius for proj-oper                               
   RAUG   =    1.300    factor for augmentation sphere                          
   RDEP   =    2.390    radius for radial grids                                 
   RDEPT  =    1.838    core radius for aug-charge                              
                                                                                
   Atomic configuration                                                         
    9 entries                                                                   
     n  l   j            E        occ.                                          
     1  0  0.50     -8206.4253   2.0000                                         
     2  0  0.50      -976.1748   2.0000                                         
     2  1  1.50      -839.0571   6.0000                                         
     3  0  0.50      -105.9991   2.0000                                         
     3  1  1.50       -66.4603   6.0000                                         
     3  2  2.50        -4.6458   9.0000                                         
     4  0  0.50        -4.4926   1.0000                                         
     4  1  1.50        -4.0817   0.0000                                         
     4  3  2.50        -1.3606   0.0000                                         
   Description                                                                  
     l       E           TYP  RCUT    TYP  RCUT                                 
     2     -4.6457903     23  2.300                                             
     2     -6.0063729     23  2.300                                             
     0     -4.4925590     23  2.300                                             
     0      5.0102601     23  2.300                                             
     1     -2.7211652     23  2.300                                             
     1     16.5183231     23  2.300                                             
  local pseudopotential read in
  partial core-charges read in
  partial kinetic energy density read in
  atomic valenz-charges read in
  non local Contribution for L=           2  read in
    real space projection operators read in
  non local Contribution for L=           2  read in
    real space projection operators read in
  non local Contribution for L=           0  read in
    real space projection operators read in
  non local Contribution for L=           0  read in
    real space projection operators read in
  non local Contribution for L=           1  read in
    real space projection operators read in
  non local Contribution for L=           1  read in
    real space projection operators read in
    PAW grid and wavefunctions read in
 
   number of l-projection  operators is LMAX  =           6
   number of lm-projection operators is LMMAX =          18
 
 POTCAR:    PAW_PBE H 15Jun2001                   
   VRHFIN =H: ultrasoft test                                                    
   LEXCH  = PE                                                                  
   EATOM  =    12.4884 eV,    0.9179 Ry                                         
                                                                                
   TITEL  = PAW_PBE H 15Jun2001                                                 
   LULTRA =        F    use ultrasoft PP ?                                      
   IUNSCR =        0    unscreen: 0-lin 1-nonlin 2-no                           
   RPACOR =    0.000    partial core radius                                     
   POMASS =    1.000; ZVAL   =    1.000    mass and valenz                      
   RCORE  =    1.100    outmost cutoff radius                                   
   RWIGS  =    0.700; RWIGS  =    0.370    wigner-seitz radius (au A)           
   ENMAX  =  250.000; ENMIN  =  200.000 eV                                      
   RCLOC  =    0.701    cutoff for local pot                                    
   LCOR   =        T    correct aug charges                                     
   LPAW   =        T    paw PP                                                  
   EAUG   =  400.000                                                            
   RMAX   =    1.123    core radius for proj-oper                               
   RAUG   =    1.200    factor for augmentation sphere                          
   RDEP   =    1.112    radius for radial grids                                 
   RDEPT  =    0.926    core radius for aug-charge                              
                                                                                
   Atomic configuration                                                         
    2 entries                                                                   
     n  l   j            E        occ.                                          
     1  0  0.50        -6.4927   1.0000                                         
     2  1  0.50        -3.4015   0.0000                                         
   Description                                                                  
     l       E           TYP  RCUT    TYP  RCUT                                 
     0     -6.4927494     23  1.100                                             
     0      6.8029130     23  1.100                                             
     1     -4.0817478     23  1.100                                             
  local pseudopotential read in
  atomic valenz-charges read in
  non local Contribution for L=           0  read in
    real space projection operators read in
  non local Contribution for L=           0  read in
    real space projection operators read in
  non local Contribution for L=           1  read in
    real space projection operators read in
    PAW grid and wavefunctions read in
 
   number of l-projection  operators is LMAX  =           3
   number of lm-projection operators is LMMAX =           5
 
 Optimization of the real space projectors (new method)

 maximal supplied QI-value         = 14.36
 optimisation between [QCUT,QGAM] = [ 11.92, 23.98] = [ 39.79,161.09] Ry 
 Optimized for a Real-space Cutoff    1.49 Angstroem

   l    n(q)    QCUT    max X(q) W(low)/X(q) W(high)/X(q)  e(spline) 
   2     10    11.920    66.195    0.79E-04    0.18E-03    0.24E-06
   2     10    11.920    64.643    0.81E-04    0.19E-03    0.24E-06
   0     11    11.920    95.520    0.28E-04    0.54E-04    0.18E-06
   0     11    11.920    63.403    0.27E-04    0.52E-04    0.17E-06
   1     10    11.920    19.961    0.18E-04    0.11E-03    0.23E-06
   1     10    11.920    13.289    0.25E-04    0.87E-04    0.19E-06
 Optimization of the real space projectors (new method)

 maximal supplied QI-value         = 16.25
 optimisation between [QCUT,QGAM] = [ 11.86, 23.89] = [ 39.41,159.82] Ry 
 Optimized for a Real-space Cutoff    1.49 Angstroem

   l    n(q)    QCUT    max X(q) W(low)/X(q) W(high)/X(q)  e(spline) 
   2     10    11.864    80.901    0.13E-03    0.23E-03    0.37E-06
   2     10    11.864    75.754    0.13E-03    0.23E-03    0.38E-06
   0     11    11.864    58.752    0.44E-04    0.11E-04    0.20E-06
   0     11    11.864    30.679    0.36E-04    0.10E-04    0.18E-06
   1     10    11.864    17.977    0.31E-04    0.45E-04    0.10E-06
   1     10    11.864    13.559    0.25E-04    0.37E-04    0.89E-07
 Optimization of the real space projectors (new method)

 maximal supplied QI-value         = 16.25
 optimisation between [QCUT,QGAM] = [ 11.86, 23.89] = [ 39.41,159.82] Ry 
 Optimized for a Real-space Cutoff    1.33 Angstroem

   l    n(q)    QCUT    max X(q) W(low)/X(q) W(high)/X(q)  e(spline) 
   2      9    11.864    65.824    0.22E-03    0.53E-03    0.26E-06
   2      9    11.864    61.429    0.22E-03    0.53E-03    0.26E-06
   0      9    11.864    56.174    0.21E-03    0.32E-04    0.15E-06
   0      9    11.864    31.263    0.19E-03    0.30E-04    0.14E-06
   1      9    11.864    19.828    0.63E-04    0.30E-03    0.16E-06
   1      9    11.864    15.139    0.49E-04    0.25E-03    0.13E-06
 Optimization of the real space projectors (new method)

 maximal supplied QI-value         = 16.25
 optimisation between [QCUT,QGAM] = [ 11.86, 23.89] = [ 39.41,159.82] Ry 
 Optimized for a Real-space Cutoff    1.33 Angstroem

   l    n(q)    QCUT    max X(q) W(low)/X(q) W(high)/X(q)  e(spline) 
   2      9    11.864    60.317    0.21E-03    0.51E-03    0.25E-06
   2      9    11.864    55.921    0.21E-03    0.51E-03    0.26E-06
   0      9    11.864    51.690    0.22E-03    0.30E-04    0.17E-06
   0      9    11.864    30.015    0.20E-03    0.28E-04    0.15E-06
   1      9    11.864    18.849    0.76E-04    0.33E-03    0.17E-06
   1      9    11.864    14.624    0.60E-04    0.28E-03    0.15E-06
 Optimization of the real space projectors (new method)

 maximal supplied QI-value         = 34.20
 optimisation between [QCUT,QGAM] = [ 11.97, 23.94] = [ 40.13,160.53] Ry 
 Optimized for a Real-space Cutoff    1.18 Angstroem

   l    n(q)    QCUT    max X(q) W(low)/X(q) W(high)/X(q)  e(spline) 
   0      8    11.971    19.460    0.15E-03    0.31E-03    0.25E-06
   0      8    11.971    12.209    0.13E-03    0.29E-03    0.25E-06
   1      8    11.971     4.655    0.22E-03    0.24E-03    0.21E-06
  PAW_PBE Pt 04Feb2005                  :
 energy of atom  1       EATOM= -729.1176
 kinetic energy error for atom=    0.0021 (will be added to EATOM!!)
  PAW_PBE Fe 06Sep2000                  :
 energy of atom  2       EATOM= -594.3153
 kinetic energy error for atom=    0.0024 (will be added to EATOM!!)
  PAW_PBE Co 02Aug2007                  :
 energy of atom  3       EATOM= -813.3670
 kinetic energy error for atom=    0.0026 (will be added to EATOM!!)
  PAW_PBE Ni 02Aug2007                  :
 energy of atom  4       EATOM=-1077.6739
 kinetic energy error for atom=    0.0027 (will be added to EATOM!!)
  PAW_PBE H 15Jun2001                   :
 energy of atom  5       EATOM=  -12.4884
 kinetic energy error for atom=    0.0008 (will be added to EATOM!!)
 
 
 POSCAR: 11.26                                   
  positions in cartesian coordinates
  No initial velocities read in
 exchange correlation table for  LEXCH =        8
   RHO(1)=    0.500       N(1)  =     2000
   RHO(2)=  100.500       N(2)  =     4000
 


--------------------------------------------------------------------------------------------------------


 ion  position               nearest neighbor table
   1  0.783  0.870  0.304-  52 2.53  59 2.56  28 2.71  19 2.74  61 2.77   2 2.77  29 2.79   4 2.80
                            33 2.81  60 2.82  12 2.85  11 2.86
   2  0.030  0.869  0.299-  79 2.49  77 2.52  33 2.77   1 2.77  28 2.78  30 2.79   4 2.80   6 2.82
                            16 2.87  60 2.89  22 3.00
   3  0.281  0.361  0.311-  64 2.54  68 2.62  31 2.66  43 2.73   5 2.74  39 2.77  13 2.78  30 2.78
                            25 2.79  19 2.83  33 2.86  18 2.93
   4  0.871  0.957  0.405-  60 2.62   9 2.74  17 2.75  16 2.77   6 2.79   2 2.80   1 2.80  11 2.83
                            12 2.84
   5  0.112  0.460  0.410-  39 2.62  33 2.69  12 2.72   3 2.74  16 2.77   7 2.77  10 2.79  25 2.81
                            13 2.92
   6  0.124  0.949  0.402-  55 2.66  14 2.71  22 2.72   4 2.79  16 2.80   2 2.82   9 2.83   8 2.85
                            10 2.87
   7  0.871  0.447  0.412-  39 2.58  75 2.68  15 2.72  29 2.73   9 2.76   5 2.77  10 2.78  27 2.86
                            12 2.89
   8  0.373  0.955  0.416-  55 2.50  43 2.60  61 2.70  13 2.76  11 2.78  27 2.79  10 2.80  14 2.81
                             6 2.85
   9  0.872  0.201  0.405-  75 2.59  60 2.65   4 2.74   7 2.76  15 2.78  22 2.78  17 2.79   6 2.83
                            10 2.86
  10  0.125  0.205  0.411-  43 2.63  39 2.63  22 2.75  13 2.76   7 2.78   5 2.79   8 2.80   9 2.86
                             6 2.87
  11  0.624  0.950  0.413-  61 2.65  19 2.71  27 2.76  12 2.77   8 2.78  17 2.81  13 2.82   4 2.83
                             1 2.86
  12  0.871  0.705  0.411-  29 2.68  33 2.71  16 2.72   5 2.72  11 2.77  27 2.81   4 2.84   1 2.85
                             7 2.89
  13  0.372  0.201  0.416-  43 2.64   8 2.76  10 2.76  19 2.77  25 2.77   3 2.78  11 2.82  17 2.82
                             5 2.92
  14  0.366  0.709  0.407-  81 1.91  44 2.57  55 2.59   6 2.71   8 2.81  27 2.84  16 2.86  30 2.88
                            25 2.89  15 2.92
  15  0.627  0.451  0.411-  81 1.83  75 2.62  44 2.64   7 2.72   9 2.78  18 2.80  27 2.82  17 2.83
                            14 2.92  25 2.93
  16  0.113  0.706  0.408-  33 2.65  30 2.69  12 2.72   4 2.77   5 2.77   6 2.80  25 2.85  14 2.86
                             2 2.87
  17  0.624  0.200  0.411-  60 2.61  19 2.75   4 2.75  18 2.79   9 2.79  11 2.81  13 2.82  15 2.83
                            25 2.86
  18  0.539  0.367  0.309-  67 2.54  68 2.64  60 2.67  26 2.69  75 2.78  17 2.79  15 2.80  25 2.81
                            19 2.86  30 2.90   3 2.93  44 2.94
  19  0.538  0.112  0.313-  68 2.49  80 2.53  59 2.55  43 2.69  11 2.71  61 2.71  60 2.72   1 2.74
                            17 2.75  13 2.77   3 2.83  18 2.86
  20  0.538  0.117  0.053-  47 2.51  37 2.56  51 2.64  63 2.67  50 2.71  62 2.73  34 2.74  46 2.79
                            45 2.87
  21  0.106  0.420  0.118-  40 2.50  36 2.51  50 2.54  70 2.60  47 2.66  42 2.66  64 2.70  69 2.71
                            31 2.79  53 3.03
  22  0.049  0.126  0.306-  65 2.50  77 2.52  58 2.54  39 2.68   6 2.72  10 2.75  43 2.75   9 2.78
                            75 2.86  55 2.94   2 3.00  60 3.10  31 3.24
  23  0.025  0.110  0.043-  40 2.54  41 2.55  70 2.56  35 2.67  62 2.71  24 2.74  56 2.77  76 2.83
                            45 2.93
  24  0.117  0.952  0.146-  79 2.49  35 2.51  70 2.62  77 2.62  58 2.62  56 2.64  48 2.66  73 2.70
                            66 2.72  23 2.74  41 2.84  38 2.93
  25  0.366  0.451  0.411-  81 1.82  13 2.77   3 2.79  30 2.79   5 2.81  18 2.81  16 2.85  17 2.86
                            14 2.89  15 2.93
  26  0.451  0.562  0.222-  73 2.52  74 2.53  54 2.55  79 2.59  30 2.60  44 2.62  32 2.67  78 2.68
                            18 2.69  67 2.98  48 2.99
  27  0.621  0.705  0.412-  44 2.56  61 2.63  11 2.76  29 2.78   8 2.79  12 2.81  15 2.82  14 2.84
                             7 2.86
  28  0.949  0.756  0.207-  48 2.55  53 2.56  66 2.63  42 2.65  33 2.65  64 2.70   1 2.71   2 2.78
                            52 2.85  36 2.90  59 3.15
  29  0.798  0.615  0.313-  42 2.57  52 2.59  32 2.62  39 2.66  12 2.68  33 2.69   7 2.73  27 2.78
                             1 2.79  75 2.83  44 2.84  61 2.90
  30  0.270  0.614  0.307-  79 2.52  26 2.60  33 2.61  16 2.69  64 2.73   3 2.78   2 2.79  25 2.79
                            14 2.88  18 2.90  44 3.11  55 3.28
  31  0.191  0.261  0.224-  70 2.48  58 2.52  47 2.57  43 2.60  39 2.61   3 2.66  65 2.68  64 2.74
                            21 2.79  80 2.81  42 2.83  68 3.00  22 3.24
  32  0.700  0.539  0.222-  69 2.53  54 2.60  75 2.61  29 2.62  57 2.63  44 2.65  65 2.66  26 2.67
                            52 2.68  42 2.70  67 2.73  78 2.76
  33  0.034  0.622  0.311-  64 2.55  30 2.61  16 2.65  28 2.65   5 2.69  29 2.69  12 2.71  42 2.75
                             2 2.77   1 2.81  39 2.82   3 2.86
  34  0.791  0.885  0.059-  51 2.33  66 2.39  53 2.60  62 2.68  35 2.73  20 2.74  36 2.75  63 2.89

  35  0.043  0.865  0.057-  36 2.40  24 2.51  66 2.52  23 2.67  34 2.73  48 2.84  72 2.85  56 2.85
                            62 3.00
  36  0.042  0.658  0.084-  48 2.40  35 2.40  53 2.47  21 2.51  72 2.75  34 2.75  28 2.90
  37  0.624  0.211  0.138-  59 2.38  62 2.40  67 2.45  46 2.46  68 2.48  74 2.55  20 2.56  66 2.66
                            41 2.68  54 2.71  47 2.99  51 3.04
  38  0.377  0.954  0.136-  63 2.36  45 2.39  56 2.40  58 2.42  80 2.45  73 2.50  78 2.54  57 2.61
                            47 2.77  70 2.82  51 2.87  24 2.93
  39  0.029  0.373  0.317-   7 2.58  31 2.61   5 2.62  65 2.63  10 2.63  42 2.64  29 2.66  22 2.68
                            75 2.76   3 2.77  33 2.82  43 3.00
  40  0.983  0.354  0.043-  69 2.31  76 2.42  21 2.50  23 2.54  70 2.62  71 2.63  45 3.12
  41  0.866  0.206  0.135-  77 2.42  76 2.43  67 2.44  62 2.46  65 2.52  23 2.55  69 2.55  66 2.57
                            70 2.65  37 2.68  24 2.84  54 2.87
  42  0.948  0.521  0.217-  53 2.52  69 2.54  64 2.55  65 2.57  29 2.57  39 2.64  28 2.65  21 2.66
                            32 2.70  33 2.75  31 2.83  52 2.97
  43  0.300  0.109  0.320-  58 2.48  55 2.50   8 2.60  31 2.60  80 2.61  10 2.63  13 2.64  61 2.67
                            19 2.69   3 2.73  22 2.75  39 3.00
  44  0.539  0.627  0.319-  27 2.56  14 2.57  78 2.60  26 2.62  15 2.64  55 2.65  32 2.65  61 2.72
                            75 2.83  29 2.84  18 2.94  30 3.11
  45  0.285  0.111  0.053-  38 2.39  70 2.47  47 2.48  56 2.53  63 2.71  20 2.87  23 2.93  40 3.12

  46  0.535  0.367  0.050-  54 2.40  50 2.43  37 2.46  74 2.47  76 2.54  62 2.67  72 2.72  20 2.79
                            49 2.82
  47  0.359  0.209  0.135-  50 2.40  68 2.41  45 2.48  20 2.51  31 2.57  80 2.60  21 2.66  74 2.74
                            38 2.77  70 2.92  37 2.99
  48  0.180  0.691  0.158-  79 2.40  36 2.40  72 2.41  64 2.41  73 2.49  28 2.55  24 2.66  74 2.70
                            35 2.84  26 2.99
  49  0.521  0.625  0.052-  54 2.35  73 2.38  71 2.44  57 2.44  72 2.53  56 2.78  46 2.82  76 2.90
                            63 2.95
  50  0.315  0.374  0.056-  74 2.35  47 2.40  46 2.43  21 2.54  72 2.65  20 2.71
  51  0.642  0.932  0.141-  34 2.33  52 2.34  63 2.45  59 2.53  53 2.55  80 2.56  20 2.64  57 2.67
                            66 2.78  38 2.87  37 3.04
  52  0.683  0.786  0.223-  51 2.34  78 2.41  57 2.48  61 2.51   1 2.53  53 2.55  29 2.59  80 2.65
                            32 2.68  28 2.85  42 2.97  59 3.12
  53  0.830  0.681  0.129-  57 2.36  71 2.40  36 2.47  42 2.52  52 2.55  51 2.55  28 2.56  69 2.59
                            34 2.60  21 3.03
  54  0.609  0.460  0.130-  49 2.35  46 2.40  76 2.41  26 2.55  74 2.58  32 2.60  67 2.61  69 2.68
                            37 2.71  57 2.86  41 2.87  73 2.88
  55  0.320  0.877  0.318-  58 2.37  79 2.38  61 2.40  78 2.46  43 2.50   8 2.50  14 2.59  44 2.65
                             6 2.66  22 2.94  30 3.28
  56  0.287  0.884  0.053-  73 2.35  38 2.40  45 2.53  24 2.64  63 2.77  23 2.77  49 2.78  35 2.85
                            72 2.94
  57  0.603  0.717  0.132-  63 2.31  53 2.36  71 2.42  49 2.44  52 2.48  78 2.49  73 2.50  38 2.61
                            32 2.63  51 2.67  54 2.86  69 3.01
  58  0.244  0.015  0.229-  55 2.37  79 2.41  38 2.42  43 2.48  78 2.48  80 2.49  31 2.52  22 2.54
                            24 2.62  70 2.74
  59  0.698  0.057  0.222-  37 2.38  66 2.44  60 2.44  68 2.52  51 2.53  19 2.55   1 2.56  77 2.59
                            67 2.70  80 2.86  52 3.12  28 3.15
  60  0.773  0.126  0.313-  77 2.38  59 2.44  67 2.57  17 2.61   4 2.62   9 2.65  18 2.67  19 2.72
                            75 2.80   1 2.82   2 2.89  22 3.10
  61  0.537  0.871  0.317-  55 2.40  78 2.46  52 2.51  80 2.58  27 2.63  11 2.65  43 2.67   8 2.70
                            19 2.71  44 2.72   1 2.77  29 2.90
  62  0.774  0.130  0.051-  37 2.40  66 2.45  41 2.46  76 2.49  46 2.67  34 2.68  23 2.71  20 2.73
                            35 3.00
  63  0.536  0.880  0.055-  57 2.31  38 2.36  51 2.45  20 2.67  45 2.71  56 2.77  34 2.89  71 2.92
                            49 2.95
  64  0.181  0.510  0.217-  48 2.41   3 2.54  33 2.55  42 2.55  74 2.65  21 2.70  28 2.70  30 2.73
                            31 2.74  68 2.96
  65  0.935  0.300  0.224-  69 2.43  75 2.46  22 2.50  41 2.52  42 2.57  67 2.58  70 2.62  39 2.63
                            77 2.66  32 2.66  31 2.68
  66  0.864  0.977  0.139-  34 2.39  77 2.43  59 2.44  62 2.45  35 2.52  41 2.57  28 2.63  37 2.66
                            24 2.72  51 2.78
  67  0.710  0.290  0.222-  77 2.42  41 2.44  37 2.45  75 2.52  18 2.54  60 2.57  65 2.58  54 2.61
                            59 2.70  32 2.73  26 2.98  68 3.01
  68  0.458  0.262  0.221-  47 2.41  74 2.41  37 2.48  19 2.49  59 2.52  80 2.60   3 2.62  18 2.64
                            64 2.96  31 3.00  67 3.01
  69  0.858  0.437  0.131-  40 2.31  71 2.39  65 2.43  76 2.50  32 2.53  42 2.54  41 2.55  53 2.59
                            54 2.68  21 2.71  70 2.81  57 3.01
  70  0.110  0.188  0.134-  45 2.47  31 2.48  23 2.56  21 2.60  24 2.62  65 2.62  40 2.62  41 2.65
                            58 2.74  69 2.81  38 2.82  47 2.92
  71  0.753  0.592  0.048-  69 2.39  53 2.40  57 2.42  49 2.44  76 2.57  40 2.63  63 2.92
  72  0.302  0.616  0.063-  48 2.41  73 2.46  74 2.50  49 2.53  50 2.65  46 2.72  36 2.75  35 2.85
                            56 2.94
  73  0.373  0.733  0.136-  56 2.35  49 2.38  72 2.46  78 2.49  48 2.49  57 2.50  38 2.50  26 2.52
                            79 2.55  24 2.70  54 2.88
  74  0.394  0.434  0.143-  50 2.35  68 2.41  46 2.47  72 2.50  26 2.53  37 2.55  54 2.58  64 2.65
                            48 2.70  47 2.74
  75  0.785  0.370  0.314-  65 2.46  67 2.52   9 2.59  32 2.61  15 2.62   7 2.68  39 2.76  18 2.78
                            60 2.80  44 2.83  29 2.83  22 2.86
  76  0.767  0.355  0.047-  54 2.41  40 2.42  41 2.43  62 2.49  69 2.50  46 2.54  71 2.57  23 2.83
                            49 2.90
  77  0.921  0.071  0.227-  60 2.38  67 2.42  41 2.42  66 2.43   2 2.52  22 2.52  59 2.59  24 2.62
                            65 2.66
  78  0.465  0.793  0.227-  52 2.41  55 2.46  61 2.46  58 2.48  73 2.49  57 2.49  79 2.51  38 2.54
                            44 2.60  80 2.62  26 2.68  32 2.76
  79  0.237  0.804  0.236-  55 2.38  48 2.40  58 2.41   2 2.49  24 2.49  78 2.51  30 2.52  73 2.55
                            26 2.59
  80  0.457  0.030  0.223-  38 2.45  58 2.49  19 2.53  51 2.56  61 2.58  68 2.60  47 2.60  43 2.61
                            78 2.62  52 2.65  31 2.81  59 2.86
  81  0.456  0.532  0.445-  25 1.82  15 1.83  14 1.91
 
  LATTYP: Found a hexagonal cell.
 ALAT       =    11.2227001190
 C/A-ratio  =     1.9603125600
  
  Lattice vectors:
  
 A1 = (   5.6113500595,  -9.7191434021,   0.0000000000)
 A2 = ( -11.2227001190,   0.0000000000,   0.0000000000)
 A3 = (   0.0000000000,   0.0000000000, -22.0000000000)


Analysis of symmetry for initial positions (statically):
=====================================================================
 Subroutine PRICEL returns:
 Original cell was already a primitive cell.
 

 Routine SETGRP: Setting up the symmetry group for a 
 hexagonal supercell.


 Subroutine GETGRP returns: Found  1 space group operations
 (whereof  1 operations were pure point group operations)
 out of a pool of 24 trial point group operations.


The static configuration has the point symmetry C_1 .


Analysis of symmetry for dynamics (positions and initial velocities):
=====================================================================
 Subroutine PRICEL returns:
 Original cell was already a primitive cell.
 

 Routine SETGRP: Setting up the symmetry group for a 
 hexagonal supercell.


 Subroutine GETGRP returns: Found  1 space group operations
 (whereof  1 operations were pure point group operations)
 out of a pool of 24 trial point group operations.


The dynamic configuration has the point symmetry C_1 .


Analysis of constrained symmetry for selective dynamics:
=====================================================================
 Subroutine PRICEL returns:
 Original cell was already a primitive cell.
 

 Routine SETGRP: Setting up the symmetry group for a 
 hexagonal supercell.


 Subroutine GETGRP returns: Found  1 space group operations
 (whereof  1 operations were pure point group operations)
 out of a pool of 24 trial point group operations.


The constrained configuration has the point symmetry C_1 .


Analysis of structural, dynamic, and magnetic symmetry:
=====================================================================
 Subroutine PRICEL returns:
 Original cell was already a primitive cell.
 

 Routine SETGRP: Setting up the symmetry group for a 
 hexagonal supercell.


 Subroutine GETGRP returns: Found  1 space group operations
 (whereof  1 operations were pure point group operations)
 out of a pool of 24 trial point group operations.


The magnetic configuration has the point symmetry C_1 .


 Subroutine INISYM returns: Found  1 space group operations
 (whereof  1 operations are pure point group operations),
 and found     1 'primitive' translations

 
 
 KPOINTS: mesh auto                               

Automatic generation of k-mesh.
Space group operators:
 irot       det(A)        alpha          n_x          n_y          n_z        tau_x        tau_y        tau_z
    1     1.000000     0.000000     1.000000     0.000000     0.000000     0.000000     0.000000     0.000000
 
 Subroutine IBZKPT returns following result:
 ===========================================
 
 Found      4 irreducible k-points:
 
 Following reciprocal coordinates:
            Coordinates               Weight
  0.000000  0.000000  0.000000      1.000000
  0.500000  0.000000  0.000000      1.000000
  0.000000  0.500000  0.000000      1.000000
  0.500000  0.500000  0.000000      1.000000
 
 Following cartesian coordinates:
            Coordinates               Weight
  0.000000  0.000000  0.000000      1.000000
  0.044553 -0.025722  0.000000      1.000000
  0.000000  0.051445  0.000000      1.000000
  0.044553  0.025722  0.000000      1.000000
 
 TETIRR: Found     12 inequivalent tetrahedra from       24
 
 Subroutine IBZKPT_HF returns following result:
 ==============================================
 
 Found      4 k-points in 1st BZ
 the following      4 k-points will be used (e.g. in the exchange kernel)
 Following reciprocal coordinates:   # in IRBZ
  0.000000  0.000000  0.000000    0.25000000   1 t-inv F
  0.500000  0.000000  0.000000    0.25000000   2 t-inv F
  0.000000  0.500000  0.000000    0.25000000   3 t-inv F
  0.500000  0.500000  0.000000    0.25000000   4 t-inv F


--------------------------------------------------------------------------------------------------------




 Dimension of arrays:
   k-points           NKPTS =      4   k-points in BZ     NKDIM =      4   number of bands    NBANDS=    576
   number of dos      NEDOS =    301   number of ions     NIONS =     81
   non local maximal  LDIM  =      6   non local SUM 2l+1 LMDIM =     18
   total plane-waves  NPLWV = ******
   max r-space proj   IRMAX =   7929   max aug-charges    IRDMAX=  34542
   dimension x,y,z NGX =    90 NGY =   90 NGZ =  168
   dimension x,y,z NGXF=   180 NGYF=  180 NGZF=  336
   support grid    NGXF=   180 NGYF=  180 NGZF=  336
   ions per type =              32  16  15  17   1
   NGX,Y,Z   is equivalent  to a cutoff of  13.33, 13.33, 12.70 a.u.
   NGXF,Y,Z  is equivalent  to a cutoff of  26.66, 26.66, 25.39 a.u.

 SYSTEM =  Pt111                                   
 POSCAR =  11.26                                   

 Startparameter for this run:
   NWRITE =      2    write-flag & timer
   PREC   = accura    normal or accurate (medium, high low for compatibility)
   ISTART =      0    job   : 0-new  1-cont  2-samecut
   ICHARG =      2    charge: 1-file 2-atom 10-const
   ISPIN  =      2    spin polarized calculation?
   LNONCOLLINEAR =      F non collinear calculations
   LSORBIT =      F    spin-orbit coupling
   INIWAV =      1    electr: 0-lowe 1-rand  2-diag
   LASPH  =      F    aspherical Exc in radial PAW
   METAGGA=      F    non-selfconsistent MetaGGA calc.

 Electronic Relaxation 1
   ENCUT  =  550.0 eV  40.42 Ry    6.36 a.u.  21.46 21.46 42.07*2*pi/ulx,y,z
   ENINI  =  550.0     initial cutoff
   ENAUG  =  544.6 eV  augmentation charge cutoff
   NELM   =    200;   NELMIN=  2; NELMDL= -5     # of ELM steps 
   EDIFF  = 0.1E-04   stopping-criterion for ELM
   LREAL  =      T    real-space projection
   NLSPLINE    = F    spline interpolate recip. space projectors
   LCOMPAT=      F    compatible to vasp.4.4
   GGA_COMPAT  = T    GGA compatible to vasp.4.4-vasp.4.6
   LMAXPAW     = -100 max onsite density
   LMAXMIX     =    2 max onsite mixed and CHGCAR
   VOSKOWN=      0    Vosko Wilk Nusair interpolation
   ROPT   =   -0.00025  -0.00025  -0.00025  -0.00025
   ROPT   =   -0.00025
 Ionic relaxation
   EDIFFG = -.5E-01   stopping-criterion for IOM
   NSW    =   1009    number of steps for IOM
   NBLOCK =      1;   KBLOCK =   1009    inner block; outer block 
   IBRION =      5    ionic relax: 0-MD 1-quasi-New 2-CG
   NFREE  =      2    steps in history (QN), initial steepest desc. (CG)
   ISIF   =      2    stress and relaxation
   IWAVPR =     11    prediction:  0-non 1-charg 2-wave 3-comb
   ISYM   =      2    0-nonsym 1-usesym 2-fastsym
   LCORR  =      T    Harris-Foulkes like correction to forces

   POTIM  = 0.5000    time-step for ionic-motion
   TEIN   =    0.0    initial temperature
   TEBEG  =    0.0;   TEEND  =   0.0 temperature during run
   SMASS  =  -3.00    Nose mass-parameter (am)
   estimated Nose-frequenzy (Omega)   =  0.10E-29 period in steps =****** mass=  -0.288E-26a.u.
   SCALEE = 1.0000    scale energy and forces
   NPACO  =    256;   APACO  = 16.0  distance and # of slots for P.C.
   PSTRESS=    0.0 pullay stress

  Mass of Ions in am
   POMASS = 195.08 55.85 58.93 58.69  1.00
  Ionic Valenz
   ZVAL   =  10.00  8.00  9.00 10.00  1.00
  Atomic Wigner-Seitz radii
   RWIGS  =  -1.00 -1.00 -1.00 -1.00 -1.00
  virtual crystal weights 
   VCA    =   1.00  1.00  1.00  1.00  1.00
   NELECT =     754.0000    total number of electrons
   NUPDOWN=      -1.0000    fix difference up-down

 DOS related values:
   EMIN   =  10.00;   EMAX   =-10.00  energy-range for DOS
   EFERMI =   0.00
   ISMEAR =    -5;   SIGMA  =   0.10  broadening in eV -4-tet -1-fermi 0-gaus

 Electronic relaxation 2 (details)
   IALGO  =     68    algorithm
   LDIAG  =      T    sub-space diagonalisation (order eigenvalues)
   LSUBROT=      F    optimize rotation matrix (better conditioning)
   TURBO    =      0    0=normal 1=particle mesh
   IRESTART =      0    0=no restart 2=restart with 2 vectors
   NREBOOT  =      0    no. of reboots
   NMIN     =      0    reboot dimension
   EREF     =   0.00    reference energy to select bands
   IMIX   =      4    mixing-type and parameters
     AMIX     =   0.40;   BMIX     =  1.00
     AMIX_MAG =   1.60;   BMIX_MAG =  1.00
     AMIN     =   0.10
     WC   =   100.;   INIMIX=   1;  MIXPRE=   1;  MAXMIX= -45

 Intra band minimization:
   WEIMIN = 0.0010     energy-eigenvalue tresh-hold
   EBREAK =  0.43E-08  absolut break condition
   DEPER  =   0.30     relativ break condition  

   TIME   =   0.40     timestep for ELM

  volume/ion in A,a.u.               =      29.63       199.92
  Fermi-wavevector in a.u.,A,eV,Ry     =   1.112968  2.103204 16.853501  1.238697
  Thomas-Fermi vector in A             =   2.249548
 
 Write flags
   LWAVE        =      F    write WAVECAR
   LDOWNSAMPLE  =      F    k-point downsampling of WAVECAR
   LCHARG       =      F    write CHGCAR
   LVTOT        =      F    write LOCPOT, total local potential
   LVHAR        =      F    write LOCPOT, Hartree potential only
   LELF         =      F    write electronic localiz. function (ELF)
   LORBIT       =      0    0 simple, 1 ext, 2 COOP (PROOUT), +10 PAW based schemes


 Dipole corrections
   LMONO  =      F    monopole corrections only (constant potential shift)
   LDIPOL =      F    correct potential (dipole corrections)
   IDIPOL =      0    1-x, 2-y, 3-z, 4-all directions 
   EPSILON=  1.0000000 bulk dielectric constant

 Exchange correlation treatment:
   GGA     =    --    GGA type
   LEXCH   =     8    internal setting for exchange type
   VOSKOWN=      0    Vosko Wilk Nusair interpolation
   LHFCALC =     F    Hartree Fock is set to
   LHFONE  =     F    Hartree Fock one center treatment
   AEXX    =    0.0000 exact exchange contribution

 Linear response parameters
   LEPSILON=     F    determine dielectric tensor
   LRPA    =     F    only Hartree local field effects (RPA)
   LNABLA  =     F    use nabla operator in PAW spheres
   LVEL    =     F    velocity operator in full k-point grid
   LINTERFAST=   F  fast interpolation
   KINTER  =     0    interpolate to denser k-point grid
   CSHIFT  =0.1000    complex shift for real part using Kramers Kronig
   OMEGAMAX=  -1.0    maximum frequency
   DEG_THRESHOLD= 0.2000000E-02 threshold for treating states as degnerate
   RTIME   =   -0.100 relaxation time in fs
  (WPLASMAI=    0.000 imaginary part of plasma frequency in eV, 0.658/RTIME)
   DFIELD  = 0.0000000 0.0000000 0.0000000 field for delta impulse in time
 
 Orbital magnetization related:
   ORBITALMAG=     F  switch on orbital magnetization
   LCHIMAG   =     F  perturbation theory with respect to B field
   DQ        =  0.001000  dq finite difference perturbation B field
   LLRAUG    =     F  two centre corrections for induced B field



--------------------------------------------------------------------------------------------------------


 finite differences
   using selective dynamics as specified on POSCAR
   WARNING: If single coordinates had been selected the selection of coordinates
            is made according to the corresponding   d i r e c t   coordinates!
            Don't support selection of single cartesian coordinates -- sorry ...
  !
 charge density and potential will be updated during run
 spin polarized calculation
 RMM-DIIS sequential band-by-band and
  variant of blocked Davidson during initial phase
 perform sub-space diagonalisation
    before iterative eigenvector-optimisation
 modified Broyden-mixing scheme, WC =      100.0
 initial mixing is a Kerker type mixing with AMIX =  0.4000 and BMIX =      1.0000
 Hartree-type preconditioning will be used
 using additional bands          199
 real space projection scheme for non local part
 use partial core corrections
 calculate Harris-corrections to forces 
   (improved forces if not selfconsistent)
 use gradient corrections 
 use of overlap-Matrix (Vanderbilt PP)
 Fermi weights with tetrahedron method with Bloechl corrections


--------------------------------------------------------------------------------------------------------


  energy-cutoff  :      550.00
  volume of cell :     2399.65
      direct lattice vectors                 reciprocal lattice vectors
    11.222700119  0.000000000  0.000000000     0.089105116 -0.051444863  0.000000000
     5.611350060  9.719143402  0.000000000     0.000000000  0.102889726  0.000000000
     0.000000000  0.000000000 22.000000000     0.000000000  0.000000000  0.045454545

  length of vectors
    11.222700119 11.222700119 22.000000000     0.102889726  0.102889726  0.045454545


 
 k-points in units of 2pi/SCALE and weight: mesh auto                               
   0.00000000  0.00000000  0.00000000       0.250
   0.04455256 -0.02572243  0.00000000       0.250
   0.00000000  0.05144486  0.00000000       0.250
   0.04455256  0.02572243  0.00000000       0.250
 
 k-points in reciprocal lattice and weights: mesh auto                               
   0.00000000  0.00000000  0.00000000       0.250
   0.50000000  0.00000000  0.00000000       0.250
   0.00000000  0.50000000  0.00000000       0.250
   0.50000000  0.50000000  0.00000000       0.250
 
 position of ions in fractional coordinates (direct lattice) 
   0.78286727  0.87047040  0.30424290
   0.02983768  0.86945916  0.29924496
   0.28120129  0.36080835  0.31100919
   0.87141147  0.95720462  0.40532364
   0.11171227  0.45978374  0.41018728
   0.12416115  0.94939228  0.40171763
   0.87120732  0.44688589  0.41175022
   0.37335524  0.95481994  0.41623511
   0.87202825  0.20115389  0.40533639
   0.12463592  0.20462514  0.41084721
   0.62358624  0.94974717  0.41342561
   0.87118638  0.70458795  0.41108452
   0.37243419  0.20125104  0.41558401
   0.36606615  0.70873052  0.40727777
   0.62741675  0.45067015  0.41063890
   0.11297702  0.70612452  0.40765561
   0.62437905  0.20013347  0.41148242
   0.53870394  0.36710938  0.30858580
   0.53778217  0.11249853  0.31317761
   0.53750765  0.11690737  0.05312208
   0.10601595  0.41969037  0.11846928
   0.04888778  0.12614898  0.30624866
   0.02457803  0.10976810  0.04301178
   0.11692609  0.95242577  0.14601133
   0.36606111  0.45131742  0.41126633
   0.45077985  0.56183456  0.22205562
   0.62089594  0.70518575  0.41190750
   0.94863009  0.75638348  0.20655866
   0.79769888  0.61533998  0.31263760
   0.26993318  0.61420948  0.30693435
   0.19124466  0.26089449  0.22405845
   0.69977359  0.53884381  0.22171407
   0.03400402  0.62186611  0.31111429
   0.79088721  0.88457136  0.05901548
   0.04316713  0.86457015  0.05702026
   0.04214932  0.65754893  0.08413436
   0.62426370  0.21120473  0.13790275
   0.37657398  0.95440761  0.13612195
   0.02925571  0.37300287  0.31730058
   0.98299977  0.35389273  0.04284267
   0.86582947  0.20561363  0.13488096
   0.94832662  0.52146313  0.21684441
   0.30034573  0.10930966  0.31998283
   0.53942832  0.62745823  0.31929072
   0.28474063  0.11065050  0.05278920
   0.53473941  0.36708046  0.05001043
   0.35902779  0.20929735  0.13536762
   0.17955935  0.69144097  0.15796739
   0.52121715  0.62452862  0.05218568
   0.31510484  0.37379041  0.05623769
   0.64224589  0.93220452  0.14073248
   0.68331320  0.78573609  0.22332911
   0.82955276  0.68080959  0.12865456
   0.60856570  0.46009088  0.13042463
   0.32032827  0.87727505  0.31846690
   0.28720733  0.88377863  0.05287049
   0.60320482  0.71720033  0.13192617
   0.24390963  0.01493156  0.22942723
   0.69765379  0.05661641  0.22203663
   0.77321330  0.12593957  0.31280168
   0.53733211  0.87096477  0.31732470
   0.77414229  0.13035266  0.05102364
   0.53579334  0.87955842  0.05544832
   0.18145975  0.50980634  0.21712393
   0.93498988  0.30025067  0.22364507
   0.86379227  0.97742481  0.13912908
   0.71036838  0.29016713  0.22175692
   0.45761288  0.26185666  0.22139863
   0.85812908  0.43687154  0.13131625
   0.11007452  0.18780277  0.13408927
   0.75285836  0.59161469  0.04789180
   0.30150517  0.61600637  0.06302008
   0.37341890  0.73308670  0.13639205
   0.39367687  0.43420388  0.14336106
   0.78492523  0.36956292  0.31387190
   0.76690983  0.35547874  0.04723485
   0.92081756  0.07087941  0.22711991
   0.46493139  0.79344097  0.22696960
   0.23684180  0.80433813  0.23555822
   0.45699587  0.03041479  0.22342901
   0.45593946  0.53219489  0.44518647
 
 position of ions in cartesian coordinates  (Angst):
  13.67039871  8.46022661  6.69334380
   5.21369902  8.45039824  6.58338917
   5.18045966  3.50674806  6.84220215
  15.15079983  9.30320894  8.91712005
   3.83372084  4.46870406  9.02412009
   6.72079579  9.22727973  8.83778791
  12.28493171  4.34334808  9.05850484
   9.54788279  9.28003194  9.15717251
  10.91525640  1.95504352  8.91740058
   2.54697478  1.98878105  9.03863872
  12.32768524  9.23072890  9.09536337
  13.73075310  6.84799137  9.04385933
   5.30900721  1.95598772  9.14284827
   8.08518565  6.88825358  8.96011086
   9.57017793  4.38012778  9.03405570
   5.23021909  6.86292543  8.96842340
   8.13023776  1.94512586  9.05261323
   8.10569205  3.56798868  6.78888762
   6.66663667  1.09338938  6.88990747
   6.68829533  1.13623949  1.16868568
   3.54481477  4.07903089  2.60632415
   1.25651900  1.22606005  6.73747042
   0.89177912  1.06685188  0.94625918
   6.65662082  9.25676268  3.21224924
   6.64069413  4.38641875  9.04785936
   8.21161749  5.46055068  4.88522361
  10.92517311  6.85380148  9.06196508
  14.89052349  7.35139954  4.54429044
  12.40522337  5.98057747  6.87802723
   6.47592350  5.96958998  6.75255567
   3.61025176  2.53567096  4.92928596
  10.87699043  5.23710023  4.87770962
   3.87112535  6.04400595  6.84451448
  13.83952957  8.59727594  1.29834050
   5.33585754  8.40288130  1.25444562
   4.16276635  6.39081232  1.85095594
   8.19106793  2.05272901  3.03386046
   9.58169197  9.27602438  2.99468299
   2.42137770  3.62526840  6.98061275
  13.01772761  3.43953415  0.94253867
  10.87071458  1.99838834  2.96738112
  13.56889747  5.06817493  4.77057707
   3.98406485  1.06239627  7.03962221
   9.57473003  6.09835653  7.02439595
   3.81645733  1.07542807  1.16136251
   8.06103695  3.56770761  1.10022937
   5.20370193  2.03419094  2.97808767
   5.89505811  6.72021393  3.47528262
   9.35391247  6.06988326  1.14808489
   5.63379595  3.63292257  1.23722918
  12.43865899  9.06022944  3.09611465
  12.07765945  7.63668176  4.91324031
  13.13008285  6.61688605  2.83040042
   9.41148140  4.47168927  2.86934196
   8.51764551  8.52636201  7.00627176
   8.18243297  8.58957124  1.16315084
  10.79404887  6.97057286  2.90237567
   2.82111088  0.14512195  5.04739913
   8.14725383  0.55026304  4.88480591
   9.38423206  1.22402475  6.88163687
  10.91760532  8.46503154  6.98114342
   9.41942116  1.26691622  1.12252010
  10.94855813  8.54855442  1.21986301
   4.89717016  4.95488097  4.77672644
  12.17792264  2.91817929  4.92019149
  15.17875438  9.49973189  3.06083977
   9.60048058  2.82017593  4.87865235
   6.60502154  2.54502246  4.87076983
  12.08196442  4.24601711  2.88895759
   2.28916049  1.82528210  2.94996395
  11.76886073  5.74998803  1.05361964
   6.84032947  5.98705427  1.38644184
   8.30437444  7.12497479  3.00062500
   6.85458747  4.22008978  3.15394323
  10.88272734  3.59183500  6.90518173
  10.60151464  3.45494883  1.03916660
  10.73178855  0.68888712  4.99663803
   9.67006061  7.71156659  4.99333123
   7.17142736  7.81747765  5.18228089
   5.29939565  0.29560570  4.91543814
   8.10320370  5.17247847  9.79410237
 


--------------------------------------------------------------------------------------------------------


 k-point  1 :   0.0000 0.0000 0.0000  plane waves:   70321
 k-point  2 :   0.5000 0.0000 0.0000  plane waves:   70264
 k-point  3 :   0.0000 0.5000 0.0000  plane waves:   70264
 k-point  4 :   0.5000 0.5000 0.0000  plane waves:   70264

 maximum and minimum number of plane-waves per node :     70321    70264

 maximum number of plane-waves:     70321
 maximum index in each direction: 
   IXMAX=   21   IYMAX=   21   IZMAX=   42
   IXMIN=  -21   IYMIN=  -21   IZMIN=  -42


 serial   3D FFT for wavefunctions
 parallel 3D FFT for charge:
    minimum data exchange during FFTs selected (reduces bandwidth)


 total amount of memory used by VASP MPI-rank0   387231. kBytes
=======================================================================

   base      :      30000. kBytes
   nonlr-proj:      96398. kBytes
   fftplans  :      13535. kBytes
   grid      :     134409. kBytes
   one-center:       2519. kBytes
   wavefun   :     110370. kBytes
 
     INWAV:  cpu time    0.0000: real time    0.0003
 Broyden mixing: mesh for mixing (old mesh)
   NGX = 43   NGY = 43   NGZ = 85
  (NGX  =180   NGY  =180   NGZ  =336)
  gives a total of 157165 points

 initial charge density was supplied:
 charge density of overlapping atoms calculated
 number of electron     754.0000000 magnetization     238.0000000
 keeping initial charge density in first step


--------------------------------------------------------------------------------------------------------


 Maximum index for non-local projection operator         7659
 Maximum index for augmentation-charges         1119 (set IRDMAX)


--------------------------------------------------------------------------------------------------------


 First call to EWALD:  gamma=   0.132
 Maximum number of real-space cells 4x 4x 2
 Maximum number of reciprocal cells 2x 2x 4

    FEWALD:  cpu time    0.0044: real time    0.0044


--------------------------------------- Iteration      1(   1)  ---------------------------------------


    POTLOK:  cpu time    0.5070: real time    0.5112
    SETDIJ:  cpu time    0.0338: real time    0.0339
     EDDAV:  cpu time   57.3213: real time   57.6700
 BZINTS: Fermi energy: 14.937838;754.000000 electrons
         Band energy:6421.490805;  BLOECHL correction: -0.005579
       DOS:  cpu time    0.0238: real time    0.0250
    --------------------------------------------
      LOOP:  cpu time   57.8858: real time   58.2402

 eigenvalue-minimisations  :  9216
 total energy-change (2. order) : 0.6591004E+04  (-0.3313365E+05)
 number of electron     754.0000000 magnetization     238.0000000
 augmentation part      754.0000000 magnetization     238.0000000

 Free energy of the ion-electron system (eV)
  ---------------------------------------------------
  alpha Z        PSCENC =      1885.12594062
  Ewald energy   TEWEN  =    213026.72021873
  -Hartree energ DENC   =   -278005.66071708
  -exchange      EXHF   =         0.00000000
  -V(xc)+E(xc)   XCENC  =      1038.82260057
  PAW double counting   =     58246.24677956   -59395.80901338
  entropy T*S    EENTRO =         0.00000000
  eigenvalues    EBANDS =      6421.49080474
  atomic energy  EATOM  =     63374.06744491
  Solvation  Ediel_sol  =         0.00000000
  ---------------------------------------------------
  free energy    TOTEN  =      6591.00405867 eV

  energy without entropy =     6591.00405867  energy(sigma->0) =     6591.00405867


--------------------------------------------------------------------------------------------------------




--------------------------------------- Iteration      1(   2)  ---------------------------------------


     EDDAV:  cpu time   57.2856: real time   57.4866
 BZINTS: Fermi energy:  4.288801;754.000000 electrons
         Band energy: 139.194608;  BLOECHL correction: -0.013631
       DOS:  cpu time    0.0216: real time    0.0667
    --------------------------------------------
      LOOP:  cpu time   57.3072: real time   57.5533

 eigenvalue-minimisations  :  9216
 total energy-change (2. order) :-0.6282296E+04  (-0.5689568E+04)
 number of electron     754.0000000 magnetization     238.0000000
 augmentation part      754.0000000 magnetization     238.0000000

 Free energy of the ion-electron system (eV)
  ---------------------------------------------------
  alpha Z        PSCENC =      1885.12594062
  Ewald energy   TEWEN  =    213026.72021873
  -Hartree energ DENC   =   -278005.66071708
  -exchange      EXHF   =         0.00000000
  -V(xc)+E(xc)   XCENC  =      1038.82260057
  PAW double counting   =     58246.24677956   -59395.80901338
  entropy T*S    EENTRO =         0.00000000
  eigenvalues    EBANDS =       139.19460771
  atomic energy  EATOM  =     63374.06744491
  Solvation  Ediel_sol  =         0.00000000
  ---------------------------------------------------
  free energy    TOTEN  =       308.70786164 eV

  energy without entropy =      308.70786164  energy(sigma->0) =      308.70786164


--------------------------------------------------------------------------------------------------------




--------------------------------------- Iteration      1(   3)  ---------------------------------------


     EDDAV:  cpu time   61.7741: real time   61.9758
 BZINTS: Fermi energy:  2.587611;754.000000 electrons
         Band energy:-665.197825;  BLOECHL correction: -0.018099
       DOS:  cpu time    0.0195: real time    0.0455
    --------------------------------------------
      LOOP:  cpu time   61.7936: real time   62.0213

 eigenvalue-minimisations  : 10176
 total energy-change (2. order) :-0.8043924E+03  (-0.6849090E+03)
 number of electron     754.0000000 magnetization     238.0000000
 augmentation part      754.0000000 magnetization     238.0000000

 Free energy of the ion-electron system (eV)
  ---------------------------------------------------
  alpha Z        PSCENC =      1885.12594062
  Ewald energy   TEWEN  =    213026.72021873
  -Hartree energ DENC   =   -278005.66071708
  -exchange      EXHF   =         0.00000000
  -V(xc)+E(xc)   XCENC  =      1038.82260057
  PAW double counting   =     58246.24677956   -59395.80901338
  entropy T*S    EENTRO =         0.00000000
  eigenvalues    EBANDS =      -665.19782452
  atomic energy  EATOM  =     63374.06744491
  Solvation  Ediel_sol  =         0.00000000
  ---------------------------------------------------
  free energy    TOTEN  =      -495.68457059 eV

  energy without entropy =     -495.68457059  energy(sigma->0) =     -495.68457059


--------------------------------------------------------------------------------------------------------




--------------------------------------- Iteration      1(   4)  ---------------------------------------


     EDDAV:  cpu time   62.6678: real time   62.9241
 BZINTS: Fermi energy:  2.494130;754.000000 electrons
         Band energy:-705.772140;  BLOECHL correction: -0.013070
       DOS:  cpu time    0.0227: real time    0.0270
    --------------------------------------------
      LOOP:  cpu time   62.6905: real time   62.9512

 eigenvalue-minimisations  : 10368
 total energy-change (2. order) :-0.4057432E+02  (-0.3966046E+02)
 number of electron     754.0000000 magnetization     238.0000000
 augmentation part      754.0000000 magnetization     238.0000000

 Free energy of the ion-electron system (eV)
  ---------------------------------------------------
  alpha Z        PSCENC =      1885.12594062
  Ewald energy   TEWEN  =    213026.72021873
  -Hartree energ DENC   =   -278005.66071708
  -exchange      EXHF   =         0.00000000
  -V(xc)+E(xc)   XCENC  =      1038.82260057
  PAW double counting   =     58246.24677956   -59395.80901338
  entropy T*S    EENTRO =         0.00000000
  eigenvalues    EBANDS =      -705.77214004
  atomic energy  EATOM  =     63374.06744491
  Solvation  Ediel_sol  =         0.00000000
  ---------------------------------------------------
  free energy    TOTEN  =      -536.25888611 eV

  energy without entropy =     -536.25888611  energy(sigma->0) =     -536.25888611


--------------------------------------------------------------------------------------------------------




--------------------------------------- Iteration      1(   5)  ---------------------------------------


     EDDAV:  cpu time   68.2733: real time   68.5492
 BZINTS: Fermi energy:  2.492241;754.000000 electrons
         Band energy:-706.563770;  BLOECHL correction: -0.012763
       DOS:  cpu time    0.0226: real time    0.0956
    CHARGE:  cpu time    2.9787: real time    2.9897
    MIXING:  cpu time    0.0115: real time    0.0116
    --------------------------------------------
      LOOP:  cpu time   71.2862: real time   71.6461

 eigenvalue-minimisations  : 11472
 total energy-change (2. order) :-0.7916304E+00  (-0.7912437E+00)
 number of electron     753.9999996 magnetization     225.2158978
 augmentation part      316.2162668 magnetization     184.2487056

 Broyden mixing:
  rms(total) = 0.10501E+02    rms(broyden)= 0.10501E+02
  rms(prec ) = 0.10853E+02
  weight for this iteration     100.00

 Free energy of the ion-electron system (eV)
  ---------------------------------------------------
  alpha Z        PSCENC =      1885.12594062
  Ewald energy   TEWEN  =    213026.72021873
  -Hartree energ DENC   =   -278005.66071708
  -exchange      EXHF   =         0.00000000
  -V(xc)+E(xc)   XCENC  =      1038.82260057
  PAW double counting   =     58246.24677956   -59395.80901338
  entropy T*S    EENTRO =         0.00000000
  eigenvalues    EBANDS =      -706.56377045
  atomic energy  EATOM  =     63374.06744491
  Solvation  Ediel_sol  =         0.00000000
  ---------------------------------------------------
  free energy    TOTEN  =      -537.05051652 eV

  energy without entropy =     -537.05051652  energy(sigma->0) =     -537.05051652


--------------------------------------------------------------------------------------------------------




--------------------------------------- Iteration      1(   6)  ---------------------------------------


    POTLOK:  cpu time    0.4889: real time    0.5780
    SETDIJ:  cpu time    0.0336: real time    0.0337
    EDDIAG:  cpu time    9.8422: real time    9.8815
  RMM-DIIS:  cpu time   36.7203: real time   38.0074
    ORTHCH:  cpu time    1.3792: real time    1.3831
 BZINTS: Fermi energy:  0.933466;754.000000 electrons
         Band energy:***********;  BLOECHL correction: -0.022304
       DOS:  cpu time    0.0258: real time    0.0259
    CHARGE:  cpu time    2.9681: real time    2.9768
    MIXING:  cpu time    0.0116: real time    0.0121
    --------------------------------------------
      LOOP:  cpu time   51.4696: real time   52.8985

 eigenvalue-minimisations  :  9266
 total energy-change (2. order) :-0.1992555E+03  (-0.9101761E+02)
 number of electron     753.9999980 magnetization     221.9169764
 augmentation part      386.6439877 magnetization     187.9901045

 Broyden mixing:
  rms(total) = 0.21738E+02    rms(broyden)= 0.21738E+02
  rms(prec ) = 0.27121E+02
  weight for this iteration     100.00

 eigenvalues of (default mixing * dielectric matrix)
  average eigenvalue GAMMA=   0.1510
  0.1510

 Free energy of the ion-electron system (eV)
  ---------------------------------------------------
  alpha Z        PSCENC =      1885.12594062
  Ewald energy   TEWEN  =    213026.72021873
  -Hartree energ DENC   =   -276918.76212040
  -exchange      EXHF   =         0.00000000
  -V(xc)+E(xc)   XCENC  =      1001.72033402
  PAW double counting   =     63045.27097203   -64030.68128886
  entropy T*S    EENTRO =         0.00000000
  eigenvalues    EBANDS =     -2119.76748077
  atomic energy  EATOM  =     63374.06744491
  Solvation  Ediel_sol  =         0.00000000
  ---------------------------------------------------
  free energy    TOTEN  =      -736.30597972 eV

  energy without entropy =     -736.30597972  energy(sigma->0) =     -736.30597972


--------------------------------------------------------------------------------------------------------




--------------------------------------- Iteration      1(   7)  ---------------------------------------


    POTLOK:  cpu time    0.4915: real time    0.5245
    SETDIJ:  cpu time    0.0336: real time    0.0337
    EDDIAG:  cpu time    9.8016: real time    9.8306
  RMM-DIIS:  cpu time   37.4181: real time   37.5275
    ORTHCH:  cpu time    1.3775: real time    1.3814
 BZINTS: Fermi energy:  1.757722;754.000000 electrons
         Band energy:***********;  BLOECHL correction: -0.016463
       DOS:  cpu time    0.0240: real time    0.0242
    CHARGE:  cpu time    2.9241: real time    2.9390
    MIXING:  cpu time    0.0123: real time    0.0123
    --------------------------------------------
      LOOP:  cpu time   52.0827: real time   52.2732

 eigenvalue-minimisations  :  9239
 total energy-change (2. order) : 0.2313059E+03  (-0.1465033E+02)
 number of electron     753.9999985 magnetization     218.6410937
 augmentation part      349.5715073 magnetization     172.4414659

 Broyden mixing:
  rms(total) = 0.14450E+02    rms(broyden)= 0.14449E+02
  rms(prec ) = 0.18170E+02
  weight for this iteration     100.00

 eigenvalues of (default mixing * dielectric matrix)
  average eigenvalue GAMMA=   0.2066
  0.2066  0.2066

 Free energy of the ion-electron system (eV)
  ---------------------------------------------------
  alpha Z        PSCENC =      1885.12594062
  Ewald energy   TEWEN  =    213026.72021873
  -Hartree energ DENC   =   -277342.64007403
  -exchange      EXHF   =         0.00000000
  -V(xc)+E(xc)   XCENC  =      1017.33490169
  PAW double counting   =     63887.99405775   -64997.27147654
  entropy T*S    EENTRO =         0.00000000
  eigenvalues    EBANDS =     -1356.33105910
  atomic energy  EATOM  =     63374.06744491
  Solvation  Ediel_sol  =         0.00000000
  ---------------------------------------------------
  free energy    TOTEN  =      -505.00004598 eV

  energy without entropy =     -505.00004598  energy(sigma->0) =     -505.00004598


--------------------------------------------------------------------------------------------------------




--------------------------------------- Iteration      1(   8)  ---------------------------------------


    POTLOK:  cpu time    0.4798: real time    0.4909
    SETDIJ:  cpu time    0.0327: real time    0.0328
    EDDIAG:  cpu time    9.7274: real time    9.8385
  RMM-DIIS:  cpu time   37.4610: real time   37.6479
    ORTHCH:  cpu time    1.3759: real time    1.3812
 BZINTS: Fermi energy:  1.589372;754.000000 electrons
         Band energy:***********;  BLOECHL correction: -0.015764
       DOS:  cpu time    0.0243: real time    0.0244
    CHARGE:  cpu time    2.9709: real time    2.9829
    MIXING:  cpu time    0.0123: real time    0.0125
    --------------------------------------------
      LOOP:  cpu time   52.0842: real time   52.4111

 eigenvalue-minimisations  :  9244
 total energy-change (2. order) : 0.2915431E+02  (-0.1063144E+02)
 number of electron     754.0000007 magnetization     212.0225130
 augmentation part      352.5862037 magnetization     171.6678195

 Broyden mixing:
  rms(total) = 0.14776E+02    rms(broyden)= 0.14775E+02
  rms(prec ) = 0.17969E+02
  weight for this iteration     100.00

 eigenvalues of (default mixing * dielectric matrix)
  average eigenvalue GAMMA=   0.2672
  0.3748  0.3480  0.0787

 Free energy of the ion-electron system (eV)
  ---------------------------------------------------
  alpha Z        PSCENC =      1885.12594062
  Ewald energy   TEWEN  =    213026.72021873
  -Hartree energ DENC   =   -277398.70626909
  -exchange      EXHF   =         0.00000000
  -V(xc)+E(xc)   XCENC  =      1016.63373827
  PAW double counting   =     64673.04027462   -65812.98144205
  entropy T*S    EENTRO =         0.00000000
  eigenvalues    EBANDS =     -1239.74564260
  atomic energy  EATOM  =     63374.06744491
  Solvation  Ediel_sol  =         0.00000000
  ---------------------------------------------------
  free energy    TOTEN  =      -475.84573659 eV

  energy without entropy =     -475.84573659  energy(sigma->0) =     -475.84573659


--------------------------------------------------------------------------------------------------------




--------------------------------------- Iteration      1(   9)  ---------------------------------------


    POTLOK:  cpu time    0.4830: real time    0.4915
    SETDIJ:  cpu time    0.0332: real time    0.0334
    EDDIAG:  cpu time    9.7668: real time    9.7965
  RMM-DIIS:  cpu time   37.5077: real time   37.6509
    ORTHCH:  cpu time    1.3784: real time    1.3873
 BZINTS: Fermi energy:  1.348450;754.000000 electrons
         Band energy:***********;  BLOECHL correction: -0.014862
       DOS:  cpu time    0.0208: real time    0.0209
    CHARGE:  cpu time    2.9733: real time    2.9817
    MIXING:  cpu time    0.0127: real time    0.0130
    --------------------------------------------
      LOOP:  cpu time   52.1760: real time   52.3753

 eigenvalue-minimisations  :  9250
 total energy-change (2. order) :-0.4470396E+02  (-0.1528561E+02)
 number of electron     753.9999981 magnetization     204.5213209
 augmentation part      358.9916730 magnetization     158.7004101

 Broyden mixing:
  rms(total) = 0.16390E+02    rms(broyden)= 0.16390E+02
  rms(prec ) = 0.18879E+02
  weight for this iteration     100.00

 eigenvalues of (default mixing * dielectric matrix)
  average eigenvalue GAMMA=   0.3087
  0.7076  0.3309  0.0982  0.0982

 Free energy of the ion-electron system (eV)
  ---------------------------------------------------
  alpha Z        PSCENC =      1885.12594062
  Ewald energy   TEWEN  =    213026.72021873
  -Hartree energ DENC   =   -277024.43828038
  -exchange      EXHF   =         0.00000000
  -V(xc)+E(xc)   XCENC  =      1032.33548435
  PAW double counting   =     65909.84734015   -67070.60268509
  entropy T*S    EENTRO =         0.00000000
  eigenvalues    EBANDS =     -1653.60516136
  atomic energy  EATOM  =     63374.06744491
  Solvation  Ediel_sol  =         0.00000000
  ---------------------------------------------------
  free energy    TOTEN  =      -520.54969808 eV

  energy without entropy =     -520.54969808  energy(sigma->0) =     -520.54969808


--------------------------------------------------------------------------------------------------------




--------------------------------------- Iteration      1(  10)  ---------------------------------------


    POTLOK:  cpu time    0.4869: real time    0.5545
    SETDIJ:  cpu time    0.0334: real time    0.0335
    EDDIAG:  cpu time    9.8264: real time    9.8558
  RMM-DIIS:  cpu time   37.5431: real time   37.6540
    ORTHCH:  cpu time    1.3742: real time    1.3790
 BZINTS: Fermi energy:  1.796677;754.000000 electrons
         Band energy:***********;  BLOECHL correction: -0.004987
       DOS:  cpu time    0.0233: real time    0.0233
    CHARGE:  cpu time    2.9228: real time    2.9346
    MIXING:  cpu time    0.0131: real time    0.0132
    --------------------------------------------
      LOOP:  cpu time   52.2233: real time   52.4480

 eigenvalue-minimisations  :  9252
 total energy-change (2. order) : 0.8607505E+02  (-0.1251850E+02)
 number of electron     753.9999984 magnetization     198.8661445
 augmentation part      358.9364426 magnetization     145.0891977

 Broyden mixing:
  rms(total) = 0.10653E+02    rms(broyden)= 0.10653E+02
  rms(prec ) = 0.12886E+02
  weight for this iteration     100.00

 eigenvalues of (default mixing * dielectric matrix)
  average eigenvalue GAMMA=   0.3347
  0.6522  0.6522  0.1431  0.1431  0.0829

 Free energy of the ion-electron system (eV)
  ---------------------------------------------------
  alpha Z        PSCENC =      1885.12594062
  Ewald energy   TEWEN  =    213026.72021873
  -Hartree energ DENC   =   -277463.19616838
  -exchange      EXHF   =         0.00000000
  -V(xc)+E(xc)   XCENC  =      1036.98442828
  PAW double counting   =     67327.75901898   -68542.98609372
  entropy T*S    EENTRO =         0.00000000
  eigenvalues    EBANDS =     -1078.94943979
  atomic energy  EATOM  =     63374.06744491
  Solvation  Ediel_sol  =         0.00000000
  ---------------------------------------------------
  free energy    TOTEN  =      -434.47465037 eV

  energy without entropy =     -434.47465037  energy(sigma->0) =     -434.47465037


--------------------------------------------------------------------------------------------------------




--------------------------------------- Iteration      1(  11)  ---------------------------------------


    POTLOK:  cpu time    0.4926: real time    0.6458
    SETDIJ:  cpu time    0.0334: real time    0.0337
    EDDIAG:  cpu time    9.8165: real time    9.8456
  RMM-DIIS:  cpu time   37.4892: real time   37.6243
[...]
      9.574730  6.098357  7.024396            0           0           0  
      3.816457  1.075428  1.161363            0           0           0  
      8.061037  3.567708  1.100229            0           0           0  
      5.203702  2.034191  2.978088            0           0           0  
      5.895058  6.720214  3.475283            0           0           0  
      9.353912  6.069883  1.148085            0           0           0  
      5.633796  3.632923  1.237229            0           0           0  
     12.438659  9.060229  3.096115            0           0           0  
     12.077659  7.636682  4.913240            0           0           0  
     13.130083  6.616886  2.830400            0           0           0  
      9.411481  4.471689  2.869342            0           0           0  
      8.517646  8.526362  7.006272            0           0           0  
      8.182433  8.589571  1.163151            0           0           0  
     10.794049  6.970573  2.902376            0           0           0  
      2.821111  0.145122  5.047399            0           0           0  
      8.147254  0.550263  4.884806            0           0           0  
      9.384232  1.224025  6.881637            0           0           0  
     10.917605  8.465032  6.981143            0           0           0  
      9.419421  1.266916  1.122520            0           0           0  
     10.948558  8.548554  1.219863            0           0           0  
      4.897170  4.954881  4.776726            0           0           0  
     12.177923  2.918179  4.920191            0           0           0  
     15.178754  9.499732  3.060840            0           0           0  
      9.600481  2.820176  4.878652            0           0           0  
      6.605022  2.545022  4.870770            0           0           0  
     12.081964  4.246017  2.888958            0           0           0  
      2.289160  1.825282  2.949964            0           0           0  
     11.768861  5.749988  1.053620            0           0           0  
      6.840329  5.987054  1.386442            0           0           0  
      8.304374  7.124975  3.000625            0           0           0  
      6.854587  4.220090  3.153943            0           0           0  
     10.882727  3.591835  6.905182            0           0           0  
     10.601515  3.454949  1.039167            0           0           0  
     10.731789  0.688887  4.996638            0           0           0  
      9.670061  7.711567  4.993331            0           0           0  
      7.171427  7.817478  5.182281            0           0           0  
      5.299396  0.295606  4.915438            0           0           0  
      8.103204  5.172478  9.794102     0.093828    0.349435    0.932251  
 
   2 f  =   25.501854 THz   160.232873 2PiTHz  850.650252 cm-1   105.467227 meV
             X         Y         Z           dx          dy          dz
     13.670399  8.460227  6.693344            0           0           0  
      5.213699  8.450398  6.583389            0           0           0  
      5.180460  3.506748  6.842202            0           0           0  
     15.150800  9.303209  8.917120            0           0           0  
      3.833721  4.468704  9.024120            0           0           0  
      6.720796  9.227280  8.837788            0           0           0  
     12.284932  4.343348  9.058505            0           0           0  
      9.547883  9.280032  9.157173            0           0           0  
     10.915256  1.955044  8.917401            0           0           0  
      2.546975  1.988781  9.038639            0           0           0  
     12.327685  9.230729  9.095363            0           0           0  
     13.730753  6.847991  9.043859            0           0           0  
      5.309007  1.955988  9.142848            0           0           0  
      8.085186  6.888254  8.960111            0           0           0  
      9.570178  4.380128  9.034056            0           0           0  
      5.230219  6.862925  8.968423            0           0           0  
      8.130238  1.945126  9.052613            0           0           0  
      8.105692  3.567989  6.788888            0           0           0  
      6.666637  1.093389  6.889907            0           0           0  
      6.688295  1.136239  1.168686            0           0           0  
      3.544815  4.079031  2.606324            0           0           0  
      1.256519  1.226060  6.737470            0           0           0  
      0.891779  1.066852  0.946259            0           0           0  
      6.656621  9.256763  3.212249            0           0           0  
      6.640694  4.386419  9.047859            0           0           0  
      8.211617  5.460551  4.885224            0           0           0  
     10.925173  6.853801  9.061965            0           0           0  
     14.890523  7.351400  4.544290            0           0           0  
     12.405223  5.980577  6.878027            0           0           0  
      6.475924  5.969590  6.752556            0           0           0  
      3.610252  2.535671  4.929286            0           0           0  
     10.876990  5.237100  4.877710            0           0           0  
      3.871125  6.044006  6.844514            0           0           0  
     13.839530  8.597276  1.298341            0           0           0  
      5.335858  8.402881  1.254446            0           0           0  
      4.162766  6.390812  1.850956            0           0           0  
      8.191068  2.052729  3.033860            0           0           0  
      9.581692  9.276024  2.994683            0           0           0  
      2.421378  3.625268  6.980613            0           0           0  
     13.017728  3.439534  0.942539            0           0           0  
     10.870715  1.998388  2.967381            0           0           0  
     13.568897  5.068175  4.770577            0           0           0  
      3.984065  1.062396  7.039622            0           0           0  
      9.574730  6.098357  7.024396            0           0           0  
      3.816457  1.075428  1.161363            0           0           0  
      8.061037  3.567708  1.100229            0           0           0  
      5.203702  2.034191  2.978088            0           0           0  
      5.895058  6.720214  3.475283            0           0           0  
      9.353912  6.069883  1.148085            0           0           0  
      5.633796  3.632923  1.237229            0           0           0  
     12.438659  9.060229  3.096115            0           0           0  
     12.077659  7.636682  4.913240            0           0           0  
     13.130083  6.616886  2.830400            0           0           0  
      9.411481  4.471689  2.869342            0           0           0  
      8.517646  8.526362  7.006272            0           0           0  
      8.182433  8.589571  1.163151            0           0           0  
     10.794049  6.970573  2.902376            0           0           0  
      2.821111  0.145122  5.047399            0           0           0  
      8.147254  0.550263  4.884806            0           0           0  
      9.384232  1.224025  6.881637            0           0           0  
     10.917605  8.465032  6.981143            0           0           0  
      9.419421  1.266916  1.122520            0           0           0  
     10.948558  8.548554  1.219863            0           0           0  
      4.897170  4.954881  4.776726            0           0           0  
     12.177923  2.918179  4.920191            0           0           0  
     15.178754  9.499732  3.060840            0           0           0  
      9.600481  2.820176  4.878652            0           0           0  
      6.605022  2.545022  4.870770            0           0           0  
     12.081964  4.246017  2.888958            0           0           0  
      2.289160  1.825282  2.949964            0           0           0  
     11.768861  5.749988  1.053620            0           0           0  
      6.840329  5.987054  1.386442            0           0           0  
      8.304374  7.124975  3.000625            0           0           0  
      6.854587  4.220090  3.153943            0           0           0  
     10.882727  3.591835  6.905182            0           0           0  
     10.601515  3.454949  1.039167            0           0           0  
     10.731789  0.688887  4.996638            0           0           0  
      9.670061  7.711567  4.993331            0           0           0  
      7.171427  7.817478  5.182281            0           0           0  
      5.299396  0.295606  4.915438            0           0           0  
      8.103204  5.172478  9.794102     0.987588   -0.151137   -0.042747  
 
   3 f  =   19.743819 THz   124.054071 2PiTHz  658.582879 cm-1    81.653900 meV
             X         Y         Z           dx          dy          dz
     13.670399  8.460227  6.693344            0           0           0  
      5.213699  8.450398  6.583389            0           0           0  
      5.180460  3.506748  6.842202            0           0           0  
     15.150800  9.303209  8.917120            0           0           0  
      3.833721  4.468704  9.024120            0           0           0  
      6.720796  9.227280  8.837788            0           0           0  
     12.284932  4.343348  9.058505            0           0           0  
      9.547883  9.280032  9.157173            0           0           0  
     10.915256  1.955044  8.917401            0           0           0  
      2.546975  1.988781  9.038639            0           0           0  
     12.327685  9.230729  9.095363            0           0           0  
     13.730753  6.847991  9.043859            0           0           0  
      5.309007  1.955988  9.142848            0           0           0  
      8.085186  6.888254  8.960111            0           0           0  
      9.570178  4.380128  9.034056            0           0           0  
      5.230219  6.862925  8.968423            0           0           0  
      8.130238  1.945126  9.052613            0           0           0  
      8.105692  3.567989  6.788888            0           0           0  
      6.666637  1.093389  6.889907            0           0           0  
      6.688295  1.136239  1.168686            0           0           0  
      3.544815  4.079031  2.606324            0           0           0  
      1.256519  1.226060  6.737470            0           0           0  
      0.891779  1.066852  0.946259            0           0           0  
      6.656621  9.256763  3.212249            0           0           0  
      6.640694  4.386419  9.047859            0           0           0  
      8.211617  5.460551  4.885224            0           0           0  
     10.925173  6.853801  9.061965            0           0           0  
     14.890523  7.351400  4.544290            0           0           0  
     12.405223  5.980577  6.878027            0           0           0  
      6.475924  5.969590  6.752556            0           0           0  
      3.610252  2.535671  4.929286            0           0           0  
     10.876990  5.237100  4.877710            0           0           0  
      3.871125  6.044006  6.844514            0           0           0  
     13.839530  8.597276  1.298341            0           0           0  
      5.335858  8.402881  1.254446            0           0           0  
      4.162766  6.390812  1.850956            0           0           0  
      8.191068  2.052729  3.033860            0           0           0  
      9.581692  9.276024  2.994683            0           0           0  
      2.421378  3.625268  6.980613            0           0           0  
     13.017728  3.439534  0.942539            0           0           0  
     10.870715  1.998388  2.967381            0           0           0  
     13.568897  5.068175  4.770577            0           0           0  
      3.984065  1.062396  7.039622            0           0           0  
      9.574730  6.098357  7.024396            0           0           0  
      3.816457  1.075428  1.161363            0           0           0  
      8.061037  3.567708  1.100229            0           0           0  
      5.203702  2.034191  2.978088            0           0           0  
      5.895058  6.720214  3.475283            0           0           0  
      9.353912  6.069883  1.148085            0           0           0  
      5.633796  3.632923  1.237229            0           0           0  
     12.438659  9.060229  3.096115            0           0           0  
     12.077659  7.636682  4.913240            0           0           0  
     13.130083  6.616886  2.830400            0           0           0  
      9.411481  4.471689  2.869342            0           0           0  
      8.517646  8.526362  7.006272            0           0           0  
      8.182433  8.589571  1.163151            0           0           0  
     10.794049  6.970573  2.902376            0           0           0  
      2.821111  0.145122  5.047399            0           0           0  
      8.147254  0.550263  4.884806            0           0           0  
      9.384232  1.224025  6.881637            0           0           0  
     10.917605  8.465032  6.981143            0           0           0  
      9.419421  1.266916  1.122520            0           0           0  
     10.948558  8.548554  1.219863            0           0           0  
      4.897170  4.954881  4.776726            0           0           0  
     12.177923  2.918179  4.920191            0           0           0  
     15.178754  9.499732  3.060840            0           0           0  
      9.600481  2.820176  4.878652            0           0           0  
      6.605022  2.545022  4.870770            0           0           0  
     12.081964  4.246017  2.888958            0           0           0  
      2.289160  1.825282  2.949964            0           0           0  
     11.768861  5.749988  1.053620            0           0           0  
      6.840329  5.987054  1.386442            0           0           0  
      8.304374  7.124975  3.000625            0           0           0  
      6.854587  4.220090  3.153943            0           0           0  
     10.882727  3.591835  6.905182            0           0           0  
     10.601515  3.454949  1.039167            0           0           0  
     10.731789  0.688887  4.996638            0           0           0  
      9.670061  7.711567  4.993331            0           0           0  
      7.171427  7.817478  5.182281            0           0           0  
      5.299396  0.295606  4.915438            0           0           0  
      8.103204  5.172478  9.794102     0.125960    0.924691   -0.359278  
 
 Finite differences POTIM=  1.500000000000000E-002
  LATTYP: Found a hexagonal cell.
 ALAT       =    11.2227001190
 C/A-ratio  =     1.9603125600
  
  Lattice vectors:
  
 A1 = (   5.6113500595,  -9.7191434021,   0.0000000000)
 A2 = ( -11.2227001190,   0.0000000000,   0.0000000000)
 A3 = (   0.0000000000,   0.0000000000, -22.0000000000)


Analysis of symmetry for initial positions (statically):
=====================================================================
 Subroutine PRICEL returns:
 Original cell was already a primitive cell.
 

 Routine SETGRP: Setting up the symmetry group for a 
 hexagonal supercell.


 Subroutine GETGRP returns: Found  1 space group operations
 (whereof  1 operations were pure point group operations)
 out of a pool of 24 trial point group operations.


The static configuration has the point symmetry C_1 .


Analysis of symmetry for dynamics (positions and initial velocities):
=====================================================================
 Subroutine PRICEL returns:
 Original cell was already a primitive cell.
 

 Routine SETGRP: Setting up the symmetry group for a 
 hexagonal supercell.


 Subroutine GETGRP returns: Found  1 space group operations
 (whereof  1 operations were pure point group operations)
 out of a pool of 24 trial point group operations.


The dynamic configuration has the point symmetry C_1 .


Analysis of constrained symmetry for selective dynamics:
=====================================================================
 Subroutine PRICEL returns:
 Original cell was already a primitive cell.
 

 Routine SETGRP: Setting up the symmetry group for a 
 hexagonal supercell.


 Subroutine GETGRP returns: Found  1 space group operations
 (whereof  1 operations were pure point group operations)
 out of a pool of 24 trial point group operations.


The constrained configuration has the point symmetry C_1 .


Analysis of structural, dynamic, and magnetic symmetry:
=====================================================================
 Subroutine PRICEL returns:
 Original cell was already a primitive cell.
 

 Routine SETGRP: Setting up the symmetry group for a 
 hexagonal supercell.


 Subroutine GETGRP returns: Found  1 space group operations
 (whereof  1 operations were pure point group operations)
 out of a pool of 24 trial point group operations.


The magnetic configuration has the point symmetry C_1 .


 Subroutine INISYM returns: Found  1 space group operations
 (whereof  1 operations are pure point group operations),
 and found     1 'primitive' translations

 
 KPOINTS: mesh auto                               

Automatic generation of k-mesh.
Space group operators:
 irot       det(A)        alpha          n_x          n_y          n_z        tau_x        tau_y        tau_z
    1     1.000000     0.000000     1.000000     0.000000     0.000000     0.000000     0.000000     0.000000
 
 Subroutine IBZKPT returns following result:
 ===========================================
 
 Found      4 irreducible k-points:
 
 Following reciprocal coordinates:
            Coordinates               Weight
  0.000000  0.000000  0.000000      1.000000
  0.500000  0.000000  0.000000      1.000000
  0.000000  0.500000  0.000000      1.000000
  0.500000  0.500000  0.000000      1.000000
 
 Following cartesian coordinates:
            Coordinates               Weight
  0.000000  0.000000  0.000000      1.000000
  0.044553 -0.025722  0.000000      1.000000
  0.000000  0.051445  0.000000      1.000000
  0.044553  0.025722  0.000000      1.000000
 
 TETIRR: Found     12 inequivalent tetrahedra from       24
     LOOP+:  cpu time  590.3979: real time  593.2864
    4ORBIT:  cpu time    0.0000: real time    0.0000
 BZINTS: Fermi energy:  1.364007;754.000000 electrons
         Band energy:***********;  BLOECHL correction: -0.217382

 total amount of memory used by VASP MPI-rank0   387231. kBytes
=======================================================================

   base      :      30000. kBytes
   nonlr-proj:      96398. kBytes
   fftplans  :      13535. kBytes
   grid      :     134409. kBytes
   one-center:       2519. kBytes
   wavefun   :     110370. kBytes
 
  
  
 General timing and accounting informations for this job:
 ========================================================
  
                  Total CPU time used (sec):     8146.420
                            User time (sec):     8060.168
                          System time (sec):       86.252
                         Elapsed time (sec):     8187.789
  
                   Maximum memory used (kb):      726616.
                   Average memory used (kb):           0.
  
                          Minor page faults:     27571129
                          Major page faults:          150
                 Voluntary context switches:         6337
