 vasp.5.4.4.18Apr17-6-g9f103f2a35 (build Oct 25 2019 11:13:22) complex          
  
 executed on             LinuxIFC date 2022.02.04  20:31:28
 running on   48 total cores
 distrk:  each k-point on   48 cores,    1 groups
 distr:  one band on NCORES_PER_BAND=   1 cores,   48 groups


--------------------------------------------------------------------------------------------------------


 INCAR:
 POTCAR:    PAW_PBE Pt 04Feb2005                  
 POTCAR:    PAW_PBE Fe 06Sep2000                  
 POTCAR:    PAW_PBE Co 02Aug2007                  
 POTCAR:    PAW_PBE Cu 22Jun2005                  
 POTCAR:    PAW_PBE Ni 02Aug2007                  
 POTCAR:    PAW_PBE H 15Jun2001                   

 ----------------------------------------------------------------------------- 
|                                                                             |
|           W    W    AA    RRRRR   N    N  II  N    N   GGGG   !!!           |
|           W    W   A  A   R    R  NN   N  II  NN   N  G    G  !!!           |
|           W    W  A    A  R    R  N N  N  II  N N  N  G       !!!           |
|           W WW W  AAAAAA  RRRRR   N  N N  II  N  N N  G  GGG   !            |
|           WW  WW  A    A  R   R   N   NN  II  N   NN  G    G                |
|           W    W  A    A  R    R  N    N  II  N    N   GGGG   !!!           |
|                                                                             |
|      For optimal performance we recommend to set                            |
|        NCORE= 4 - approx SQRT( number of cores)                             |
|      NCORE specifies how many cores store one orbital (NPAR=cpu/NCORE).     |
|      This setting can  greatly improve the performance of VASP for DFT.     |
|      The default,   NCORE=1            might be grossly inefficient         |
|      on modern multi-core architectures or massively parallel machines.     |
|      Do your own testing !!!!                                               |
|      Unfortunately you need to use the default for GW and RPA calculations. |
|      (for HF NCORE is supported but not extensively tested yet)             |
|                                                                             |
 ----------------------------------------------------------------------------- 

 POTCAR:    PAW_PBE Pt 04Feb2005                  
   VRHFIN =Pt: s1d9                                                             
   LEXCH  = PE                                                                  
   EATOM  =   729.1176 eV,   53.5886 Ry                                         
                                                                                
   TITEL  = PAW_PBE Pt 04Feb2005                                                
   LULTRA =        F    use ultrasoft PP ?                                      
   IUNSCR =        1    unscreen: 0-lin 1-nonlin 2-no                           
   RPACOR =    2.330    partial core radius                                     
   POMASS =  195.080; ZVAL   =   10.000    mass and valenz                      
   RCORE  =    2.600    outmost cutoff radius                                   
   RWIGS  =    2.750; RWIGS  =    1.455    wigner-seitz radius (au A)           
   ENMAX  =  230.283; ENMIN  =  172.712 eV                                      
   ICORE  =        3    local potential                                         
   LCOR   =        T    correct aug charges                                     
   LPAW   =        T    paw PP                                                  
   EAUG   =  358.966                                                            
   DEXC   =    0.000                                                            
   RMAX   =    2.658    core radius for proj-oper                               
   RAUG   =    1.300    factor for augmentation sphere                          
   RDEP   =    2.761    radius for radial grids                                 
   RDEPT  =    2.203    core radius for aug-charge                              
                                                                                
   Atomic configuration                                                         
   16 entries                                                                   
     n  l   j            E        occ.                                          
     1  0  0.50    -78401.1885   2.0000                                         
     2  0  0.50    -13770.7750   2.0000                                         
     2  1  1.50    -11931.0468   6.0000                                         
     3  0  0.50     -3234.7234   2.0000                                         
     3  1  1.50     -2699.2216   6.0000                                         
     3  2  2.50     -2119.5714  10.0000                                         
     4  0  0.50      -695.1528   2.0000                                         
     4  1  1.50      -519.6034   6.0000                                         
     4  2  2.50      -306.6786  10.0000                                         
     4  3  3.50       -70.1041  14.0000                                         
     5  0  0.50      -101.7747   2.0000                                         
     5  1  1.50       -55.9873   6.0000                                         
     5  2  2.50        -6.1423   9.0000                                         
     6  0  0.50        -5.6573   1.0000                                         
     6  1  1.50        -6.8029   0.0000                                         
     5  3  2.50        -1.3606   0.0000                                         
   Description                                                                  
     l       E           TYP  RCUT    TYP  RCUT                                 
     2     -6.1423404     23  2.500                                             
     2     -7.5029230     23  2.500                                             
     0     -5.6573207     23  2.500                                             
     0      0.7416693     23  2.500                                             
     1     -2.7211652     23  2.600                                             
     1     20.4087390     23  2.600                                             
     3     -1.3605826     23  2.500                                             
  local pseudopotential read in
  partial core-charges read in
  partial kinetic energy density read in
  atomic valenz-charges read in
  non local Contribution for L=           2  read in
    real space projection operators read in
  non local Contribution for L=           2  read in
    real space projection operators read in
  non local Contribution for L=           0  read in
    real space projection operators read in
  non local Contribution for L=           0  read in
    real space projection operators read in
  non local Contribution for L=           1  read in
    real space projection operators read in
  non local Contribution for L=           1  read in
    real space projection operators read in
    PAW grid and wavefunctions read in
 
   number of l-projection  operators is LMAX  =           6
   number of lm-projection operators is LMMAX =          18
 
 POTCAR:    PAW_PBE Fe 06Sep2000                  
   VRHFIN =Fe:  d7 s1                                                           
   LEXCH  = PE                                                                  
   EATOM  =   594.3153 eV,   43.6809 Ry                                         
                                                                                
   TITEL  = PAW_PBE Fe 06Sep2000                                                
   LULTRA =        F    use ultrasoft PP ?                                      
   IUNSCR =        1    unscreen: 0-lin 1-nonlin 2-no                           
   RPACOR =    2.000    partial core radius                                     
   POMASS =   55.847; ZVAL   =    8.000    mass and valenz                      
   RCORE  =    2.300    outmost cutoff radius                                   
   RWIGS  =    2.460; RWIGS  =    1.302    wigner-seitz radius (au A)           
   ENMAX  =  267.882; ENMIN  =  200.911 eV                                      
   RCLOC  =    1.701    cutoff for local pot                                    
   LCOR   =        T    correct aug charges                                     
   LPAW   =        T    paw PP                                                  
   EAUG   =  511.368                                                            
   DEXC   =    0.000                                                            
   RMAX   =    2.356    core radius for proj-oper                               
   RAUG   =    1.300    factor for augmentation sphere                          
   RDEP   =    2.442    radius for radial grids                                 
   RDEPT  =    1.890    core radius for aug-charge                              
                                                                                
   Atomic configuration                                                         
    9 entries                                                                   
     n  l   j            E        occ.                                          
     1  0  0.50     -6993.8440   2.0000                                         
     2  0  0.50      -814.6047   2.0000                                         
     2  1  1.50      -693.3689   6.0000                                         
     3  0  0.50       -89.4732   2.0000                                         
     3  1  1.50       -55.6373   6.0000                                         
     3  2  2.50        -3.8151   7.0000                                         
     4  0  0.50        -4.2551   1.0000                                         
     4  1  1.50        -3.4015   0.0000                                         
     4  3  2.50        -1.3606   0.0000                                         
   Description                                                                  
     l       E           TYP  RCUT    TYP  RCUT                                 
     2     -3.8151135     23  2.300                                             
     2     -5.1756961     23  2.300                                             
     0     -4.2550963     23  2.300                                             
     0      7.2035603     23  2.300                                             
     1     -2.7211652     23  2.300                                             
     1     18.4316424     23  2.300                                             
  local pseudopotential read in
  partial core-charges read in
  partial kinetic energy density read in
  atomic valenz-charges read in
  non local Contribution for L=           2  read in
    real space projection operators read in
  non local Contribution for L=           2  read in
    real space projection operators read in
  non local Contribution for L=           0  read in
    real space projection operators read in
  non local Contribution for L=           0  read in
    real space projection operators read in
  non local Contribution for L=           1  read in
    real space projection operators read in
  non local Contribution for L=           1  read in
    real space projection operators read in
    PAW grid and wavefunctions read in
 
   number of l-projection  operators is LMAX  =           6
   number of lm-projection operators is LMMAX =          18
 
 POTCAR:    PAW_PBE Co 02Aug2007                  
   VRHFIN =Co: d8 s1                                                            
   LEXCH  = PE                                                                  
   EATOM  =   813.3670 eV,   59.7808 Ry                                         
                                                                                
   TITEL  = PAW_PBE Co 02Aug2007                                                
   LULTRA =        F    use ultrasoft PP ?                                      
   IUNSCR =        1    unscreen: 0-lin 1-nonlin 2-no                           
   RPACOR =    2.000    partial core radius                                     
   POMASS =   58.933; ZVAL   =    9.000    mass and valenz                      
   RCORE  =    2.300    outmost cutoff radius                                   
   RWIGS  =    2.460; RWIGS  =    1.302    wigner-seitz radius (au A)           
   ENMAX  =  267.968; ENMIN  =  200.976 eV                                      
   RCLOC  =    1.203    cutoff for local pot                                    
   LCOR   =        T    correct aug charges                                     
   LPAW   =        T    paw PP                                                  
   EAUG   =  477.818                                                            
   DEXC   =    0.000                                                            
   RMAX   =    2.360    core radius for proj-oper                               
   RAUG   =    1.300    factor for augmentation sphere                          
   RDEP   =    2.393    radius for radial grids                                 
   RDEPT  =    1.864    core radius for aug-charge                              
                                                                                
   Atomic configuration                                                         
    9 entries                                                                   
     n  l   j            E        occ.                                          
     1  0  0.50     -7587.6674   2.0000                                         
     2  0  0.50      -893.6084   2.0000                                         
     2  1  1.50      -764.5805   6.0000                                         
     3  0  0.50       -97.5973   2.0000                                         
     3  1  1.50       -60.9648   6.0000                                         
     3  2  2.50        -4.2382   8.0000                                         
     4  0  0.50        -4.3746   1.0000                                         
     4  1  1.50        -4.0817   0.0000                                         
     4  3  2.50        -1.3606   0.0000                                         
   Description                                                                  
     l       E           TYP  RCUT    TYP  RCUT                                 
     2     -4.2382362     23  2.300                                             
     2     -5.5988188     23  2.300                                             
     0     -4.3745797     23  2.300                                             
     0      5.7660125     23  2.300                                             
     1     -2.7211652     23  2.300                                             
     1     16.9860234     23  2.300                                             
  local pseudopotential read in
  partial core-charges read in
  partial kinetic energy density read in
  atomic valenz-charges read in
  non local Contribution for L=           2  read in
    real space projection operators read in
  non local Contribution for L=           2  read in
    real space projection operators read in
  non local Contribution for L=           0  read in
    real space projection operators read in
  non local Contribution for L=           0  read in
    real space projection operators read in
  non local Contribution for L=           1  read in
    real space projection operators read in
  non local Contribution for L=           1  read in
    real space projection operators read in
    PAW grid and wavefunctions read in
 
   number of l-projection  operators is LMAX  =           6
   number of lm-projection operators is LMMAX =          18
 
 POTCAR:    PAW_PBE Cu 22Jun2005                  
   VRHFIN =Cu: d10 p1                                                           
   LEXCH  = PE                                                                  
   EATOM  =  1390.9808 eV,  102.2342 Ry                                         
                                                                                
   TITEL  = PAW_PBE Cu 22Jun2005                                                
   LULTRA =        F    use ultrasoft PP ?                                      
   IUNSCR =        1    unscreen: 0-lin 1-nonlin 2-no                           
   RPACOR =    2.000    partial core radius                                     
   POMASS =   63.546; ZVAL   =   11.000    mass and valenz                      
   RCORE  =    2.300    outmost cutoff radius                                   
   RWIGS  =    2.200; RWIGS  =    1.164    wigner-seitz radius (au A)           
   ENMAX  =  295.446; ENMIN  =  221.585 eV                                      
   ICORE  =        3    local potential                                         
   LCOR   =        T    correct aug charges                                     
   LPAW   =        T    paw PP                                                  
   EAUG   =  586.980                                                            
   DEXC   =    0.000                                                            
   RMAX   =    2.344    core radius for proj-oper                               
   RAUG   =    1.300    factor for augmentation sphere                          
   RDEP   =    2.302    radius for radial grids                                 
   RDEPT  =    1.771    core radius for aug-charge                              
                                                                                
   Atomic configuration                                                         
    9 entries                                                                   
     n  l   j            E        occ.                                          
     1  0  0.50     -8850.2468   2.0000                                         
     2  0  0.50     -1062.3498   2.0000                                         
     2  1  1.50      -916.8226   6.0000                                         
     3  0  0.50      -114.6929   2.0000                                         
     3  1  1.50       -72.1325   6.0000                                         
     3  2  2.50        -5.0394  10.0000                                         
     4  0  0.50        -4.6097   1.0000                                         
     4  1  0.50        -4.0817   0.0000                                         
     4  3  2.50        -1.3606   0.0000                                         
   Description                                                                  
     l       E           TYP  RCUT    TYP  RCUT                                 
     2     -5.0393973     23  2.200                                             
     2     10.8846608     23  2.200                                             
     0     -4.6097109     23  2.200                                             
     0      8.2520465     23  2.200                                             
     1     -2.7211652     23  2.200                                             
     1     21.7055443     23  2.200                                             
     3      2.7211652     23  2.300                                             
  local pseudopotential read in
  partial core-charges read in
  partial kinetic energy density read in
  atomic valenz-charges read in
  non local Contribution for L=           2  read in
    real space projection operators read in
  non local Contribution for L=           2  read in
    real space projection operators read in
  non local Contribution for L=           0  read in
    real space projection operators read in
  non local Contribution for L=           0  read in
    real space projection operators read in
  non local Contribution for L=           1  read in
    real space projection operators read in
  non local Contribution for L=           1  read in
    real space projection operators read in
    PAW grid and wavefunctions read in
 
   number of l-projection  operators is LMAX  =           6
   number of lm-projection operators is LMMAX =          18
 
 POTCAR:    PAW_PBE Ni 02Aug2007                  
   VRHFIN =Ni:                                                                  
   LEXCH  = PE                                                                  
   EATOM  =  1077.6739 eV,   79.2068 Ry                                         
                                                                                
   TITEL  = PAW_PBE Ni 02Aug2007                                                
   LULTRA =        F    use ultrasoft PP ?                                      
   IUNSCR =        1    unscreen: 0-lin 1-nonlin 2-no                           
   RPACOR =    2.000    partial core radius                                     
   POMASS =   58.690; ZVAL   =   10.000    mass and valenz                      
   RCORE  =    2.300    outmost cutoff radius                                   
   RWIGS  =    2.430; RWIGS  =    1.286    wigner-seitz radius (au A)           
   ENMAX  =  269.532; ENMIN  =  202.149 eV                                      
   RCLOC  =    1.201    cutoff for local pot                                    
   LCOR   =        T    correct aug charges                                     
   LPAW   =        T    paw PP                                                  
   EAUG   =  544.565                                                            
   DEXC   =    0.000                                                            
   RMAX   =    2.357    core radius for proj-oper                               
   RAUG   =    1.300    factor for augmentation sphere                          
   RDEP   =    2.390    radius for radial grids                                 
   RDEPT  =    1.838    core radius for aug-charge                              
                                                                                
   Atomic configuration                                                         
    9 entries                                                                   
     n  l   j            E        occ.                                          
     1  0  0.50     -8206.4253   2.0000                                         
     2  0  0.50      -976.1748   2.0000                                         
     2  1  1.50      -839.0571   6.0000                                         
     3  0  0.50      -105.9991   2.0000                                         
     3  1  1.50       -66.4603   6.0000                                         
     3  2  2.50        -4.6458   9.0000                                         
     4  0  0.50        -4.4926   1.0000                                         
     4  1  1.50        -4.0817   0.0000                                         
     4  3  2.50        -1.3606   0.0000                                         
   Description                                                                  
     l       E           TYP  RCUT    TYP  RCUT                                 
     2     -4.6457903     23  2.300                                             
     2     -6.0063729     23  2.300                                             
     0     -4.4925590     23  2.300                                             
     0      5.0102601     23  2.300                                             
     1     -2.7211652     23  2.300                                             
     1     16.5183231     23  2.300                                             
  local pseudopotential read in
  partial core-charges read in
  partial kinetic energy density read in
  atomic valenz-charges read in
  non local Contribution for L=           2  read in
    real space projection operators read in
  non local Contribution for L=           2  read in
    real space projection operators read in
  non local Contribution for L=           0  read in
    real space projection operators read in
  non local Contribution for L=           0  read in
    real space projection operators read in
  non local Contribution for L=           1  read in
    real space projection operators read in
  non local Contribution for L=           1  read in
    real space projection operators read in
    PAW grid and wavefunctions read in
 
   number of l-projection  operators is LMAX  =           6
   number of lm-projection operators is LMMAX =          18
 
 POTCAR:    PAW_PBE H 15Jun2001                   
   VRHFIN =H: ultrasoft test                                                    
   LEXCH  = PE                                                                  
   EATOM  =    12.4884 eV,    0.9179 Ry                                         
                                                                                
   TITEL  = PAW_PBE H 15Jun2001                                                 
   LULTRA =        F    use ultrasoft PP ?                                      
   IUNSCR =        0    unscreen: 0-lin 1-nonlin 2-no                           
   RPACOR =    0.000    partial core radius                                     
   POMASS =    1.000; ZVAL   =    1.000    mass and valenz                      
   RCORE  =    1.100    outmost cutoff radius                                   
   RWIGS  =    0.700; RWIGS  =    0.370    wigner-seitz radius (au A)           
   ENMAX  =  250.000; ENMIN  =  200.000 eV                                      
   RCLOC  =    0.701    cutoff for local pot                                    
   LCOR   =        T    correct aug charges                                     
   LPAW   =        T    paw PP                                                  
   EAUG   =  400.000                                                            
   RMAX   =    1.123    core radius for proj-oper                               
   RAUG   =    1.200    factor for augmentation sphere                          
   RDEP   =    1.112    radius for radial grids                                 
   RDEPT  =    0.926    core radius for aug-charge                              
                                                                                
   Atomic configuration                                                         
    2 entries                                                                   
     n  l   j            E        occ.                                          
     1  0  0.50        -6.4927   1.0000                                         
     2  1  0.50        -3.4015   0.0000                                         
   Description                                                                  
     l       E           TYP  RCUT    TYP  RCUT                                 
     0     -6.4927494     23  1.100                                             
     0      6.8029130     23  1.100                                             
     1     -4.0817478     23  1.100                                             
  local pseudopotential read in
  atomic valenz-charges read in
  non local Contribution for L=           0  read in
    real space projection operators read in
  non local Contribution for L=           0  read in
    real space projection operators read in
  non local Contribution for L=           1  read in
    real space projection operators read in
    PAW grid and wavefunctions read in
 
   number of l-projection  operators is LMAX  =           3
   number of lm-projection operators is LMMAX =           5
 
 Optimization of the real space projectors (new method)

 maximal supplied QI-value         = 14.36
 optimisation between [QCUT,QGAM] = [ 11.92, 23.98] = [ 39.79,161.09] Ry 
 Optimized for a Real-space Cutoff    1.49 Angstroem

   l    n(q)    QCUT    max X(q) W(low)/X(q) W(high)/X(q)  e(spline) 
   2     10    11.920    66.195    0.79E-04    0.18E-03    0.24E-06
   2     10    11.920    64.643    0.81E-04    0.19E-03    0.24E-06
   0     11    11.920    95.520    0.28E-04    0.54E-04    0.18E-06
   0     11    11.920    63.403    0.27E-04    0.52E-04    0.17E-06
   1     10    11.920    19.961    0.18E-04    0.11E-03    0.23E-06
   1     10    11.920    13.289    0.25E-04    0.87E-04    0.19E-06
 Optimization of the real space projectors (new method)

 maximal supplied QI-value         = 16.25
 optimisation between [QCUT,QGAM] = [ 11.86, 23.89] = [ 39.41,159.82] Ry 
 Optimized for a Real-space Cutoff    1.49 Angstroem

   l    n(q)    QCUT    max X(q) W(low)/X(q) W(high)/X(q)  e(spline) 
   2     10    11.864    80.901    0.13E-03    0.23E-03    0.37E-06
   2     10    11.864    75.754    0.13E-03    0.23E-03    0.38E-06
   0     11    11.864    58.752    0.44E-04    0.11E-04    0.20E-06
   0     11    11.864    30.679    0.36E-04    0.10E-04    0.18E-06
   1     10    11.864    17.977    0.31E-04    0.45E-04    0.10E-06
   1     10    11.864    13.559    0.25E-04    0.37E-04    0.89E-07
 Optimization of the real space projectors (new method)

 maximal supplied QI-value         = 16.25
 optimisation between [QCUT,QGAM] = [ 11.86, 23.89] = [ 39.41,159.82] Ry 
 Optimized for a Real-space Cutoff    1.33 Angstroem

   l    n(q)    QCUT    max X(q) W(low)/X(q) W(high)/X(q)  e(spline) 
   2      9    11.864    65.824    0.22E-03    0.53E-03    0.26E-06
   2      9    11.864    61.429    0.22E-03    0.53E-03    0.26E-06
   0      9    11.864    56.174    0.21E-03    0.32E-04    0.15E-06
   0      9    11.864    31.263    0.19E-03    0.30E-04    0.14E-06
   1      9    11.864    19.828    0.63E-04    0.30E-03    0.16E-06
   1      9    11.864    15.139    0.49E-04    0.25E-03    0.13E-06
 Optimization of the real space projectors (new method)

 maximal supplied QI-value         = 16.25
 optimisation between [QCUT,QGAM] = [ 11.86, 23.89] = [ 39.41,159.82] Ry 
 Optimized for a Real-space Cutoff    1.49 Angstroem

   l    n(q)    QCUT    max X(q) W(low)/X(q) W(high)/X(q)  e(spline) 
   2     10    11.864     4.610    0.10E-03    0.20E-03    0.29E-06
   2     10    11.864     8.522    0.17E-03    0.33E-03    0.50E-06
   0     11    11.864    51.609    0.52E-04    0.55E-04    0.33E-06
   0     11    11.864    27.747    0.46E-04    0.52E-04    0.31E-06
   1     10    11.864    20.408    0.54E-04    0.25E-04    0.21E-06
   1     10    11.864    13.425    0.48E-04    0.22E-04    0.18E-06
 Optimization of the real space projectors (new method)

 maximal supplied QI-value         = 16.25
 optimisation between [QCUT,QGAM] = [ 11.86, 23.89] = [ 39.41,159.82] Ry 
 Optimized for a Real-space Cutoff    1.33 Angstroem

   l    n(q)    QCUT    max X(q) W(low)/X(q) W(high)/X(q)  e(spline) 
   2      9    11.864    60.317    0.21E-03    0.51E-03    0.25E-06
   2      9    11.864    55.921    0.21E-03    0.51E-03    0.26E-06
   0      9    11.864    51.690    0.22E-03    0.30E-04    0.17E-06
   0      9    11.864    30.015    0.20E-03    0.28E-04    0.15E-06
   1      9    11.864    18.849    0.76E-04    0.33E-03    0.17E-06
   1      9    11.864    14.624    0.60E-04    0.28E-03    0.15E-06
 Optimization of the real space projectors (new method)

 maximal supplied QI-value         = 34.20
 optimisation between [QCUT,QGAM] = [ 11.97, 23.94] = [ 40.13,160.53] Ry 
 Optimized for a Real-space Cutoff    1.18 Angstroem

   l    n(q)    QCUT    max X(q) W(low)/X(q) W(high)/X(q)  e(spline) 
   0      8    11.971    19.460    0.15E-03    0.31E-03    0.25E-06
   0      8    11.971    12.209    0.13E-03    0.29E-03    0.25E-06
   1      8    11.971     4.655    0.22E-03    0.24E-03    0.21E-06
  PAW_PBE Pt 04Feb2005                  :
 energy of atom  1       EATOM= -729.1176
 kinetic energy error for atom=    0.0021 (will be added to EATOM!!)
  PAW_PBE Fe 06Sep2000                  :
 energy of atom  2       EATOM= -594.3153
 kinetic energy error for atom=    0.0024 (will be added to EATOM!!)
  PAW_PBE Co 02Aug2007                  :
 energy of atom  3       EATOM= -813.3670
 kinetic energy error for atom=    0.0026 (will be added to EATOM!!)
  PAW_PBE Cu 22Jun2005                  :
 energy of atom  4       EATOM=-1390.9808
 kinetic energy error for atom=    0.0036 (will be added to EATOM!!)
  PAW_PBE Ni 02Aug2007                  :
 energy of atom  5       EATOM=-1077.6739
 kinetic energy error for atom=    0.0027 (will be added to EATOM!!)
  PAW_PBE H 15Jun2001                   :
 energy of atom  6       EATOM=  -12.4884
 kinetic energy error for atom=    0.0008 (will be added to EATOM!!)
 
 
 POSCAR: 10.66                                   
  positions in cartesian coordinates
  No initial velocities read in
 exchange correlation table for  LEXCH =        8
   RHO(1)=    0.500       N(1)  =     2000
   RHO(2)=  100.500       N(2)  =     4000
 


--------------------------------------------------------------------------------------------------------


 ion  position               nearest neighbor table
   1  0.786  0.879  0.316-  49 2.61  28 2.63  59 2.64  19 2.65  61 2.67  33 2.69  29 2.69  60 2.71
                             2 2.75  11 2.77   4 2.79  12 2.84
   2  0.043  0.882  0.314-  79 2.54  77 2.58  60 2.65  28 2.65  30 2.67  52 2.68  33 2.70  22 2.72
                             1 2.75   6 2.76   4 2.81  16 2.89
   3  0.280  0.381  0.319-  64 2.57  39 2.58  33 2.61  31 2.64  68 2.70  19 2.72  43 2.73  30 2.74
                             5 2.79  13 2.79  25 2.81  18 2.86
   4  0.875  0.961  0.421-  16 2.66  17 2.66   9 2.66   6 2.66  12 2.67  11 2.68  60 2.78   1 2.79
                             2 2.81
   5  0.121  0.463  0.427-   7 2.64  12 2.64  10 2.66  16 2.66  25 2.66  13 2.70  39 2.72  33 2.73
                             3 2.79
   6  0.125  0.961  0.420-   9 2.65  14 2.65   8 2.65   4 2.66  10 2.67  16 2.67   2 2.76  52 2.76
                            22 2.85
   7  0.875  0.460  0.424-   5 2.64  15 2.64  10 2.66   9 2.66  39 2.67  12 2.67  27 2.69  75 2.74
                            29 2.78
   8  0.374  0.960  0.419-  43 2.60  14 2.63  13 2.65   6 2.65  27 2.65  10 2.66  11 2.67  52 2.68
                            61 2.72
   9  0.877  0.210  0.418-   6 2.65   4 2.66  10 2.66   7 2.66  75 2.67  15 2.69  60 2.70  17 2.70
                            22 2.77
  10  0.125  0.211  0.421-  13 2.63   7 2.66   5 2.66   9 2.66   8 2.66  39 2.67   6 2.67  43 2.72
                            22 2.77
  11  0.624  0.960  0.422-  17 2.65  12 2.66  13 2.67   8 2.67  27 2.67   4 2.68   1 2.77  61 2.81
                            19 2.81
  12  0.874  0.711  0.425-   5 2.64  11 2.66  16 2.67   7 2.67   4 2.67  27 2.69  33 2.69  29 2.80
                             1 2.84
  13  0.373  0.209  0.423-  10 2.63   8 2.65  11 2.67  17 2.67  25 2.70   5 2.70  43 2.74   3 2.79
                            19 2.81
  14  0.374  0.714  0.422-  27 2.63   8 2.63   6 2.65  15 2.68  16 2.69  44 2.69  25 2.69  52 2.74
                            30 2.76
  15  0.626  0.463  0.426-  81 1.81  27 2.62   7 2.64  14 2.68   9 2.69  25 2.72  17 2.72  44 2.77
                            75 2.79  18 2.81
  16  0.124  0.711  0.424-  25 2.64   4 2.66   5 2.66  12 2.67  33 2.67   6 2.67  14 2.69  30 2.82
                             2 2.89
  17  0.624  0.208  0.424-  81 1.70  11 2.65   4 2.66  13 2.67   9 2.70  25 2.71  15 2.72  18 2.82
                            60 2.84  19 2.88
  18  0.550  0.377  0.318-  67 2.57  75 2.61  60 2.61  44 2.65  26 2.68  68 2.68  30 2.73  19 2.75
                            15 2.81  17 2.82  25 2.85   3 2.86
  19  0.536  0.126  0.315-  68 2.57  80 2.58  43 2.60  59 2.61   1 2.65  61 2.68   3 2.72  18 2.75
                            60 2.76  13 2.81  11 2.81  17 2.88
  20  0.549  0.122  0.042-  37 2.55  57 2.55  48 2.57  62 2.66  63 2.70  34 2.71  45 2.73  47 2.74
                            56 2.74
  21  0.120  0.460  0.128-  40 2.52  36 2.53  47 2.53  42 2.59  64 2.62  69 2.62  70 2.66  50 2.67
                            58 2.71  31 2.71  57 2.74  74 2.75
  22  0.044  0.137  0.313-  65 2.51  55 2.54  77 2.57  39 2.60  43 2.60  75 2.65  60 2.72   2 2.72
                            52 2.74  10 2.77   9 2.77   6 2.85  31 3.39
  23  0.042  0.131  0.034-  70 2.57  40 2.60  41 2.61  45 2.64  62 2.65  76 2.65  24 2.69  35 2.76
                            53 2.81
  24  0.131  0.958  0.132-  79 2.51  77 2.54  35 2.57  53 2.58  55 2.59  70 2.64  38 2.66  58 2.66
                            73 2.67  23 2.69  66 2.73  41 2.75
  25  0.371  0.463  0.423-  16 2.64   5 2.66  14 2.69  13 2.70  17 2.71  15 2.72  30 2.80   3 2.81
                            18 2.85
  26  0.456  0.545  0.219-  73 2.50  74 2.55  51 2.55  79 2.63  30 2.64  64 2.66  18 2.68  68 2.68
                            32 2.69  78 2.70  67 2.74  44 2.75
  27  0.622  0.711  0.421-  15 2.62  14 2.63   8 2.65  44 2.66  11 2.67  12 2.69   7 2.69  61 2.75
                            29 2.77
  28  0.956  0.788  0.221-  58 2.55  50 2.57  66 2.58  42 2.61   1 2.63  49 2.64   2 2.65  64 2.66
                            33 2.70  59 2.74  79 2.81  77 2.82
  29  0.796  0.622  0.318-  42 2.55  39 2.56  75 2.59  32 2.61  33 2.66  49 2.68  44 2.68   1 2.69
                            61 2.71  27 2.77   7 2.78  12 2.80
  30  0.292  0.631  0.317-  79 2.56  64 2.60  52 2.64  26 2.64  44 2.65   2 2.67  33 2.68  18 2.73
                             3 2.74  14 2.76  25 2.80  16 2.82
  31  0.203  0.279  0.225-  70 2.51  55 2.57  43 2.59  65 2.59  57 2.60   3 2.64  39 2.66  21 2.71
                            80 2.72  42 2.73  68 2.80  64 2.83  22 3.39
  32  0.706  0.550  0.221-  54 2.53  69 2.56  51 2.58  49 2.60  29 2.61  42 2.63  78 2.63  65 2.65
                            75 2.68  44 2.69  26 2.69  67 2.72
  33  0.041  0.631  0.324-   3 2.61  39 2.66  29 2.66  16 2.67  30 2.68   1 2.69  12 2.69  64 2.70
                             2 2.70  28 2.70  42 2.72   5 2.73
  34  0.796  0.862  0.044-  50 2.39  66 2.51  48 2.52  36 2.55  71 2.58  63 2.62  20 2.71  62 2.79
                            35 2.80
  35  0.057  0.865  0.039-  58 2.54  72 2.55  36 2.56  24 2.57  66 2.62  53 2.68  23 2.76  62 2.76
                            34 2.80
  36  0.044  0.632  0.039-  21 2.53  34 2.55  35 2.56  58 2.58  50 2.59  47 2.67  72 2.69  71 2.74
                            40 2.76
  37  0.628  0.224  0.129-  51 2.51  67 2.52  56 2.52  74 2.53  20 2.55  59 2.56  68 2.56  41 2.57
                            62 2.59  66 2.69  57 2.76  48 2.95
  38  0.383  0.954  0.131-  53 2.46  45 2.47  80 2.48  78 2.53  73 2.56  63 2.56  48 2.56  55 2.57
                            54 2.58  57 2.65  24 2.66  70 2.70
  39  0.036  0.384  0.324-  29 2.56   3 2.58  22 2.60  75 2.62  42 2.65  33 2.66  31 2.66  10 2.67
                             7 2.67   5 2.72  65 2.75  43 2.82
  40  0.028  0.381  0.039-  69 2.42  21 2.52  71 2.54  76 2.54  70 2.56  23 2.60  36 2.76  45 2.84
                            47 2.85
  41  0.872  0.215  0.129-  76 2.45  65 2.52  77 2.52  67 2.54  37 2.57  62 2.57  69 2.59  23 2.61
                            51 2.61  70 2.68  66 2.68  24 2.75
  42  0.956  0.544  0.224-  50 2.55  29 2.55  69 2.59  21 2.59  28 2.61  32 2.63  39 2.65  65 2.65
                            49 2.66  64 2.68  33 2.72  31 2.73
  43  0.297  0.116  0.321-  55 2.53  52 2.56  61 2.58  31 2.59   8 2.60  19 2.60  22 2.60  80 2.64
                            10 2.72   3 2.73  13 2.74  39 2.82
  44  0.541  0.630  0.321-  61 2.59  52 2.61  78 2.62  30 2.65  18 2.65  27 2.66  75 2.67  29 2.68
                            32 2.69  14 2.69  26 2.75  15 2.77
  45  0.296  0.116  0.041-  38 2.47  70 2.49  57 2.57  53 2.58  23 2.64  63 2.65  20 2.73  47 2.83
                            40 2.84
  46  0.549  0.625  0.045-  51 2.38  73 2.39  54 2.41  71 2.57  53 2.59  63 2.60  76 2.62  56 2.63
                            72 2.66
  47  0.294  0.382  0.040-  74 2.41  21 2.53  57 2.64  72 2.65  56 2.66  36 2.67  20 2.74  45 2.83
                            40 2.85
  48  0.626  0.948  0.133-  49 2.39  54 2.48  80 2.49  34 2.52  59 2.56  63 2.56  38 2.56  20 2.57
                            50 2.58  57 2.68  66 2.72  37 2.95
  49  0.707  0.794  0.220-  48 2.39  50 2.47  54 2.48  80 2.56  32 2.60   1 2.61  61 2.63  78 2.63
                            28 2.64  42 2.66  29 2.68  59 2.73
  50  0.865  0.704  0.130-  34 2.39  71 2.42  49 2.47  54 2.49  42 2.55  28 2.57  48 2.58  69 2.58
                            36 2.59  21 2.67  66 2.81  58 2.90
  51  0.627  0.460  0.128-  46 2.38  76 2.44  56 2.51  37 2.51  26 2.55  32 2.58  41 2.61  67 2.63
                            73 2.63  69 2.64  74 2.65  54 2.72
  52  0.297  0.876  0.318-  55 2.43  78 2.52  79 2.53  61 2.56  43 2.56  44 2.61  30 2.64   2 2.68
                             8 2.68  14 2.74  22 2.74   6 2.76
  53  0.307  0.869  0.042-  73 2.42  38 2.46  63 2.57  24 2.58  45 2.58  46 2.59  72 2.61  35 2.68
                            23 2.81
  54  0.627  0.715  0.129-  46 2.41  71 2.46  63 2.48  48 2.48  49 2.48  50 2.49  32 2.53  38 2.58
                            73 2.58  78 2.62  69 2.70  51 2.72
  55  0.226  0.027  0.227-  52 2.43  78 2.48  79 2.51  80 2.53  43 2.53  22 2.54  31 2.57  38 2.57
                            24 2.59  70 2.72  77 2.75  65 2.91
  56  0.544  0.381  0.036-  74 2.50  51 2.51  37 2.52  76 2.61  46 2.63  72 2.64  47 2.66  62 2.72
                            20 2.74
  57  0.379  0.204  0.133-  68 2.47  80 2.54  20 2.55  45 2.57  31 2.60  47 2.64  38 2.65  74 2.66
                            70 2.66  48 2.68  21 2.74  37 2.76
  58  0.137  0.705  0.133-  72 2.46  64 2.50  35 2.54  28 2.55  79 2.56  36 2.58  74 2.66  24 2.66
                            73 2.70  21 2.71  50 2.90
  59  0.705  0.051  0.220-  66 2.52  48 2.56  37 2.56  68 2.60  19 2.61  67 2.61  60 2.62   1 2.64
                            77 2.69  80 2.71  49 2.73  28 2.74
  60  0.793  0.130  0.316-  67 2.52  77 2.57  18 2.61  59 2.62   2 2.65  75 2.67   9 2.70   1 2.71
                            22 2.72  19 2.76   4 2.78  17 2.84
  61  0.538  0.874  0.317-  78 2.49  80 2.52  52 2.56  43 2.58  44 2.59  49 2.63   1 2.67  19 2.68
                            29 2.71   8 2.72  27 2.75  11 2.81
  62  0.797  0.123  0.036-  66 2.53  41 2.57  37 2.59  23 2.65  20 2.66  76 2.68  56 2.72  35 2.76
                            34 2.79
  63  0.546  0.870  0.037-  54 2.48  38 2.56  48 2.56  53 2.57  46 2.60  34 2.62  71 2.63  45 2.65
                            20 2.70
  64  0.208  0.542  0.224-  58 2.50   3 2.57  30 2.60  21 2.62  28 2.66  26 2.66  68 2.66  74 2.67
                            42 2.68  33 2.70  79 2.76  31 2.83
  65  0.951  0.298  0.222-  22 2.51  69 2.51  41 2.52  67 2.56  77 2.58  31 2.59  70 2.61  75 2.61
                            42 2.65  32 2.65  39 2.75  55 2.91
  66  0.872  0.964  0.130-  34 2.51  59 2.52  62 2.53  77 2.57  28 2.58  35 2.62  41 2.68  37 2.69
                            48 2.72  24 2.73  50 2.81
  67  0.715  0.290  0.224-  60 2.52  37 2.52  41 2.54  77 2.54  65 2.56  18 2.57  59 2.61  75 2.62
                            51 2.63  32 2.72  68 2.73  26 2.74
  68  0.458  0.292  0.221-  57 2.47  74 2.54  37 2.56  19 2.57  59 2.60  64 2.66  18 2.68  26 2.68
                             3 2.70  67 2.73  80 2.78  31 2.80
  69  0.875  0.457  0.129-  40 2.42  71 2.45  76 2.46  65 2.51  32 2.56  50 2.58  42 2.59  41 2.59
                            21 2.62  51 2.64  70 2.68  54 2.70
  70  0.128  0.206  0.129-  45 2.49  31 2.51  40 2.56  23 2.57  65 2.61  24 2.64  21 2.66  57 2.66
                            41 2.68  69 2.68  38 2.70  55 2.72
  71  0.792  0.622  0.041-  50 2.42  69 2.45  54 2.46  40 2.54  46 2.57  34 2.58  76 2.61  63 2.63
                            36 2.74
  72  0.298  0.629  0.044-  74 2.46  58 2.46  73 2.47  35 2.55  53 2.61  56 2.64  47 2.65  46 2.66
                            36 2.69
  73  0.386  0.713  0.130-  46 2.39  53 2.42  72 2.47  26 2.50  78 2.55  38 2.56  54 2.58  79 2.61
                            51 2.63  24 2.67  58 2.70  74 2.80
  74  0.382  0.451  0.127-  47 2.41  72 2.46  56 2.50  37 2.53  68 2.54  26 2.55  51 2.65  57 2.66
                            58 2.66  64 2.67  21 2.75  73 2.80
  75  0.792  0.381  0.320-  29 2.59  18 2.61  65 2.61  39 2.62  67 2.62  22 2.65  60 2.67  44 2.67
                             9 2.67  32 2.68   7 2.74  15 2.79
  76  0.791  0.377  0.041-  51 2.44  41 2.45  69 2.46  40 2.54  56 2.61  71 2.61  46 2.62  23 2.65
                            62 2.68
  77  0.956  0.053  0.221-  41 2.52  24 2.54  67 2.54  22 2.57  66 2.57  60 2.57  65 2.58   2 2.58
                            59 2.69  79 2.75  55 2.75  28 2.82
  78  0.459  0.796  0.225-  55 2.48  61 2.49  80 2.50  52 2.52  38 2.53  73 2.55  79 2.59  44 2.62
                            54 2.62  49 2.63  32 2.63  26 2.70
  79  0.216  0.797  0.224-  24 2.51  55 2.51  52 2.53   2 2.54  30 2.56  58 2.56  78 2.59  73 2.61
                            26 2.63  77 2.75  64 2.76  28 2.81
  80  0.462  0.029  0.223-  38 2.48  48 2.49  78 2.50  61 2.52  55 2.53  57 2.54  49 2.56  19 2.58
                            43 2.64  59 2.71  31 2.72  68 2.78
  81  0.624  0.328  0.475-  17 1.70  15 1.81
 
  LATTYP: Found a hexagonal cell.
 ALAT       =    10.6599998474
 C/A-ratio  =     2.0637898982
  
  Lattice vectors:
  
 A1 = (   5.3299999237,  -9.2318306722,   0.0000000000)
 A2 = ( -10.6599998474,   0.0000000000,   0.0000000000)
 A3 = (   0.0000000000,   0.0000000000, -22.0000000000)


Analysis of symmetry for initial positions (statically):
=====================================================================
 Subroutine PRICEL returns:
 Original cell was already a primitive cell.
 

 Routine SETGRP: Setting up the symmetry group for a 
 hexagonal supercell.


 Subroutine GETGRP returns: Found  1 space group operations
 (whereof  1 operations were pure point group operations)
 out of a pool of 24 trial point group operations.


The static configuration has the point symmetry C_1 .


Analysis of symmetry for dynamics (positions and initial velocities):
=====================================================================
 Subroutine PRICEL returns:
 Original cell was already a primitive cell.
 

 Routine SETGRP: Setting up the symmetry group for a 
 hexagonal supercell.


 Subroutine GETGRP returns: Found  1 space group operations
 (whereof  1 operations were pure point group operations)
 out of a pool of 24 trial point group operations.


The dynamic configuration has the point symmetry C_1 .


Analysis of constrained symmetry for selective dynamics:
=====================================================================
 Subroutine PRICEL returns:
 Original cell was already a primitive cell.
 

 Routine SETGRP: Setting up the symmetry group for a 
 hexagonal supercell.


 Subroutine GETGRP returns: Found  1 space group operations
 (whereof  1 operations were pure point group operations)
 out of a pool of 24 trial point group operations.


The constrained configuration has the point symmetry C_1 .


Analysis of structural, dynamic, and magnetic symmetry:
=====================================================================
 Subroutine PRICEL returns:
 Original cell was already a primitive cell.
 

 Routine SETGRP: Setting up the symmetry group for a 
 hexagonal supercell.


 Subroutine GETGRP returns: Found  1 space group operations
 (whereof  1 operations were pure point group operations)
 out of a pool of 24 trial point group operations.


The magnetic configuration has the point symmetry C_1 .


 Subroutine INISYM returns: Found  1 space group operations
 (whereof  1 operations are pure point group operations),
 and found     1 'primitive' translations

 
 
 KPOINTS: mesh auto                               

Automatic generation of k-mesh.
Space group operators:
 irot       det(A)        alpha          n_x          n_y          n_z        tau_x        tau_y        tau_z
    1     1.000000     0.000000     1.000000     0.000000     0.000000     0.000000     0.000000     0.000000
 
 Subroutine IBZKPT returns following result:
 ===========================================
 
 Found      4 irreducible k-points:
 
 Following reciprocal coordinates:
            Coordinates               Weight
  0.000000  0.000000  0.000000      1.000000
  0.500000 -0.000000  0.000000      1.000000
  0.000000  0.500000  0.000000      1.000000
  0.500000  0.500000  0.000000      1.000000
 
 Following cartesian coordinates:
            Coordinates               Weight
  0.000000  0.000000  0.000000      1.000000
  0.046904 -0.027080  0.000000      1.000000
  0.000000  0.054160  0.000000      1.000000
  0.046904  0.027080  0.000000      1.000000
 
 TETIRR: Found     12 inequivalent tetrahedra from       24
 
 Subroutine IBZKPT_HF returns following result:
 ==============================================
 
 Found      4 k-points in 1st BZ
 the following      4 k-points will be used (e.g. in the exchange kernel)
 Following reciprocal coordinates:   # in IRBZ
  0.000000  0.000000  0.000000    0.25000000   1 t-inv F
  0.500000 -0.000000  0.000000    0.25000000   2 t-inv F
  0.000000  0.500000  0.000000    0.25000000   3 t-inv F
  0.500000  0.500000  0.000000    0.25000000   4 t-inv F


--------------------------------------------------------------------------------------------------------




 Dimension of arrays:
   k-points           NKPTS =      4   k-points in BZ     NKDIM =      4   number of bands    NBANDS=    624
   number of dos      NEDOS =    301   number of ions     NIONS =     81
   non local maximal  LDIM  =      6   non local SUM 2l+1 LMDIM =     18
   total plane-waves  NPLWV = ******
   max r-space proj   IRMAX =   7657   max aug-charges    IRDMAX=  33358
   dimension x,y,z NGX =    84 NGY =   84 NGZ =  168
   dimension x,y,z NGXF=   168 NGYF=  168 NGZF=  336
   support grid    NGXF=   168 NGYF=  168 NGZF=  336
   ions per type =              32  13  10  13  12   1
   NGX,Y,Z   is equivalent  to a cutoff of  13.10, 13.10, 12.70 a.u.
   NGXF,Y,Z  is equivalent  to a cutoff of  26.20, 26.20, 25.39 a.u.

 SYSTEM =  Pt111                                   
 POSCAR =  10.66                                   

 Startparameter for this run:
   NWRITE =      2    write-flag & timer
   PREC   = accura    normal or accurate (medium, high low for compatibility)
   ISTART =      0    job   : 0-new  1-cont  2-samecut
   ICHARG =      2    charge: 1-file 2-atom 10-const
   ISPIN  =      2    spin polarized calculation?
   LNONCOLLINEAR =      F non collinear calculations
   LSORBIT =      F    spin-orbit coupling
   INIWAV =      1    electr: 0-lowe 1-rand  2-diag
   LASPH  =      F    aspherical Exc in radial PAW
   METAGGA=      F    non-selfconsistent MetaGGA calc.

 Electronic Relaxation 1
   ENCUT  =  550.0 eV  40.42 Ry    6.36 a.u.  20.38 20.38 42.07*2*pi/ulx,y,z
   ENINI  =  550.0     initial cutoff
   ENAUG  =  587.0 eV  augmentation charge cutoff
   NELM   =    200;   NELMIN=  2; NELMDL= -5     # of ELM steps 
   EDIFF  = 0.1E-04   stopping-criterion for ELM
   LREAL  =      T    real-space projection
   NLSPLINE    = F    spline interpolate recip. space projectors
   LCOMPAT=      F    compatible to vasp.4.4
   GGA_COMPAT  = T    GGA compatible to vasp.4.4-vasp.4.6
   LMAXPAW     = -100 max onsite density
   LMAXMIX     =    2 max onsite mixed and CHGCAR
   VOSKOWN=      0    Vosko Wilk Nusair interpolation
   ROPT   =   -0.00025  -0.00025  -0.00025  -0.00025
   ROPT   =   -0.00025  -0.00025
 Ionic relaxation
   EDIFFG = -.5E-01   stopping-criterion for IOM
   NSW    =   1009    number of steps for IOM
   NBLOCK =      1;   KBLOCK =   1009    inner block; outer block 
   IBRION =      5    ionic relax: 0-MD 1-quasi-New 2-CG
   NFREE  =      2    steps in history (QN), initial steepest desc. (CG)
   ISIF   =      2    stress and relaxation
   IWAVPR =     11    prediction:  0-non 1-charg 2-wave 3-comb
   ISYM   =      2    0-nonsym 1-usesym 2-fastsym
   LCORR  =      T    Harris-Foulkes like correction to forces

   POTIM  = 0.5000    time-step for ionic-motion
   TEIN   =    0.0    initial temperature
   TEBEG  =    0.0;   TEEND  =   0.0 temperature during run
   SMASS  =  -3.00    Nose mass-parameter (am)
   estimated Nose-frequenzy (Omega)   =  0.10E-29 period in steps =****** mass=  -0.260E-26a.u.
   SCALEE = 1.0000    scale energy and forces
   NPACO  =    256;   APACO  = 16.0  distance and # of slots for P.C.
   PSTRESS=    0.0 pullay stress

  Mass of Ions in am
   POMASS = 195.08 55.85 58.93 63.55 58.69  1.00
  Ionic Valenz
   ZVAL   =  10.00  8.00  9.00 11.00 10.00  1.00
  Atomic Wigner-Seitz radii
   RWIGS  =  -1.00 -1.00 -1.00 -1.00 -1.00 -1.00
  virtual crystal weights 
   VCA    =   1.00  1.00  1.00  1.00  1.00  1.00
   NELECT =     778.0000    total number of electrons
   NUPDOWN=      -1.0000    fix difference up-down

 DOS related values:
   EMIN   =  10.00;   EMAX   =-10.00  energy-range for DOS
   EFERMI =   0.00
   ISMEAR =    -5;   SIGMA  =   0.10  broadening in eV -4-tet -1-fermi 0-gaus

 Electronic relaxation 2 (details)
   IALGO  =     68    algorithm
   LDIAG  =      T    sub-space diagonalisation (order eigenvalues)
   LSUBROT=      F    optimize rotation matrix (better conditioning)
   TURBO    =      0    0=normal 1=particle mesh
   IRESTART =      0    0=no restart 2=restart with 2 vectors
   NREBOOT  =      0    no. of reboots
   NMIN     =      0    reboot dimension
   EREF     =   0.00    reference energy to select bands
   IMIX   =      4    mixing-type and parameters
     AMIX     =   0.40;   BMIX     =  1.00
     AMIX_MAG =   1.60;   BMIX_MAG =  1.00
     AMIN     =   0.10
     WC   =   100.;   INIMIX=   1;  MIXPRE=   1;  MAXMIX= -45

 Intra band minimization:
   WEIMIN = 0.0010     energy-eigenvalue tresh-hold
   EBREAK =  0.40E-08  absolut break condition
   DEPER  =   0.30     relativ break condition  

   TIME   =   0.40     timestep for ELM

  volume/ion in A,a.u.               =      26.73       180.38
  Fermi-wavevector in a.u.,A,eV,Ry     =   1.163891  2.199434 18.431011  1.354641
  Thomas-Fermi vector in A             =   2.300435
 
 Write flags
   LWAVE        =      F    write WAVECAR
   LDOWNSAMPLE  =      F    k-point downsampling of WAVECAR
   LCHARG       =      F    write CHGCAR
   LVTOT        =      F    write LOCPOT, total local potential
   LVHAR        =      F    write LOCPOT, Hartree potential only
   LELF         =      F    write electronic localiz. function (ELF)
   LORBIT       =      0    0 simple, 1 ext, 2 COOP (PROOUT), +10 PAW based schemes


 Dipole corrections
   LMONO  =      F    monopole corrections only (constant potential shift)
   LDIPOL =      F    correct potential (dipole corrections)
   IDIPOL =      0    1-x, 2-y, 3-z, 4-all directions 
   EPSILON=  1.0000000 bulk dielectric constant

 Exchange correlation treatment:
   GGA     =    --    GGA type
   LEXCH   =     8    internal setting for exchange type
   VOSKOWN=      0    Vosko Wilk Nusair interpolation
   LHFCALC =     F    Hartree Fock is set to
   LHFONE  =     F    Hartree Fock one center treatment
   AEXX    =    0.0000 exact exchange contribution

 Linear response parameters
   LEPSILON=     F    determine dielectric tensor
   LRPA    =     F    only Hartree local field effects (RPA)
   LNABLA  =     F    use nabla operator in PAW spheres
   LVEL    =     F    velocity operator in full k-point grid
   LINTERFAST=   F  fast interpolation
   KINTER  =     0    interpolate to denser k-point grid
   CSHIFT  =0.1000    complex shift for real part using Kramers Kronig
   OMEGAMAX=  -1.0    maximum frequency
   DEG_THRESHOLD= 0.2000000E-02 threshold for treating states as degnerate
   RTIME   =   -0.100 relaxation time in fs
  (WPLASMAI=    0.000 imaginary part of plasma frequency in eV, 0.658/RTIME)
   DFIELD  = 0.0000000 0.0000000 0.0000000 field for delta impulse in time
 
 Orbital magnetization related:
   ORBITALMAG=     F  switch on orbital magnetization
   LCHIMAG   =     F  perturbation theory with respect to B field
   DQ        =  0.001000  dq finite difference perturbation B field
   LLRAUG    =     F  two centre corrections for induced B field



--------------------------------------------------------------------------------------------------------


 finite differences
   using selective dynamics as specified on POSCAR
   WARNING: If single coordinates had been selected the selection of coordinates
            is made according to the corresponding   d i r e c t   coordinates!
            Don't support selection of single cartesian coordinates -- sorry ...
  !
 charge density and potential will be updated during run
 spin polarized calculation
 RMM-DIIS sequential band-by-band and
  variant of blocked Davidson during initial phase
 perform sub-space diagonalisation
    before iterative eigenvector-optimisation
 modified Broyden-mixing scheme, WC =      100.0
 initial mixing is a Kerker type mixing with AMIX =  0.4000 and BMIX =      1.0000
 Hartree-type preconditioning will be used
 using additional bands          235
 real space projection scheme for non local part
 use partial core corrections
 calculate Harris-corrections to forces 
   (improved forces if not selfconsistent)
 use gradient corrections 
 use of overlap-Matrix (Vanderbilt PP)
 Fermi weights with tetrahedron method with Bloechl corrections


--------------------------------------------------------------------------------------------------------


  energy-cutoff  :      550.00
  volume of cell :     2165.05
      direct lattice vectors                 reciprocal lattice vectors
    10.659999847  0.000000000  0.000000000     0.093808632 -0.054160439  0.000000000
     5.329999924  9.231830672  0.000000000     0.000000000  0.108320878  0.000000000
     0.000000000  0.000000000 22.000000000     0.000000000  0.000000000  0.045454545

  length of vectors
    10.659999847 10.659999847 22.000000000     0.108320878  0.108320878  0.045454545


 
 k-points in units of 2pi/SCALE and weight: mesh auto                               
   0.00000000  0.00000000  0.00000000       0.250
   0.04690432 -0.02708022  0.00000000       0.250
   0.00000000  0.05416044  0.00000000       0.250
   0.04690432  0.02708022  0.00000000       0.250
 
 k-points in reciprocal lattice and weights: mesh auto                               
   0.00000000  0.00000000  0.00000000       0.250
   0.50000000 -0.00000000  0.00000000       0.250
   0.00000000  0.50000000  0.00000000       0.250
   0.50000000  0.50000000  0.00000000       0.250
 
 position of ions in fractional coordinates (direct lattice) 
   0.78636062  0.87920895  0.31623369
   0.04280060  0.88249195  0.31436773
   0.27976151  0.38054513  0.31870378
   0.87517885  0.96090202  0.42104306
   0.12086277  0.46282703  0.42658523
   0.12501149  0.96102871  0.41991554
   0.87520963  0.45978699  0.42441222
   0.37410212  0.96035057  0.41911088
   0.87676196  0.20957424  0.41807014
   0.12539288  0.21147210  0.42097832
   0.62445849  0.96009216  0.42205628
   0.87376319  0.71108150  0.42459188
   0.37318796  0.20886431  0.42303576
   0.37443824  0.71362095  0.42175768
   0.62603004  0.46307669  0.42590106
   0.12380894  0.71114641  0.42429101
   0.62428089  0.20836436  0.42449630
   0.54975325  0.37706830  0.31791927
   0.53565759  0.12640935  0.31508676
   0.54860226  0.12207837  0.04171946
   0.12037701  0.45967589  0.12832010
   0.04405296  0.13662616  0.31344683
   0.04184264  0.13051489  0.03430237
   0.13087669  0.95764103  0.13245935
   0.37065159  0.46305832  0.42339189
   0.45585718  0.54513414  0.21883503
   0.62211715  0.71078283  0.42125474
   0.95645948  0.78819754  0.22064994
   0.79559146  0.62234365  0.31827067
   0.29186469  0.63098666  0.31728071
   0.20264463  0.27924415  0.22536440
   0.70619570  0.54968823  0.22091590
   0.04072771  0.63081485  0.32424626
   0.79601056  0.86182010  0.04358326
   0.05654378  0.86511100  0.03922008
   0.04354811  0.63172365  0.03890931
   0.62768151  0.22351632  0.12936912
   0.38251648  0.95408414  0.13073287
   0.03622872  0.38355018  0.32358387
   0.02789537  0.38111357  0.03922688
   0.87238548  0.21524336  0.12909491
   0.95558120  0.54368312  0.22373159
   0.29742049  0.11609166  0.32073278
   0.54055184  0.63006900  0.32136107
   0.29593874  0.11566849  0.04109769
   0.54915757  0.62535345  0.04512996
   0.29444361  0.38188257  0.03954700
   0.62577798  0.94799811  0.13283874
   0.70661036  0.79359317  0.22018991
   0.86523064  0.70443471  0.12965162
   0.62674088  0.45978399  0.12791088
   0.29747795  0.87568828  0.31760227
   0.30656831  0.86859519  0.04153612
   0.62656079  0.71505450  0.12903147
   0.22562513  0.02740506  0.22736234
   0.54425403  0.38139876  0.03593963
   0.37883082  0.20414358  0.13341050
   0.13702030  0.70469682  0.13275664
   0.70465548  0.05073890  0.22033347
   0.79286387  0.12978735  0.31640225
   0.53848078  0.87406877  0.31667209
   0.79690904  0.12300803  0.03589815
   0.54639677  0.86991640  0.03703501
   0.20833828  0.54185970  0.22369516
   0.95098415  0.29761772  0.22152435
   0.87203635  0.96412677  0.12966428
   0.71497311  0.28990482  0.22382064
   0.45788695  0.29239665  0.22127391
   0.87549525  0.45703326  0.12894021
   0.12808024  0.20618715  0.12934578
   0.79201094  0.62176511  0.04149761
   0.29752238  0.62870438  0.04356032
   0.38614974  0.71252577  0.12966825
   0.38234618  0.45146388  0.12688447
   0.79248370  0.38056086  0.31994298
   0.79142063  0.37689392  0.04093851
   0.95567869  0.05329253  0.22141123
   0.45881981  0.79614472  0.22495703
   0.21563831  0.79704925  0.22442504
   0.46223151  0.02915679  0.22268786
   0.62441846  0.32834088  0.47538188
 
 position of ions in cartesian coordinates  (Angst):
  13.06878778  8.11670817  6.95714113
   5.15993642  8.14701626  6.91608999
   5.01056320  3.51312825  7.01148323
  14.45101413  8.87088472  9.26294731
   3.75526509  4.27274074  9.38487512
   6.45490542  8.87205435  9.23814177
  11.78039917  4.24467564  9.33706884
   9.10659703  8.86579389  9.22043932
  10.46331312  1.93475394  9.19754300
   2.46383439  1.95227459  9.26152298
  11.77401849  8.86340822  9.28523816
  13.10437982  6.56458403  9.34102127
   5.09143034  1.92819992  9.30678668
   7.79511118  6.58802774  9.27866899
   9.14167886  4.27504555  9.36982327
   5.11021358  6.56518324  9.33440215
   7.76541618  1.92358448  9.33891868
   7.87014359  3.48103070  6.99422394
   6.38387167  1.16698970  6.93190873
   6.49877769  1.12700682  0.91782815
   3.73329140  4.24365001  2.82304227
   1.19782199  1.26130955  6.89583020
   1.14168689  1.20489139  0.75465211
   6.49937211  8.84077982  2.91410569
   6.41924666  4.27487600  9.31462162
   7.76500243  5.03258611  4.81437074
  10.42024114  6.56182672  9.26760437
  14.39695068  7.27650621  4.85429873
  11.79809648  5.74537115  7.00195479
   6.47443647  5.82516204  6.98017564
   3.64856297  2.57793467  4.95801685
  10.45788429  5.07462864  4.86014976
   3.79640048  5.82357586  7.13341770
  13.07897347  7.95617723  0.95883175
   5.21379828  7.98655826  0.86284167
   3.83130979  5.83196573  0.85600479
   7.88242681  2.06346482  2.84612068
   9.16289403  8.80794326  2.87612304
   2.43052052  3.54087029  7.11884511
   2.32869997  3.51837592  0.86299137
  10.44687620  1.98709023  2.84008810
  13.08432638  5.01919049  4.92209506
   3.78927095  1.07173857  7.05612108
   9.12055029  5.81669035  7.06994359
   3.77121995  1.06783187  0.90414915
   9.18715339  5.77315714  0.99285907
   5.17420286  3.52547522  0.87003394
  11.72362308  8.75175804  2.92245229
  11.76231790  7.32631776  4.84417791
  12.97799537  6.50322193  2.85233561
   9.13170631  4.24464793  2.81403934
   7.83853337  8.08420595  6.98724996
   7.89763048  8.01872375  0.91379463
  10.49037833  6.60126203  2.83869239
   2.55123279  0.25299883  5.00197155
   7.83460323  3.52100880  0.79067188
   5.12642169  1.88461893  2.93503107
   5.21667036  6.50564171  2.92064609
   7.78206560  0.46841291  4.84733641
   9.14369530  1.19817483  6.96084956
  10.39899152  8.06925488  6.96678602
   9.15068307  1.13558928  0.78975929
  10.46124387  8.03092093  0.81477030
   5.10899819  5.00235704  4.92129360
  11.72379335  2.74755640  4.87353572
  14.43470298  8.90065509  2.85261421
   9.16680592  2.67635223  4.92405406
   6.43954896  2.69935633  4.86802595
  11.76876646  4.21925362  2.83668457
   2.46431279  1.90348482  2.84560726
  11.75684446  5.74003023  0.91294740
   6.52258279  5.80409234  0.95832694
   7.91411848  6.57791728  2.85270146
   6.48211261  4.16783809  2.79145838
  10.47626550  3.51327339  7.03874550
  10.44538833  3.47942085  0.90064720
  10.47158383  0.49198758  4.87104704
   9.13447043  7.34987326  4.94905468
   6.54697683  7.35822375  4.93735081
   5.08279352  0.26917059  4.89913298
   8.40635754  3.03118742 10.45840140
 


--------------------------------------------------------------------------------------------------------


 k-point  1 :   0.0000 0.0000 0.0000  plane waves:   63475
 k-point  2 :   0.5000-0.0000 0.0000  plane waves:   63428
 k-point  3 :   0.0000 0.5000 0.0000  plane waves:   63428
 k-point  4 :   0.5000 0.5000 0.0000  plane waves:   63428

 maximum and minimum number of plane-waves per node :     63475    63428

 maximum number of plane-waves:     63475
 maximum index in each direction: 
   IXMAX=   20   IYMAX=   20   IZMAX=   42
   IXMIN=  -20   IYMIN=  -20   IZMIN=  -42


 serial   3D FFT for wavefunctions
 parallel 3D FFT for charge:
    minimum data exchange during FFTs selected (reduces bandwidth)


 total amount of memory used by VASP MPI-rank0   369873. kBytes
=======================================================================

   base      :      30000. kBytes
   nonlr-proj:      96570. kBytes
   fftplans  :      12162. kBytes
   grid      :     120476. kBytes
   one-center:       2519. kBytes
   wavefun   :     108146. kBytes
 
     INWAV:  cpu time    0.0000: real time    0.0004
 Broyden mixing: mesh for mixing (old mesh)
   NGX = 41   NGY = 41   NGZ = 85
  (NGX  =168   NGY  =168   NGZ  =336)
  gives a total of 142885 points

 initial charge density was supplied:
 charge density of overlapping atoms calculated
 number of electron     778.0000000 magnetization     231.0000000
 keeping initial charge density in first step


--------------------------------------------------------------------------------------------------------


 Maximum index for non-local projection operator         7409
 Maximum index for augmentation-charges         1446 (set IRDMAX)


--------------------------------------------------------------------------------------------------------


 First call to EWALD:  gamma=   0.137
 Maximum number of real-space cells 4x 4x 2
 Maximum number of reciprocal cells 2x 2x 4

    FEWALD:  cpu time    0.0046: real time    0.0066


--------------------------------------- Iteration      1(   1)  ---------------------------------------


    POTLOK:  cpu time    0.4918: real time    0.5007
    SETDIJ:  cpu time    0.0331: real time    0.0371
     EDDAV:  cpu time   60.3143: real time   60.5465
 BZINTS: Fermi energy: 17.493658;778.000000 electrons
         Band energy:7818.168290;  BLOECHL correction: -0.006003
       DOS:  cpu time    0.0261: real time    0.0459
    --------------------------------------------
      LOOP:  cpu time   60.8654: real time   61.1303

 eigenvalue-minimisations  :  9984
 total energy-change (2. order) : 0.7574164E+04  (-0.3345343E+05)
 number of electron     778.0000000 magnetization     231.0000000
 augmentation part      778.0000000 magnetization     231.0000000

 Free energy of the ion-electron system (eV)
  ---------------------------------------------------
  alpha Z        PSCENC =      2197.15539535
  Ewald energy   TEWEN  =    222897.62867378
  -Hartree energ DENC   =   -295040.18399964
  -exchange      EXHF   =         0.00000000
  -V(xc)+E(xc)   XCENC  =      1384.64936777
  PAW double counting   =     64136.80006862   -66038.70876209
  entropy T*S    EENTRO =         0.00000000
  eigenvalues    EBANDS =      7818.16828990
  atomic energy  EATOM  =     70218.65458108
  Solvation  Ediel_sol  =         0.00000000
  ---------------------------------------------------
  free energy    TOTEN  =      7574.16361477 eV

  energy without entropy =     7574.16361477  energy(sigma->0) =     7574.16361477


--------------------------------------------------------------------------------------------------------




--------------------------------------- Iteration      1(   2)  ---------------------------------------


     EDDAV:  cpu time   60.8343: real time   61.0913
 BZINTS: Fermi energy:  5.757496;778.000000 electrons
         Band energy: 883.568756;  BLOECHL correction: -0.099997
       DOS:  cpu time    0.0202: real time    0.0595
    --------------------------------------------
      LOOP:  cpu time   60.8545: real time   61.1508

 eigenvalue-minimisations  : 10128
 total energy-change (2. order) :-0.6934600E+04  (-0.6150787E+04)
 number of electron     778.0000000 magnetization     231.0000000
 augmentation part      778.0000000 magnetization     231.0000000

 Free energy of the ion-electron system (eV)
  ---------------------------------------------------
  alpha Z        PSCENC =      2197.15539535
  Ewald energy   TEWEN  =    222897.62867378
  -Hartree energ DENC   =   -295040.18399964
  -exchange      EXHF   =         0.00000000
  -V(xc)+E(xc)   XCENC  =      1384.64936777
  PAW double counting   =     64136.80006862   -66038.70876209
  entropy T*S    EENTRO =         0.00000000
  eigenvalues    EBANDS =       883.56875604
  atomic energy  EATOM  =     70218.65458108
  Solvation  Ediel_sol  =         0.00000000
  ---------------------------------------------------
  free energy    TOTEN  =       639.56408091 eV

  energy without entropy =      639.56408091  energy(sigma->0) =      639.56408091


--------------------------------------------------------------------------------------------------------




--------------------------------------- Iteration      1(   3)  ---------------------------------------


     EDDAV:  cpu time   60.2746: real time   60.4478
 BZINTS: Fermi energy:  3.433909;778.000000 electrons
         Band energy:-184.350555;  BLOECHL correction: -0.029477
       DOS:  cpu time    0.0242: real time    0.0328
    --------------------------------------------
      LOOP:  cpu time   60.2988: real time   60.4806

 eigenvalue-minimisations  : 10032
 total energy-change (2. order) :-0.1067919E+04  (-0.8926796E+03)
 number of electron     778.0000000 magnetization     231.0000000
 augmentation part      778.0000000 magnetization     231.0000000

 Free energy of the ion-electron system (eV)
  ---------------------------------------------------
  alpha Z        PSCENC =      2197.15539535
  Ewald energy   TEWEN  =    222897.62867378
  -Hartree energ DENC   =   -295040.18399964
  -exchange      EXHF   =         0.00000000
  -V(xc)+E(xc)   XCENC  =      1384.64936777
  PAW double counting   =     64136.80006862   -66038.70876209
  entropy T*S    EENTRO =         0.00000000
  eigenvalues    EBANDS =      -184.35055451
  atomic energy  EATOM  =     70218.65458108
  Solvation  Ediel_sol  =         0.00000000
  ---------------------------------------------------
  free energy    TOTEN  =      -428.35522964 eV

  energy without entropy =     -428.35522964  energy(sigma->0) =     -428.35522964


--------------------------------------------------------------------------------------------------------




--------------------------------------- Iteration      1(   4)  ---------------------------------------


     EDDAV:  cpu time   71.5285: real time   71.7716
 BZINTS: Fermi energy:  3.302532;778.000000 electrons
         Band energy:-251.160392;  BLOECHL correction: -0.016182
       DOS:  cpu time    0.0247: real time    0.0445
    --------------------------------------------
      LOOP:  cpu time   71.5532: real time   71.8161

 eigenvalue-minimisations  : 12384
 total energy-change (2. order) :-0.6680984E+02  (-0.6407581E+02)
 number of electron     778.0000000 magnetization     231.0000000
 augmentation part      778.0000000 magnetization     231.0000000

 Free energy of the ion-electron system (eV)
  ---------------------------------------------------
  alpha Z        PSCENC =      2197.15539535
  Ewald energy   TEWEN  =    222897.62867378
  -Hartree energ DENC   =   -295040.18399964
  -exchange      EXHF   =         0.00000000
  -V(xc)+E(xc)   XCENC  =      1384.64936777
  PAW double counting   =     64136.80006862   -66038.70876209
  entropy T*S    EENTRO =         0.00000000
  eigenvalues    EBANDS =      -251.16039158
  atomic energy  EATOM  =     70218.65458108
  Solvation  Ediel_sol  =         0.00000000
  ---------------------------------------------------
  free energy    TOTEN  =      -495.16506671 eV

  energy without entropy =     -495.16506671  energy(sigma->0) =     -495.16506671


--------------------------------------------------------------------------------------------------------




--------------------------------------- Iteration      1(   5)  ---------------------------------------


     EDDAV:  cpu time   71.3902: real time   71.6384
 BZINTS: Fermi energy:  3.299210;778.000000 electrons
         Band energy:-253.334999;  BLOECHL correction: -0.016175
       DOS:  cpu time    0.0457: real time    0.1732
    CHARGE:  cpu time    2.6937: real time    2.7045
    MIXING:  cpu time    0.0107: real time    0.0108
    --------------------------------------------
      LOOP:  cpu time   74.1404: real time   74.5269

 eigenvalue-minimisations  : 12336
 total energy-change (2. order) :-0.2174607E+01  (-0.2169312E+01)
 number of electron     778.0000014 magnetization     216.5781083
 augmentation part      334.9672557 magnetization     183.9562576

 Broyden mixing:
  rms(total) = 0.11742E+02    rms(broyden)= 0.11742E+02
  rms(prec ) = 0.12060E+02
  weight for this iteration     100.00

 Free energy of the ion-electron system (eV)
  ---------------------------------------------------
  alpha Z        PSCENC =      2197.15539535
  Ewald energy   TEWEN  =    222897.62867378
  -Hartree energ DENC   =   -295040.18399964
  -exchange      EXHF   =         0.00000000
  -V(xc)+E(xc)   XCENC  =      1384.64936777
  PAW double counting   =     64136.80006862   -66038.70876209
  entropy T*S    EENTRO =         0.00000000
  eigenvalues    EBANDS =      -253.33499880
  atomic energy  EATOM  =     70218.65458108
  Solvation  Ediel_sol  =         0.00000000
  ---------------------------------------------------
  free energy    TOTEN  =      -497.33967393 eV

  energy without entropy =     -497.33967393  energy(sigma->0) =     -497.33967393


--------------------------------------------------------------------------------------------------------




--------------------------------------- Iteration      1(   6)  ---------------------------------------


    POTLOK:  cpu time    0.4164: real time    0.4184
    SETDIJ:  cpu time    0.0316: real time    0.0318
    EDDIAG:  cpu time   10.0872: real time   10.1138
  RMM-DIIS:  cpu time   37.7068: real time   37.8537
    ORTHCH:  cpu time    1.6898: real time    1.6943
 BZINTS: Fermi energy:  1.549032;778.000000 electrons
         Band energy:***********;  BLOECHL correction: -0.046244
       DOS:  cpu time    0.0278: real time    0.0279
    CHARGE:  cpu time    2.6740: real time    2.6813
    MIXING:  cpu time    0.0109: real time    0.0114
    --------------------------------------------
      LOOP:  cpu time   52.6446: real time   52.8326

 eigenvalue-minimisations  : 10038
 total energy-change (2. order) :-0.1635223E+03  (-0.8413608E+02)
 number of electron     778.0000018 magnetization     212.4716167
 augmentation part      406.3355154 magnetization     179.7941806

 Broyden mixing:
  rms(total) = 0.19669E+02    rms(broyden)= 0.19669E+02
  rms(prec ) = 0.25471E+02
  weight for this iteration     100.00

 eigenvalues of (default mixing * dielectric matrix)
  average eigenvalue GAMMA=   0.2253
  0.2253

 Free energy of the ion-electron system (eV)
  ---------------------------------------------------
  alpha Z        PSCENC =      2197.15539535
  Ewald energy   TEWEN  =    222897.62867378
  -Hartree energ DENC   =   -293423.02070541
  -exchange      EXHF   =         0.00000000
  -V(xc)+E(xc)   XCENC  =      1338.28740790
  PAW double counting   =     68951.70513711   -70643.45641437
  entropy T*S    EENTRO =         0.00000000
  eigenvalues    EBANDS =     -2197.81604815
  atomic energy  EATOM  =     70218.65458108
  Solvation  Ediel_sol  =         0.00000000
  ---------------------------------------------------
  free energy    TOTEN  =      -660.86197273 eV

  energy without entropy =     -660.86197273  energy(sigma->0) =     -660.86197273


--------------------------------------------------------------------------------------------------------




--------------------------------------- Iteration      1(   7)  ---------------------------------------


    POTLOK:  cpu time    0.4137: real time    0.4162
    SETDIJ:  cpu time    0.0319: real time    0.0320
    EDDIAG:  cpu time   10.1001: real time   10.1285
  RMM-DIIS:  cpu time   37.7710: real time   37.9252
    ORTHCH:  cpu time    1.7014: real time    1.7079
 BZINTS: Fermi energy:  3.004562;778.000000 electrons
         Band energy:***********;  BLOECHL correction: -0.010090
       DOS:  cpu time    0.0273: real time    0.0274
    CHARGE:  cpu time    2.7026: real time    2.7100
    MIXING:  cpu time    0.0111: real time    0.0172
    --------------------------------------------
      LOOP:  cpu time   52.7590: real time   52.9645

 eigenvalue-minimisations  : 10001
 total energy-change (2. order) : 0.1205103E+03  (-0.1470381E+02)
 number of electron     778.0000019 magnetization     207.8598784
 augmentation part      365.9748225 magnetization     165.2313492

 Broyden mixing:
  rms(total) = 0.15673E+02    rms(broyden)= 0.15673E+02
  rms(prec ) = 0.21147E+02
  weight for this iteration     100.00

 eigenvalues of (default mixing * dielectric matrix)
  average eigenvalue GAMMA=   0.2668
  0.3666  0.1671

 Free energy of the ion-electron system (eV)
  ---------------------------------------------------
  alpha Z        PSCENC =      2197.15539535
  Ewald energy   TEWEN  =    222897.62867378
  -Hartree energ DENC   =   -294112.90334822
  -exchange      EXHF   =         0.00000000
  -V(xc)+E(xc)   XCENC  =      1358.78653700
  PAW double counting   =     70004.72723339   -71857.63410001
  entropy T*S    EENTRO =         0.00000000
  eigenvalues    EBANDS =     -1246.76661632
  atomic energy  EATOM  =     70218.65458108
  Solvation  Ediel_sol  =         0.00000000
  ---------------------------------------------------
  free energy    TOTEN  =      -540.35164396 eV

  energy without entropy =     -540.35164396  energy(sigma->0) =     -540.35164396


--------------------------------------------------------------------------------------------------------




--------------------------------------- Iteration      1(   8)  ---------------------------------------


    POTLOK:  cpu time    0.4198: real time    0.4219
    SETDIJ:  cpu time    0.0313: real time    0.0314
    EDDIAG:  cpu time   10.0865: real time   10.1147
  RMM-DIIS:  cpu time   37.6847: real time   37.8498
    ORTHCH:  cpu time    1.6868: real time    1.6913
 BZINTS: Fermi energy:  2.609741;778.000000 electrons
         Band energy:-858.033991;  BLOECHL correction: -0.006174
       DOS:  cpu time    0.0281: real time    0.0282
    CHARGE:  cpu time    2.6887: real time    2.6960
    MIXING:  cpu time    0.0115: real time    0.0117
    --------------------------------------------
      LOOP:  cpu time   52.6376: real time   52.8452

 eigenvalue-minimisations  : 10010
 total energy-change (2. order) : 0.6273513E+02  (-0.9122007E+01)
[...]
      9.120550  5.816690  7.069944            0           0           0  
      3.771220  1.067832  0.904149            0           0           0  
      9.187153  5.773157  0.992859            0           0           0  
      5.174203  3.525475  0.870034            0           0           0  
     11.723623  8.751758  2.922452            0           0           0  
     11.762318  7.326318  4.844178            0           0           0  
     12.977995  6.503222  2.852336            0           0           0  
      9.131706  4.244648  2.814039            0           0           0  
      7.838533  8.084206  6.987250            0           0           0  
      7.897630  8.018724  0.913795            0           0           0  
     10.490378  6.601262  2.838692            0           0           0  
      2.551233  0.252999  5.001972            0           0           0  
      7.834603  3.521009  0.790672            0           0           0  
      5.126422  1.884619  2.935031            0           0           0  
      5.216670  6.505642  2.920646            0           0           0  
      7.782066  0.468413  4.847336            0           0           0  
      9.143695  1.198175  6.960850            0           0           0  
     10.398992  8.069255  6.966786            0           0           0  
      9.150683  1.135589  0.789759            0           0           0  
     10.461244  8.030921  0.814770            0           0           0  
      5.108998  5.002357  4.921294            0           0           0  
     11.723793  2.747556  4.873536            0           0           0  
     14.434703  8.900655  2.852614            0           0           0  
      9.166806  2.676352  4.924054            0           0           0  
      6.439549  2.699356  4.868026            0           0           0  
     11.768766  4.219254  2.836685            0           0           0  
      2.464313  1.903485  2.845607            0           0           0  
     11.756844  5.740030  0.912947            0           0           0  
      6.522583  5.804092  0.958327            0           0           0  
      7.914118  6.577917  2.852701            0           0           0  
      6.482113  4.167838  2.791458            0           0           0  
     10.476266  3.513273  7.038746            0           0           0  
     10.445388  3.479421  0.900647            0           0           0  
     10.471584  0.491988  4.871047            0           0           0  
      9.134470  7.349873  4.949055            0           0           0  
      6.546977  7.358224  4.937351            0           0           0  
      5.082794  0.269171  4.899133            0           0           0  
      8.406358  3.031187 10.458401     0.175719    0.302808    0.936712  
 
   2 f  =   24.561909 THz   154.327025 2PiTHz  819.297064 cm-1   101.579926 meV
             X         Y         Z           dx          dy          dz
     13.068788  8.116708  6.957141            0           0           0  
      5.159936  8.147016  6.916090            0           0           0  
      5.010563  3.513128  7.011483            0           0           0  
     14.451014  8.870885  9.262947            0           0           0  
      3.755265  4.272741  9.384875            0           0           0  
      6.454905  8.872054  9.238142            0           0           0  
     11.780399  4.244676  9.337069            0           0           0  
      9.106597  8.865794  9.220439            0           0           0  
     10.463313  1.934754  9.197543            0           0           0  
      2.463834  1.952275  9.261523            0           0           0  
     11.774018  8.863408  9.285238            0           0           0  
     13.104380  6.564584  9.341021            0           0           0  
      5.091430  1.928200  9.306787            0           0           0  
      7.795111  6.588028  9.278669            0           0           0  
      9.141679  4.275046  9.369823            0           0           0  
      5.110214  6.565183  9.334402            0           0           0  
      7.765416  1.923584  9.338919            0           0           0  
      7.870144  3.481031  6.994224            0           0           0  
      6.383872  1.166990  6.931909            0           0           0  
      6.498778  1.127007  0.917828            0           0           0  
      3.733291  4.243650  2.823042            0           0           0  
      1.197822  1.261310  6.895830            0           0           0  
      1.141687  1.204891  0.754652            0           0           0  
      6.499372  8.840780  2.914106            0           0           0  
      6.419247  4.274876  9.314622            0           0           0  
      7.765002  5.032586  4.814371            0           0           0  
     10.420241  6.561827  9.267604            0           0           0  
     14.396951  7.276506  4.854299            0           0           0  
     11.798096  5.745371  7.001955            0           0           0  
      6.474436  5.825162  6.980176            0           0           0  
      3.648563  2.577935  4.958017            0           0           0  
     10.457884  5.074629  4.860150            0           0           0  
      3.796400  5.823576  7.133418            0           0           0  
     13.078973  7.956177  0.958832            0           0           0  
      5.213798  7.986558  0.862842            0           0           0  
      3.831310  5.831966  0.856005            0           0           0  
      7.882427  2.063465  2.846121            0           0           0  
      9.162894  8.807943  2.876123            0           0           0  
      2.430521  3.540870  7.118845            0           0           0  
      2.328700  3.518376  0.862991            0           0           0  
     10.446876  1.987090  2.840088            0           0           0  
     13.084326  5.019190  4.922095            0           0           0  
      3.789271  1.071739  7.056121            0           0           0  
      9.120550  5.816690  7.069944            0           0           0  
      3.771220  1.067832  0.904149            0           0           0  
      9.187153  5.773157  0.992859            0           0           0  
      5.174203  3.525475  0.870034            0           0           0  
     11.723623  8.751758  2.922452            0           0           0  
     11.762318  7.326318  4.844178            0           0           0  
     12.977995  6.503222  2.852336            0           0           0  
      9.131706  4.244648  2.814039            0           0           0  
      7.838533  8.084206  6.987250            0           0           0  
      7.897630  8.018724  0.913795            0           0           0  
     10.490378  6.601262  2.838692            0           0           0  
      2.551233  0.252999  5.001972            0           0           0  
      7.834603  3.521009  0.790672            0           0           0  
      5.126422  1.884619  2.935031            0           0           0  
      5.216670  6.505642  2.920646            0           0           0  
      7.782066  0.468413  4.847336            0           0           0  
      9.143695  1.198175  6.960850            0           0           0  
     10.398992  8.069255  6.966786            0           0           0  
      9.150683  1.135589  0.789759            0           0           0  
     10.461244  8.030921  0.814770            0           0           0  
      5.108998  5.002357  4.921294            0           0           0  
     11.723793  2.747556  4.873536            0           0           0  
     14.434703  8.900655  2.852614            0           0           0  
      9.166806  2.676352  4.924054            0           0           0  
      6.439549  2.699356  4.868026            0           0           0  
     11.768766  4.219254  2.836685            0           0           0  
      2.464313  1.903485  2.845607            0           0           0  
     11.756844  5.740030  0.912947            0           0           0  
      6.522583  5.804092  0.958327            0           0           0  
      7.914118  6.577917  2.852701            0           0           0  
      6.482113  4.167838  2.791458            0           0           0  
     10.476266  3.513273  7.038746            0           0           0  
     10.445388  3.479421  0.900647            0           0           0  
     10.471584  0.491988  4.871047            0           0           0  
      9.134470  7.349873  4.949055            0           0           0  
      6.546977  7.358224  4.937351            0           0           0  
      5.082794  0.269171  4.899133            0           0           0  
      8.406358  3.031187 10.458401     0.511470    0.784931   -0.349689  
 
   3 f  =    3.508453 THz    22.044258 2PiTHz  117.029378 cm-1    14.509799 meV
             X         Y         Z           dx          dy          dz
     13.068788  8.116708  6.957141            0           0           0  
      5.159936  8.147016  6.916090            0           0           0  
      5.010563  3.513128  7.011483            0           0           0  
     14.451014  8.870885  9.262947            0           0           0  
      3.755265  4.272741  9.384875            0           0           0  
      6.454905  8.872054  9.238142            0           0           0  
     11.780399  4.244676  9.337069            0           0           0  
      9.106597  8.865794  9.220439            0           0           0  
     10.463313  1.934754  9.197543            0           0           0  
      2.463834  1.952275  9.261523            0           0           0  
     11.774018  8.863408  9.285238            0           0           0  
     13.104380  6.564584  9.341021            0           0           0  
      5.091430  1.928200  9.306787            0           0           0  
      7.795111  6.588028  9.278669            0           0           0  
      9.141679  4.275046  9.369823            0           0           0  
      5.110214  6.565183  9.334402            0           0           0  
      7.765416  1.923584  9.338919            0           0           0  
      7.870144  3.481031  6.994224            0           0           0  
      6.383872  1.166990  6.931909            0           0           0  
      6.498778  1.127007  0.917828            0           0           0  
      3.733291  4.243650  2.823042            0           0           0  
      1.197822  1.261310  6.895830            0           0           0  
      1.141687  1.204891  0.754652            0           0           0  
      6.499372  8.840780  2.914106            0           0           0  
      6.419247  4.274876  9.314622            0           0           0  
      7.765002  5.032586  4.814371            0           0           0  
     10.420241  6.561827  9.267604            0           0           0  
     14.396951  7.276506  4.854299            0           0           0  
     11.798096  5.745371  7.001955            0           0           0  
      6.474436  5.825162  6.980176            0           0           0  
      3.648563  2.577935  4.958017            0           0           0  
     10.457884  5.074629  4.860150            0           0           0  
      3.796400  5.823576  7.133418            0           0           0  
     13.078973  7.956177  0.958832            0           0           0  
      5.213798  7.986558  0.862842            0           0           0  
      3.831310  5.831966  0.856005            0           0           0  
      7.882427  2.063465  2.846121            0           0           0  
      9.162894  8.807943  2.876123            0           0           0  
      2.430521  3.540870  7.118845            0           0           0  
      2.328700  3.518376  0.862991            0           0           0  
     10.446876  1.987090  2.840088            0           0           0  
     13.084326  5.019190  4.922095            0           0           0  
      3.789271  1.071739  7.056121            0           0           0  
      9.120550  5.816690  7.069944            0           0           0  
      3.771220  1.067832  0.904149            0           0           0  
      9.187153  5.773157  0.992859            0           0           0  
      5.174203  3.525475  0.870034            0           0           0  
     11.723623  8.751758  2.922452            0           0           0  
     11.762318  7.326318  4.844178            0           0           0  
     12.977995  6.503222  2.852336            0           0           0  
      9.131706  4.244648  2.814039            0           0           0  
      7.838533  8.084206  6.987250            0           0           0  
      7.897630  8.018724  0.913795            0           0           0  
     10.490378  6.601262  2.838692            0           0           0  
      2.551233  0.252999  5.001972            0           0           0  
      7.834603  3.521009  0.790672            0           0           0  
      5.126422  1.884619  2.935031            0           0           0  
      5.216670  6.505642  2.920646            0           0           0  
      7.782066  0.468413  4.847336            0           0           0  
      9.143695  1.198175  6.960850            0           0           0  
     10.398992  8.069255  6.966786            0           0           0  
      9.150683  1.135589  0.789759            0           0           0  
     10.461244  8.030921  0.814770            0           0           0  
      5.108998  5.002357  4.921294            0           0           0  
     11.723793  2.747556  4.873536            0           0           0  
     14.434703  8.900655  2.852614            0           0           0  
      9.166806  2.676352  4.924054            0           0           0  
      6.439549  2.699356  4.868026            0           0           0  
     11.768766  4.219254  2.836685            0           0           0  
      2.464313  1.903485  2.845607            0           0           0  
     11.756844  5.740030  0.912947            0           0           0  
      6.522583  5.804092  0.958327            0           0           0  
      7.914118  6.577917  2.852701            0           0           0  
      6.482113  4.167838  2.791458            0           0           0  
     10.476266  3.513273  7.038746            0           0           0  
     10.445388  3.479421  0.900647            0           0           0  
     10.471584  0.491988  4.871047            0           0           0  
      9.134470  7.349873  4.949055            0           0           0  
      6.546977  7.358224  4.937351            0           0           0  
      5.082794  0.269171  4.899133            0           0           0  
      8.406358  3.031187 10.458401     0.841143   -0.540547    0.016950  
 
 Finite differences POTIM=  1.500000000000000E-002
  LATTYP: Found a hexagonal cell.
 ALAT       =    10.6599998474
 C/A-ratio  =     2.0637898982
  
  Lattice vectors:
  
 A1 = (   5.3299999237,  -9.2318306722,   0.0000000000)
 A2 = ( -10.6599998474,   0.0000000000,   0.0000000000)
 A3 = (   0.0000000000,   0.0000000000, -22.0000000000)


Analysis of symmetry for initial positions (statically):
=====================================================================
 Subroutine PRICEL returns:
 Original cell was already a primitive cell.
 

 Routine SETGRP: Setting up the symmetry group for a 
 hexagonal supercell.


 Subroutine GETGRP returns: Found  1 space group operations
 (whereof  1 operations were pure point group operations)
 out of a pool of 24 trial point group operations.


The static configuration has the point symmetry C_1 .


Analysis of symmetry for dynamics (positions and initial velocities):
=====================================================================
 Subroutine PRICEL returns:
 Original cell was already a primitive cell.
 

 Routine SETGRP: Setting up the symmetry group for a 
 hexagonal supercell.


 Subroutine GETGRP returns: Found  1 space group operations
 (whereof  1 operations were pure point group operations)
 out of a pool of 24 trial point group operations.


The dynamic configuration has the point symmetry C_1 .


Analysis of constrained symmetry for selective dynamics:
=====================================================================
 Subroutine PRICEL returns:
 Original cell was already a primitive cell.
 

 Routine SETGRP: Setting up the symmetry group for a 
 hexagonal supercell.


 Subroutine GETGRP returns: Found  1 space group operations
 (whereof  1 operations were pure point group operations)
 out of a pool of 24 trial point group operations.


The constrained configuration has the point symmetry C_1 .


Analysis of structural, dynamic, and magnetic symmetry:
=====================================================================
 Subroutine PRICEL returns:
 Original cell was already a primitive cell.
 

 Routine SETGRP: Setting up the symmetry group for a 
 hexagonal supercell.


 Subroutine GETGRP returns: Found  1 space group operations
 (whereof  1 operations were pure point group operations)
 out of a pool of 24 trial point group operations.


The magnetic configuration has the point symmetry C_1 .


 Subroutine INISYM returns: Found  1 space group operations
 (whereof  1 operations are pure point group operations),
 and found     1 'primitive' translations

 
 KPOINTS: mesh auto                               

Automatic generation of k-mesh.
Space group operators:
 irot       det(A)        alpha          n_x          n_y          n_z        tau_x        tau_y        tau_z
    1     1.000000     0.000000     1.000000     0.000000     0.000000     0.000000     0.000000     0.000000
 
 Subroutine IBZKPT returns following result:
 ===========================================
 
 Found      4 irreducible k-points:
 
 Following reciprocal coordinates:
            Coordinates               Weight
  0.000000  0.000000  0.000000      1.000000
  0.500000 -0.000000  0.000000      1.000000
  0.000000  0.500000  0.000000      1.000000
  0.500000  0.500000  0.000000      1.000000
 
 Following cartesian coordinates:
            Coordinates               Weight
  0.000000  0.000000  0.000000      1.000000
  0.046904 -0.027080  0.000000      1.000000
  0.000000  0.054160  0.000000      1.000000
  0.046904  0.027080  0.000000      1.000000
 
 TETIRR: Found     12 inequivalent tetrahedra from       24
     LOOP+:  cpu time  797.6495: real time  802.5649
    4ORBIT:  cpu time    0.0000: real time    0.0000
 BZINTS: Fermi energy:  1.939828;778.000000 electrons
         Band energy:-740.976711;  BLOECHL correction: -0.270450

 total amount of memory used by VASP MPI-rank0   369873. kBytes
=======================================================================

   base      :      30000. kBytes
   nonlr-proj:      96570. kBytes
   fftplans  :      12162. kBytes
   grid      :     120476. kBytes
   one-center:       2519. kBytes
   wavefun   :     108146. kBytes
 
  
  
 General timing and accounting informations for this job:
 ========================================================
  
                  Total CPU time used (sec):     8322.582
                            User time (sec):     8249.576
                          System time (sec):       73.006
                         Elapsed time (sec):     8373.477
  
                   Maximum memory used (kb):      687492.
                   Average memory used (kb):           0.
  
                          Minor page faults:     21390199
                          Major page faults:          204
                 Voluntary context switches:         6398
