 vasp.5.4.4.18Apr17-6-g9f103f2a35 (build Oct 25 2019 11:13:22) complex          
  
 executed on             LinuxIFC date 2022.02.05  08:49:55
 running on   48 total cores
 distrk:  each k-point on   48 cores,    1 groups
 distr:  one band on NCORES_PER_BAND=   1 cores,   48 groups


--------------------------------------------------------------------------------------------------------


 INCAR:
 POTCAR:    PAW_PBE Pt 04Feb2005                  
 POTCAR:    PAW_PBE Fe 06Sep2000                  
 POTCAR:    PAW_PBE Co 02Aug2007                  
 POTCAR:    PAW_PBE Cu 22Jun2005                  
 POTCAR:    PAW_PBE Ni 02Aug2007                  
 POTCAR:    PAW_PBE H 15Jun2001                   

 ----------------------------------------------------------------------------- 
|                                                                             |
|           W    W    AA    RRRRR   N    N  II  N    N   GGGG   !!!           |
|           W    W   A  A   R    R  NN   N  II  NN   N  G    G  !!!           |
|           W    W  A    A  R    R  N N  N  II  N N  N  G       !!!           |
|           W WW W  AAAAAA  RRRRR   N  N N  II  N  N N  G  GGG   !            |
|           WW  WW  A    A  R   R   N   NN  II  N   NN  G    G                |
|           W    W  A    A  R    R  N    N  II  N    N   GGGG   !!!           |
|                                                                             |
|      For optimal performance we recommend to set                            |
|        NCORE= 4 - approx SQRT( number of cores)                             |
|      NCORE specifies how many cores store one orbital (NPAR=cpu/NCORE).     |
|      This setting can  greatly improve the performance of VASP for DFT.     |
|      The default,   NCORE=1            might be grossly inefficient         |
|      on modern multi-core architectures or massively parallel machines.     |
|      Do your own testing !!!!                                               |
|      Unfortunately you need to use the default for GW and RPA calculations. |
|      (for HF NCORE is supported but not extensively tested yet)             |
|                                                                             |
 ----------------------------------------------------------------------------- 

 POTCAR:    PAW_PBE Pt 04Feb2005                  
   VRHFIN =Pt: s1d9                                                             
   LEXCH  = PE                                                                  
   EATOM  =   729.1176 eV,   53.5886 Ry                                         
                                                                                
   TITEL  = PAW_PBE Pt 04Feb2005                                                
   LULTRA =        F    use ultrasoft PP ?                                      
   IUNSCR =        1    unscreen: 0-lin 1-nonlin 2-no                           
   RPACOR =    2.330    partial core radius                                     
   POMASS =  195.080; ZVAL   =   10.000    mass and valenz                      
   RCORE  =    2.600    outmost cutoff radius                                   
   RWIGS  =    2.750; RWIGS  =    1.455    wigner-seitz radius (au A)           
   ENMAX  =  230.283; ENMIN  =  172.712 eV                                      
   ICORE  =        3    local potential                                         
   LCOR   =        T    correct aug charges                                     
   LPAW   =        T    paw PP                                                  
   EAUG   =  358.966                                                            
   DEXC   =    0.000                                                            
   RMAX   =    2.658    core radius for proj-oper                               
   RAUG   =    1.300    factor for augmentation sphere                          
   RDEP   =    2.761    radius for radial grids                                 
   RDEPT  =    2.203    core radius for aug-charge                              
                                                                                
   Atomic configuration                                                         
   16 entries                                                                   
     n  l   j            E        occ.                                          
     1  0  0.50    -78401.1885   2.0000                                         
     2  0  0.50    -13770.7750   2.0000                                         
     2  1  1.50    -11931.0468   6.0000                                         
     3  0  0.50     -3234.7234   2.0000                                         
     3  1  1.50     -2699.2216   6.0000                                         
     3  2  2.50     -2119.5714  10.0000                                         
     4  0  0.50      -695.1528   2.0000                                         
     4  1  1.50      -519.6034   6.0000                                         
     4  2  2.50      -306.6786  10.0000                                         
     4  3  3.50       -70.1041  14.0000                                         
     5  0  0.50      -101.7747   2.0000                                         
     5  1  1.50       -55.9873   6.0000                                         
     5  2  2.50        -6.1423   9.0000                                         
     6  0  0.50        -5.6573   1.0000                                         
     6  1  1.50        -6.8029   0.0000                                         
     5  3  2.50        -1.3606   0.0000                                         
   Description                                                                  
     l       E           TYP  RCUT    TYP  RCUT                                 
     2     -6.1423404     23  2.500                                             
     2     -7.5029230     23  2.500                                             
     0     -5.6573207     23  2.500                                             
     0      0.7416693     23  2.500                                             
     1     -2.7211652     23  2.600                                             
     1     20.4087390     23  2.600                                             
     3     -1.3605826     23  2.500                                             
  local pseudopotential read in
  partial core-charges read in
  partial kinetic energy density read in
  atomic valenz-charges read in
  non local Contribution for L=           2  read in
    real space projection operators read in
  non local Contribution for L=           2  read in
    real space projection operators read in
  non local Contribution for L=           0  read in
    real space projection operators read in
  non local Contribution for L=           0  read in
    real space projection operators read in
  non local Contribution for L=           1  read in
    real space projection operators read in
  non local Contribution for L=           1  read in
    real space projection operators read in
    PAW grid and wavefunctions read in
 
   number of l-projection  operators is LMAX  =           6
   number of lm-projection operators is LMMAX =          18
 
 POTCAR:    PAW_PBE Fe 06Sep2000                  
   VRHFIN =Fe:  d7 s1                                                           
   LEXCH  = PE                                                                  
   EATOM  =   594.3153 eV,   43.6809 Ry                                         
                                                                                
   TITEL  = PAW_PBE Fe 06Sep2000                                                
   LULTRA =        F    use ultrasoft PP ?                                      
   IUNSCR =        1    unscreen: 0-lin 1-nonlin 2-no                           
   RPACOR =    2.000    partial core radius                                     
   POMASS =   55.847; ZVAL   =    8.000    mass and valenz                      
   RCORE  =    2.300    outmost cutoff radius                                   
   RWIGS  =    2.460; RWIGS  =    1.302    wigner-seitz radius (au A)           
   ENMAX  =  267.882; ENMIN  =  200.911 eV                                      
   RCLOC  =    1.701    cutoff for local pot                                    
   LCOR   =        T    correct aug charges                                     
   LPAW   =        T    paw PP                                                  
   EAUG   =  511.368                                                            
   DEXC   =    0.000                                                            
   RMAX   =    2.356    core radius for proj-oper                               
   RAUG   =    1.300    factor for augmentation sphere                          
   RDEP   =    2.442    radius for radial grids                                 
   RDEPT  =    1.890    core radius for aug-charge                              
                                                                                
   Atomic configuration                                                         
    9 entries                                                                   
     n  l   j            E        occ.                                          
     1  0  0.50     -6993.8440   2.0000                                         
     2  0  0.50      -814.6047   2.0000                                         
     2  1  1.50      -693.3689   6.0000                                         
     3  0  0.50       -89.4732   2.0000                                         
     3  1  1.50       -55.6373   6.0000                                         
     3  2  2.50        -3.8151   7.0000                                         
     4  0  0.50        -4.2551   1.0000                                         
     4  1  1.50        -3.4015   0.0000                                         
     4  3  2.50        -1.3606   0.0000                                         
   Description                                                                  
     l       E           TYP  RCUT    TYP  RCUT                                 
     2     -3.8151135     23  2.300                                             
     2     -5.1756961     23  2.300                                             
     0     -4.2550963     23  2.300                                             
     0      7.2035603     23  2.300                                             
     1     -2.7211652     23  2.300                                             
     1     18.4316424     23  2.300                                             
  local pseudopotential read in
  partial core-charges read in
  partial kinetic energy density read in
  atomic valenz-charges read in
  non local Contribution for L=           2  read in
    real space projection operators read in
  non local Contribution for L=           2  read in
    real space projection operators read in
  non local Contribution for L=           0  read in
    real space projection operators read in
  non local Contribution for L=           0  read in
    real space projection operators read in
  non local Contribution for L=           1  read in
    real space projection operators read in
  non local Contribution for L=           1  read in
    real space projection operators read in
    PAW grid and wavefunctions read in
 
   number of l-projection  operators is LMAX  =           6
   number of lm-projection operators is LMMAX =          18
 
 POTCAR:    PAW_PBE Co 02Aug2007                  
   VRHFIN =Co: d8 s1                                                            
   LEXCH  = PE                                                                  
   EATOM  =   813.3670 eV,   59.7808 Ry                                         
                                                                                
   TITEL  = PAW_PBE Co 02Aug2007                                                
   LULTRA =        F    use ultrasoft PP ?                                      
   IUNSCR =        1    unscreen: 0-lin 1-nonlin 2-no                           
   RPACOR =    2.000    partial core radius                                     
   POMASS =   58.933; ZVAL   =    9.000    mass and valenz                      
   RCORE  =    2.300    outmost cutoff radius                                   
   RWIGS  =    2.460; RWIGS  =    1.302    wigner-seitz radius (au A)           
   ENMAX  =  267.968; ENMIN  =  200.976 eV                                      
   RCLOC  =    1.203    cutoff for local pot                                    
   LCOR   =        T    correct aug charges                                     
   LPAW   =        T    paw PP                                                  
   EAUG   =  477.818                                                            
   DEXC   =    0.000                                                            
   RMAX   =    2.360    core radius for proj-oper                               
   RAUG   =    1.300    factor for augmentation sphere                          
   RDEP   =    2.393    radius for radial grids                                 
   RDEPT  =    1.864    core radius for aug-charge                              
                                                                                
   Atomic configuration                                                         
    9 entries                                                                   
     n  l   j            E        occ.                                          
     1  0  0.50     -7587.6674   2.0000                                         
     2  0  0.50      -893.6084   2.0000                                         
     2  1  1.50      -764.5805   6.0000                                         
     3  0  0.50       -97.5973   2.0000                                         
     3  1  1.50       -60.9648   6.0000                                         
     3  2  2.50        -4.2382   8.0000                                         
     4  0  0.50        -4.3746   1.0000                                         
     4  1  1.50        -4.0817   0.0000                                         
     4  3  2.50        -1.3606   0.0000                                         
   Description                                                                  
     l       E           TYP  RCUT    TYP  RCUT                                 
     2     -4.2382362     23  2.300                                             
     2     -5.5988188     23  2.300                                             
     0     -4.3745797     23  2.300                                             
     0      5.7660125     23  2.300                                             
     1     -2.7211652     23  2.300                                             
     1     16.9860234     23  2.300                                             
  local pseudopotential read in
  partial core-charges read in
  partial kinetic energy density read in
  atomic valenz-charges read in
  non local Contribution for L=           2  read in
    real space projection operators read in
  non local Contribution for L=           2  read in
    real space projection operators read in
  non local Contribution for L=           0  read in
    real space projection operators read in
  non local Contribution for L=           0  read in
    real space projection operators read in
  non local Contribution for L=           1  read in
    real space projection operators read in
  non local Contribution for L=           1  read in
    real space projection operators read in
    PAW grid and wavefunctions read in
 
   number of l-projection  operators is LMAX  =           6
   number of lm-projection operators is LMMAX =          18
 
 POTCAR:    PAW_PBE Cu 22Jun2005                  
   VRHFIN =Cu: d10 p1                                                           
   LEXCH  = PE                                                                  
   EATOM  =  1390.9808 eV,  102.2342 Ry                                         
                                                                                
   TITEL  = PAW_PBE Cu 22Jun2005                                                
   LULTRA =        F    use ultrasoft PP ?                                      
   IUNSCR =        1    unscreen: 0-lin 1-nonlin 2-no                           
   RPACOR =    2.000    partial core radius                                     
   POMASS =   63.546; ZVAL   =   11.000    mass and valenz                      
   RCORE  =    2.300    outmost cutoff radius                                   
   RWIGS  =    2.200; RWIGS  =    1.164    wigner-seitz radius (au A)           
   ENMAX  =  295.446; ENMIN  =  221.585 eV                                      
   ICORE  =        3    local potential                                         
   LCOR   =        T    correct aug charges                                     
   LPAW   =        T    paw PP                                                  
   EAUG   =  586.980                                                            
   DEXC   =    0.000                                                            
   RMAX   =    2.344    core radius for proj-oper                               
   RAUG   =    1.300    factor for augmentation sphere                          
   RDEP   =    2.302    radius for radial grids                                 
   RDEPT  =    1.771    core radius for aug-charge                              
                                                                                
   Atomic configuration                                                         
    9 entries                                                                   
     n  l   j            E        occ.                                          
     1  0  0.50     -8850.2468   2.0000                                         
     2  0  0.50     -1062.3498   2.0000                                         
     2  1  1.50      -916.8226   6.0000                                         
     3  0  0.50      -114.6929   2.0000                                         
     3  1  1.50       -72.1325   6.0000                                         
     3  2  2.50        -5.0394  10.0000                                         
     4  0  0.50        -4.6097   1.0000                                         
     4  1  0.50        -4.0817   0.0000                                         
     4  3  2.50        -1.3606   0.0000                                         
   Description                                                                  
     l       E           TYP  RCUT    TYP  RCUT                                 
     2     -5.0393973     23  2.200                                             
     2     10.8846608     23  2.200                                             
     0     -4.6097109     23  2.200                                             
     0      8.2520465     23  2.200                                             
     1     -2.7211652     23  2.200                                             
     1     21.7055443     23  2.200                                             
     3      2.7211652     23  2.300                                             
  local pseudopotential read in
  partial core-charges read in
  partial kinetic energy density read in
  atomic valenz-charges read in
  non local Contribution for L=           2  read in
    real space projection operators read in
  non local Contribution for L=           2  read in
    real space projection operators read in
  non local Contribution for L=           0  read in
    real space projection operators read in
  non local Contribution for L=           0  read in
    real space projection operators read in
  non local Contribution for L=           1  read in
    real space projection operators read in
  non local Contribution for L=           1  read in
    real space projection operators read in
    PAW grid and wavefunctions read in
 
   number of l-projection  operators is LMAX  =           6
   number of lm-projection operators is LMMAX =          18
 
 POTCAR:    PAW_PBE Ni 02Aug2007                  
   VRHFIN =Ni:                                                                  
   LEXCH  = PE                                                                  
   EATOM  =  1077.6739 eV,   79.2068 Ry                                         
                                                                                
   TITEL  = PAW_PBE Ni 02Aug2007                                                
   LULTRA =        F    use ultrasoft PP ?                                      
   IUNSCR =        1    unscreen: 0-lin 1-nonlin 2-no                           
   RPACOR =    2.000    partial core radius                                     
   POMASS =   58.690; ZVAL   =   10.000    mass and valenz                      
   RCORE  =    2.300    outmost cutoff radius                                   
   RWIGS  =    2.430; RWIGS  =    1.286    wigner-seitz radius (au A)           
   ENMAX  =  269.532; ENMIN  =  202.149 eV                                      
   RCLOC  =    1.201    cutoff for local pot                                    
   LCOR   =        T    correct aug charges                                     
   LPAW   =        T    paw PP                                                  
   EAUG   =  544.565                                                            
   DEXC   =    0.000                                                            
   RMAX   =    2.357    core radius for proj-oper                               
   RAUG   =    1.300    factor for augmentation sphere                          
   RDEP   =    2.390    radius for radial grids                                 
   RDEPT  =    1.838    core radius for aug-charge                              
                                                                                
   Atomic configuration                                                         
    9 entries                                                                   
     n  l   j            E        occ.                                          
     1  0  0.50     -8206.4253   2.0000                                         
     2  0  0.50      -976.1748   2.0000                                         
     2  1  1.50      -839.0571   6.0000                                         
     3  0  0.50      -105.9991   2.0000                                         
     3  1  1.50       -66.4603   6.0000                                         
     3  2  2.50        -4.6458   9.0000                                         
     4  0  0.50        -4.4926   1.0000                                         
     4  1  1.50        -4.0817   0.0000                                         
     4  3  2.50        -1.3606   0.0000                                         
   Description                                                                  
     l       E           TYP  RCUT    TYP  RCUT                                 
     2     -4.6457903     23  2.300                                             
     2     -6.0063729     23  2.300                                             
     0     -4.4925590     23  2.300                                             
     0      5.0102601     23  2.300                                             
     1     -2.7211652     23  2.300                                             
     1     16.5183231     23  2.300                                             
  local pseudopotential read in
  partial core-charges read in
  partial kinetic energy density read in
  atomic valenz-charges read in
  non local Contribution for L=           2  read in
    real space projection operators read in
  non local Contribution for L=           2  read in
    real space projection operators read in
  non local Contribution for L=           0  read in
    real space projection operators read in
  non local Contribution for L=           0  read in
    real space projection operators read in
  non local Contribution for L=           1  read in
    real space projection operators read in
  non local Contribution for L=           1  read in
    real space projection operators read in
    PAW grid and wavefunctions read in
 
   number of l-projection  operators is LMAX  =           6
   number of lm-projection operators is LMMAX =          18
 
 POTCAR:    PAW_PBE H 15Jun2001                   
   VRHFIN =H: ultrasoft test                                                    
   LEXCH  = PE                                                                  
   EATOM  =    12.4884 eV,    0.9179 Ry                                         
                                                                                
   TITEL  = PAW_PBE H 15Jun2001                                                 
   LULTRA =        F    use ultrasoft PP ?                                      
   IUNSCR =        0    unscreen: 0-lin 1-nonlin 2-no                           
   RPACOR =    0.000    partial core radius                                     
   POMASS =    1.000; ZVAL   =    1.000    mass and valenz                      
   RCORE  =    1.100    outmost cutoff radius                                   
   RWIGS  =    0.700; RWIGS  =    0.370    wigner-seitz radius (au A)           
   ENMAX  =  250.000; ENMIN  =  200.000 eV                                      
   RCLOC  =    0.701    cutoff for local pot                                    
   LCOR   =        T    correct aug charges                                     
   LPAW   =        T    paw PP                                                  
   EAUG   =  400.000                                                            
   RMAX   =    1.123    core radius for proj-oper                               
   RAUG   =    1.200    factor for augmentation sphere                          
   RDEP   =    1.112    radius for radial grids                                 
   RDEPT  =    0.926    core radius for aug-charge                              
                                                                                
   Atomic configuration                                                         
    2 entries                                                                   
     n  l   j            E        occ.                                          
     1  0  0.50        -6.4927   1.0000                                         
     2  1  0.50        -3.4015   0.0000                                         
   Description                                                                  
     l       E           TYP  RCUT    TYP  RCUT                                 
     0     -6.4927494     23  1.100                                             
     0      6.8029130     23  1.100                                             
     1     -4.0817478     23  1.100                                             
  local pseudopotential read in
  atomic valenz-charges read in
  non local Contribution for L=           0  read in
    real space projection operators read in
  non local Contribution for L=           0  read in
    real space projection operators read in
  non local Contribution for L=           1  read in
    real space projection operators read in
    PAW grid and wavefunctions read in
 
   number of l-projection  operators is LMAX  =           3
   number of lm-projection operators is LMMAX =           5
 
 Optimization of the real space projectors (new method)

 maximal supplied QI-value         = 14.36
 optimisation between [QCUT,QGAM] = [ 11.92, 23.98] = [ 39.79,161.09] Ry 
 Optimized for a Real-space Cutoff    1.49 Angstroem

   l    n(q)    QCUT    max X(q) W(low)/X(q) W(high)/X(q)  e(spline) 
   2     10    11.920    66.195    0.79E-04    0.18E-03    0.24E-06
   2     10    11.920    64.643    0.81E-04    0.19E-03    0.24E-06
   0     11    11.920    95.520    0.28E-04    0.54E-04    0.18E-06
   0     11    11.920    63.403    0.27E-04    0.52E-04    0.17E-06
   1     10    11.920    19.961    0.18E-04    0.11E-03    0.23E-06
   1     10    11.920    13.289    0.25E-04    0.87E-04    0.19E-06
 Optimization of the real space projectors (new method)

 maximal supplied QI-value         = 16.25
 optimisation between [QCUT,QGAM] = [ 11.86, 23.89] = [ 39.41,159.82] Ry 
 Optimized for a Real-space Cutoff    1.49 Angstroem

   l    n(q)    QCUT    max X(q) W(low)/X(q) W(high)/X(q)  e(spline) 
   2     10    11.864    80.901    0.13E-03    0.23E-03    0.37E-06
   2     10    11.864    75.754    0.13E-03    0.23E-03    0.38E-06
   0     11    11.864    58.752    0.44E-04    0.11E-04    0.20E-06
   0     11    11.864    30.679    0.36E-04    0.10E-04    0.18E-06
   1     10    11.864    17.977    0.31E-04    0.45E-04    0.10E-06
   1     10    11.864    13.559    0.25E-04    0.37E-04    0.89E-07
 Optimization of the real space projectors (new method)

 maximal supplied QI-value         = 16.25
 optimisation between [QCUT,QGAM] = [ 11.86, 23.89] = [ 39.41,159.82] Ry 
 Optimized for a Real-space Cutoff    1.33 Angstroem

   l    n(q)    QCUT    max X(q) W(low)/X(q) W(high)/X(q)  e(spline) 
   2      9    11.864    65.824    0.22E-03    0.53E-03    0.26E-06
   2      9    11.864    61.429    0.22E-03    0.53E-03    0.26E-06
   0      9    11.864    56.174    0.21E-03    0.32E-04    0.15E-06
   0      9    11.864    31.263    0.19E-03    0.30E-04    0.14E-06
   1      9    11.864    19.828    0.63E-04    0.30E-03    0.16E-06
   1      9    11.864    15.139    0.49E-04    0.25E-03    0.13E-06
 Optimization of the real space projectors (new method)

 maximal supplied QI-value         = 16.25
 optimisation between [QCUT,QGAM] = [ 11.86, 23.89] = [ 39.41,159.82] Ry 
 Optimized for a Real-space Cutoff    1.49 Angstroem

   l    n(q)    QCUT    max X(q) W(low)/X(q) W(high)/X(q)  e(spline) 
   2     10    11.864     4.610    0.10E-03    0.20E-03    0.29E-06
   2     10    11.864     8.522    0.17E-03    0.33E-03    0.50E-06
   0     11    11.864    51.609    0.52E-04    0.55E-04    0.33E-06
   0     11    11.864    27.747    0.46E-04    0.52E-04    0.31E-06
   1     10    11.864    20.408    0.54E-04    0.25E-04    0.21E-06
   1     10    11.864    13.425    0.48E-04    0.22E-04    0.18E-06
 Optimization of the real space projectors (new method)

 maximal supplied QI-value         = 16.25
 optimisation between [QCUT,QGAM] = [ 11.86, 23.89] = [ 39.41,159.82] Ry 
 Optimized for a Real-space Cutoff    1.33 Angstroem

   l    n(q)    QCUT    max X(q) W(low)/X(q) W(high)/X(q)  e(spline) 
   2      9    11.864    60.317    0.21E-03    0.51E-03    0.25E-06
   2      9    11.864    55.921    0.21E-03    0.51E-03    0.26E-06
   0      9    11.864    51.690    0.22E-03    0.30E-04    0.17E-06
   0      9    11.864    30.015    0.20E-03    0.28E-04    0.15E-06
   1      9    11.864    18.849    0.76E-04    0.33E-03    0.17E-06
   1      9    11.864    14.624    0.60E-04    0.28E-03    0.15E-06
 Optimization of the real space projectors (new method)

 maximal supplied QI-value         = 34.20
 optimisation between [QCUT,QGAM] = [ 11.97, 23.94] = [ 40.13,160.53] Ry 
 Optimized for a Real-space Cutoff    1.18 Angstroem

   l    n(q)    QCUT    max X(q) W(low)/X(q) W(high)/X(q)  e(spline) 
   0      8    11.971    19.460    0.15E-03    0.31E-03    0.25E-06
   0      8    11.971    12.209    0.13E-03    0.29E-03    0.25E-06
   1      8    11.971     4.655    0.22E-03    0.24E-03    0.21E-06
  PAW_PBE Pt 04Feb2005                  :
 energy of atom  1       EATOM= -729.1176
 kinetic energy error for atom=    0.0021 (will be added to EATOM!!)
  PAW_PBE Fe 06Sep2000                  :
 energy of atom  2       EATOM= -594.3153
 kinetic energy error for atom=    0.0024 (will be added to EATOM!!)
  PAW_PBE Co 02Aug2007                  :
 energy of atom  3       EATOM= -813.3670
 kinetic energy error for atom=    0.0026 (will be added to EATOM!!)
  PAW_PBE Cu 22Jun2005                  :
 energy of atom  4       EATOM=-1390.9808
 kinetic energy error for atom=    0.0036 (will be added to EATOM!!)
  PAW_PBE Ni 02Aug2007                  :
 energy of atom  5       EATOM=-1077.6739
 kinetic energy error for atom=    0.0027 (will be added to EATOM!!)
  PAW_PBE H 15Jun2001                   :
 energy of atom  6       EATOM=  -12.4884
 kinetic energy error for atom=    0.0008 (will be added to EATOM!!)
 
 
 POSCAR: 10.66                                   
  positions in cartesian coordinates
  No initial velocities read in
 exchange correlation table for  LEXCH =        8
   RHO(1)=    0.500       N(1)  =     2000
   RHO(2)=  100.500       N(2)  =     4000
 


--------------------------------------------------------------------------------------------------------


 ion  position               nearest neighbor table
   1  0.787  0.879  0.316-  49 2.60  28 2.62  59 2.64  19 2.66  61 2.67  33 2.69  29 2.69  60 2.71
                             2 2.75  11 2.77   4 2.79  12 2.85
   2  0.043  0.881  0.316-  79 2.55  77 2.60  30 2.66  60 2.66  28 2.66  52 2.68  33 2.69  22 2.71
                             1 2.75   6 2.78   4 2.81  16 2.93
   3  0.279  0.381  0.319-  64 2.57  39 2.58  33 2.61  31 2.63  68 2.70  19 2.73  30 2.74  43 2.74
                             5 2.78  13 2.80  25 2.82  18 2.84
   4  0.872  0.963  0.421-  17 2.63  11 2.65   9 2.65  12 2.68   6 2.68  16 2.70  60 2.77   1 2.79
                             2 2.81
   5  0.122  0.462  0.426-  16 2.63  10 2.64  12 2.65   7 2.65  25 2.69  13 2.70  39 2.72  33 2.72
                             3 2.78
   6  0.123  0.965  0.422-  81 1.77   9 2.64  10 2.65   8 2.68   4 2.68  14 2.73  16 2.74   2 2.78
                            52 2.80  22 2.84
   7  0.875  0.459  0.425-  15 2.64   9 2.65   5 2.65  10 2.66  39 2.68  12 2.68  27 2.68  75 2.74
                            29 2.78
   8  0.376  0.960  0.418-  43 2.59  13 2.64  27 2.65  11 2.65  14 2.66  10 2.67  52 2.67   6 2.68
                            61 2.70
   9  0.873  0.212  0.419-  15 2.64   6 2.64   7 2.65  17 2.65   4 2.65  75 2.67  10 2.70  60 2.72
                            22 2.80
  10  0.126  0.212  0.421-  13 2.63   5 2.64   6 2.65   7 2.66  39 2.66   8 2.67   9 2.70  43 2.72
                            22 2.77
  11  0.625  0.960  0.422-   4 2.65  12 2.65   8 2.65  27 2.66  13 2.66  17 2.67   1 2.77  19 2.82
                            61 2.82
  12  0.874  0.711  0.425-  16 2.64   5 2.65  11 2.65  27 2.67   7 2.68   4 2.68  33 2.69  29 2.80
                             1 2.85
  13  0.375  0.209  0.423-  10 2.63   8 2.64  11 2.66  25 2.67  17 2.67   5 2.70  43 2.76   3 2.80
                            19 2.81
  14  0.380  0.710  0.424-  81 1.90  27 2.61  15 2.64   8 2.66  25 2.70  44 2.71   6 2.73  16 2.75
                            52 2.78  30 2.79
  15  0.626  0.461  0.421-   7 2.64  14 2.64   9 2.64  27 2.65  17 2.68  44 2.68  25 2.69  75 2.70
                            18 2.75
  16  0.123  0.708  0.427-  81 1.90   5 2.63  12 2.64  25 2.68  33 2.70   4 2.70   6 2.74  14 2.75
                            30 2.86   2 2.93
  17  0.625  0.210  0.421-   4 2.63   9 2.65  25 2.65  11 2.67  13 2.67  15 2.68  18 2.76  60 2.78
                            19 2.85
  18  0.549  0.375  0.316-  67 2.56  60 2.62  75 2.64  68 2.65  26 2.66  44 2.67  30 2.73  19 2.75
                            15 2.75  17 2.76   3 2.84  25 2.86
  19  0.534  0.125  0.314-  80 2.55  68 2.58  43 2.58  59 2.60   1 2.66  61 2.66   3 2.73  18 2.75
                            60 2.79  13 2.81  11 2.82  17 2.85
  20  0.549  0.122  0.042-  37 2.55  57 2.55  48 2.57  62 2.66  63 2.70  34 2.71  45 2.73  47 2.74
                            56 2.74
  21  0.120  0.460  0.128-  40 2.52  36 2.53  47 2.53  42 2.60  69 2.62  64 2.63  70 2.66  50 2.67
                            58 2.71  31 2.71  57 2.74  74 2.75
  22  0.044  0.135  0.314-  65 2.53  55 2.54  77 2.57  43 2.60  39 2.61  75 2.64  60 2.71   2 2.71
                            52 2.75  10 2.77   9 2.80   6 2.84  31 3.42
  23  0.042  0.131  0.034-  70 2.57  40 2.60  41 2.61  45 2.64  62 2.65  76 2.65  24 2.69  35 2.76
                            53 2.81
  24  0.131  0.958  0.132-  79 2.52  77 2.54  35 2.57  53 2.58  55 2.59  70 2.64  38 2.66  58 2.66
                            73 2.67  23 2.69  66 2.73  41 2.75
  25  0.375  0.459  0.424-  17 2.65  13 2.67  16 2.68  15 2.69   5 2.69  14 2.70  30 2.81   3 2.82
                            18 2.86
  26  0.455  0.546  0.219-  73 2.50  74 2.55  51 2.55  79 2.63  64 2.65  30 2.66  18 2.66  78 2.69
                            68 2.70  32 2.70  44 2.74  67 2.76
  27  0.624  0.711  0.422-  14 2.61  15 2.65   8 2.65  11 2.66  12 2.67   7 2.68  44 2.69  61 2.77
                            29 2.78
  28  0.957  0.789  0.221-  58 2.55  66 2.58  50 2.58  42 2.61   1 2.62  49 2.63  64 2.65   2 2.66
                            33 2.71  59 2.74  79 2.80  77 2.81
  29  0.796  0.622  0.319-  42 2.55  39 2.56  75 2.60  32 2.62  33 2.67  44 2.68  49 2.68   1 2.69
                            61 2.70   7 2.78  27 2.78  12 2.80
  30  0.292  0.631  0.318-  79 2.57  64 2.62  52 2.62  44 2.65   2 2.66  26 2.66  33 2.68  18 2.73
                             3 2.74  14 2.79  25 2.81  16 2.86
  31  0.202  0.279  0.225-  70 2.51  55 2.58  43 2.59  65 2.59  57 2.60   3 2.63  39 2.66  21 2.71
                            80 2.72  42 2.73  68 2.79  64 2.84  22 3.42
  32  0.706  0.550  0.221-  54 2.54  69 2.56  51 2.58  49 2.60  29 2.62  42 2.63  78 2.64  65 2.65
                            44 2.68  75 2.69  26 2.70  67 2.72
  33  0.041  0.631  0.325-   3 2.61  29 2.67  39 2.67  30 2.68   1 2.69   2 2.69  12 2.69  64 2.70
                            16 2.70  28 2.71   5 2.72  42 2.72
  34  0.796  0.862  0.044-  50 2.39  66 2.51  48 2.52  36 2.55  71 2.58  63 2.62  20 2.71  62 2.79
                            35 2.80
  35  0.057  0.865  0.039-  58 2.54  72 2.55  36 2.56  24 2.57  66 2.62  53 2.68  23 2.76  62 2.76
                            34 2.80
  36  0.044  0.632  0.039-  21 2.53  34 2.55  35 2.56  58 2.58  50 2.59  47 2.67  72 2.69  71 2.74
                            40 2.76
  37  0.628  0.224  0.129-  51 2.51  67 2.52  56 2.52  74 2.53  20 2.55  59 2.56  68 2.56  41 2.57
                            62 2.59  66 2.69  57 2.76  48 2.95
  38  0.383  0.954  0.131-  53 2.46  45 2.47  80 2.48  78 2.53  73 2.56  63 2.56  48 2.56  54 2.58
                            55 2.58  57 2.65  24 2.66  70 2.70
  39  0.036  0.383  0.324-  29 2.56   3 2.58  75 2.61  22 2.61  42 2.65  10 2.66  31 2.66  33 2.67
                             7 2.68   5 2.72  65 2.74  43 2.81
  40  0.028  0.381  0.039-  69 2.42  21 2.52  71 2.54  76 2.54  70 2.56  23 2.60  36 2.76  45 2.84
                            47 2.85
  41  0.872  0.215  0.129-  76 2.45  65 2.52  67 2.53  77 2.54  37 2.57  62 2.57  69 2.59  23 2.61
                            51 2.61  70 2.68  66 2.68  24 2.75
  42  0.955  0.544  0.224-  50 2.55  29 2.55  21 2.60  69 2.60  28 2.61  32 2.63  49 2.65  39 2.65
                            65 2.66  64 2.69  33 2.72  31 2.73
  43  0.297  0.116  0.320-  55 2.52  52 2.57  19 2.58  31 2.59   8 2.59  61 2.59  22 2.60  80 2.64
                            10 2.72   3 2.74  13 2.76  39 2.81
  44  0.541  0.629  0.321-  61 2.59  52 2.60  78 2.62  30 2.65  18 2.67  29 2.68  15 2.68  32 2.68
                            75 2.68  27 2.69  14 2.71  26 2.74
  45  0.296  0.116  0.041-  38 2.47  70 2.49  57 2.57  53 2.58  23 2.64  63 2.65  20 2.73  47 2.83
                            40 2.84
  46  0.549  0.625  0.045-  51 2.38  73 2.39  54 2.41  71 2.57  53 2.59  63 2.60  76 2.62  56 2.63
                            72 2.66
  47  0.294  0.382  0.040-  74 2.41  21 2.53  57 2.64  72 2.65  56 2.66  36 2.67  20 2.74  45 2.83
                            40 2.85
  48  0.626  0.948  0.133-  49 2.40  54 2.48  80 2.48  34 2.52  59 2.56  63 2.56  38 2.56  20 2.57
                            50 2.58  57 2.68  66 2.72  37 2.95
  49  0.708  0.793  0.220-  48 2.40  50 2.47  54 2.49  80 2.57  32 2.60   1 2.60  61 2.63  28 2.63
                            78 2.64  42 2.65  29 2.68  59 2.73
  50  0.865  0.704  0.130-  34 2.39  71 2.42  49 2.47  54 2.49  42 2.55  48 2.58  28 2.58  69 2.58
                            36 2.59  21 2.67  66 2.81  58 2.90
  51  0.627  0.460  0.128-  46 2.38  76 2.44  56 2.51  37 2.51  26 2.55  32 2.58  41 2.61  67 2.62
                            73 2.63  69 2.64  74 2.65  54 2.72
  52  0.299  0.874  0.318-  55 2.44  79 2.53  78 2.53  61 2.56  43 2.57  44 2.60  30 2.62   8 2.67
                             2 2.68  22 2.75  14 2.78   6 2.80
  53  0.307  0.869  0.042-  73 2.42  38 2.46  63 2.57  24 2.58  45 2.58  46 2.59  72 2.61  35 2.68
                            23 2.81
  54  0.627  0.715  0.129-  46 2.41  71 2.46  63 2.48  48 2.48  49 2.49  50 2.49  32 2.54  38 2.58
                            73 2.58  78 2.62  69 2.70  51 2.72
  55  0.225  0.027  0.228-  52 2.44  78 2.47  79 2.50  43 2.52  22 2.54  80 2.54  31 2.58  38 2.58
                            24 2.59  70 2.73  77 2.74  65 2.90
  56  0.544  0.381  0.036-  74 2.50  51 2.51  37 2.52  76 2.61  46 2.63  72 2.64  47 2.66  62 2.72
                            20 2.74
  57  0.379  0.204  0.133-  68 2.46  80 2.54  20 2.55  45 2.57  31 2.60  47 2.64  38 2.65  74 2.66
                            70 2.66  48 2.68  21 2.74  37 2.76
  58  0.137  0.705  0.133-  72 2.46  64 2.50  35 2.54  28 2.55  79 2.57  36 2.58  74 2.66  24 2.66
                            73 2.70  21 2.71  50 2.90
  59  0.705  0.051  0.220-  66 2.52  48 2.56  37 2.56  19 2.60  68 2.61  67 2.61  60 2.61   1 2.64
                            77 2.69  80 2.71  49 2.73  28 2.74
  60  0.793  0.129  0.316-  67 2.52  77 2.57  59 2.61  18 2.62   2 2.66  75 2.66   1 2.71  22 2.71
                             9 2.72   4 2.77  17 2.78  19 2.79
  61  0.539  0.872  0.316-  78 2.48  80 2.52  52 2.56  44 2.59  43 2.59  49 2.63  19 2.66   1 2.67
                             8 2.70  29 2.70  27 2.77  11 2.82
  62  0.797  0.123  0.036-  66 2.53  41 2.57  37 2.59  23 2.65  20 2.66  76 2.68  56 2.72  35 2.76
                            34 2.79
  63  0.546  0.870  0.037-  54 2.48  38 2.56  48 2.56  53 2.57  46 2.60  34 2.62  71 2.63  45 2.65
                            20 2.70
  64  0.208  0.543  0.224-  58 2.50   3 2.57  30 2.62  21 2.63  28 2.65  26 2.65  68 2.66  74 2.67
                            42 2.69  33 2.70  79 2.75  31 2.84
  65  0.952  0.297  0.222-  69 2.52  41 2.52  22 2.53  67 2.55  77 2.58  31 2.59  75 2.60  70 2.61
                            32 2.65  42 2.66  39 2.74  55 2.90
  66  0.872  0.964  0.130-  34 2.51  59 2.52  62 2.53  28 2.58  77 2.58  35 2.62  41 2.68  37 2.69
                            48 2.72  24 2.73  50 2.81
  67  0.716  0.290  0.223-  37 2.52  60 2.52  41 2.53  77 2.55  65 2.55  18 2.56  59 2.61  75 2.62
                            51 2.62  32 2.72  68 2.75  26 2.76
  68  0.457  0.292  0.221-  57 2.46  74 2.54  37 2.56  19 2.58  59 2.61  18 2.65  64 2.66  26 2.70
                             3 2.70  67 2.75  80 2.78  31 2.79
  69  0.875  0.457  0.129-  40 2.42  71 2.45  76 2.46  65 2.52  32 2.56  50 2.58  41 2.59  42 2.60
                            21 2.62  51 2.64  70 2.68  54 2.70
  70  0.128  0.206  0.129-  45 2.49  31 2.51  40 2.56  23 2.57  65 2.61  24 2.64  21 2.66  57 2.66
                            41 2.68  69 2.68  38 2.70  55 2.73
  71  0.792  0.622  0.041-  50 2.42  69 2.45  54 2.46  40 2.54  46 2.57  34 2.58  76 2.61  63 2.63
                            36 2.74
  72  0.298  0.629  0.044-  74 2.46  58 2.46  73 2.47  35 2.55  53 2.61  56 2.64  47 2.65  46 2.66
                            36 2.69
  73  0.386  0.713  0.130-  46 2.39  53 2.42  72 2.47  26 2.50  78 2.54  38 2.56  54 2.58  79 2.63
                            51 2.63  24 2.67  58 2.70  74 2.80
  74  0.382  0.451  0.127-  47 2.41  72 2.46  56 2.50  37 2.53  68 2.54  26 2.55  51 2.65  57 2.66
                            58 2.66  64 2.67  21 2.75  73 2.80
  75  0.794  0.379  0.320-  65 2.60  29 2.60  39 2.61  67 2.62  22 2.64  18 2.64  60 2.66   9 2.67
                            44 2.68  32 2.69  15 2.70   7 2.74
  76  0.791  0.377  0.041-  51 2.44  41 2.45  69 2.46  40 2.54  56 2.61  71 2.61  46 2.62  23 2.65
                            62 2.68
  77  0.956  0.052  0.222-  41 2.54  24 2.54  67 2.55  60 2.57  22 2.57  66 2.58  65 2.58   2 2.60
                            59 2.69  79 2.74  55 2.74  28 2.81
  78  0.458  0.796  0.225-  55 2.47  61 2.48  80 2.50  52 2.53  38 2.53  73 2.54  79 2.59  54 2.62
                            44 2.62  32 2.64  49 2.64  26 2.69
  79  0.215  0.797  0.225-  55 2.50  24 2.52  52 2.53   2 2.55  30 2.57  58 2.57  78 2.59  26 2.63
                            73 2.63  77 2.74  64 2.75  28 2.80
  80  0.462  0.029  0.223-  38 2.48  48 2.48  78 2.50  61 2.52  57 2.54  55 2.54  19 2.55  49 2.57
                            43 2.64  59 2.71  31 2.72  68 2.78
  81  0.203  0.809  0.468-   6 1.77  16 1.90  14 1.90
 
  LATTYP: Found a hexagonal cell.
 ALAT       =    10.6599998474
 C/A-ratio  =     2.0637898982
  
  Lattice vectors:
  
 A1 = (   5.3299999237,  -9.2318306722,   0.0000000000)
 A2 = ( -10.6599998474,   0.0000000000,   0.0000000000)
 A3 = (   0.0000000000,   0.0000000000, -22.0000000000)


Analysis of symmetry for initial positions (statically):
=====================================================================
 Subroutine PRICEL returns:
 Original cell was already a primitive cell.
 

 Routine SETGRP: Setting up the symmetry group for a 
 hexagonal supercell.


 Subroutine GETGRP returns: Found  1 space group operations
 (whereof  1 operations were pure point group operations)
 out of a pool of 24 trial point group operations.


The static configuration has the point symmetry C_1 .


Analysis of symmetry for dynamics (positions and initial velocities):
=====================================================================
 Subroutine PRICEL returns:
 Original cell was already a primitive cell.
 

 Routine SETGRP: Setting up the symmetry group for a 
 hexagonal supercell.


 Subroutine GETGRP returns: Found  1 space group operations
 (whereof  1 operations were pure point group operations)
 out of a pool of 24 trial point group operations.


The dynamic configuration has the point symmetry C_1 .


Analysis of constrained symmetry for selective dynamics:
=====================================================================
 Subroutine PRICEL returns:
 Original cell was already a primitive cell.
 

 Routine SETGRP: Setting up the symmetry group for a 
 hexagonal supercell.


 Subroutine GETGRP returns: Found  1 space group operations
 (whereof  1 operations were pure point group operations)
 out of a pool of 24 trial point group operations.


The constrained configuration has the point symmetry C_1 .


Analysis of structural, dynamic, and magnetic symmetry:
=====================================================================
 Subroutine PRICEL returns:
 Original cell was already a primitive cell.
 

 Routine SETGRP: Setting up the symmetry group for a 
 hexagonal supercell.


 Subroutine GETGRP returns: Found  1 space group operations
 (whereof  1 operations were pure point group operations)
 out of a pool of 24 trial point group operations.


The magnetic configuration has the point symmetry C_1 .


 Subroutine INISYM returns: Found  1 space group operations
 (whereof  1 operations are pure point group operations),
 and found     1 'primitive' translations

 
 
 KPOINTS: mesh auto                               

Automatic generation of k-mesh.
Space group operators:
 irot       det(A)        alpha          n_x          n_y          n_z        tau_x        tau_y        tau_z
    1     1.000000     0.000000     1.000000     0.000000     0.000000     0.000000     0.000000     0.000000
 
 Subroutine IBZKPT returns following result:
 ===========================================
 
 Found      4 irreducible k-points:
 
 Following reciprocal coordinates:
            Coordinates               Weight
  0.000000  0.000000  0.000000      1.000000
  0.500000 -0.000000  0.000000      1.000000
  0.000000  0.500000  0.000000      1.000000
  0.500000  0.500000  0.000000      1.000000
 
 Following cartesian coordinates:
            Coordinates               Weight
  0.000000  0.000000  0.000000      1.000000
  0.046904 -0.027080  0.000000      1.000000
  0.000000  0.054160  0.000000      1.000000
  0.046904  0.027080  0.000000      1.000000
 
 TETIRR: Found     12 inequivalent tetrahedra from       24
 
 Subroutine IBZKPT_HF returns following result:
 ==============================================
 
 Found      4 k-points in 1st BZ
 the following      4 k-points will be used (e.g. in the exchange kernel)
 Following reciprocal coordinates:   # in IRBZ
  0.000000  0.000000  0.000000    0.25000000   1 t-inv F
  0.500000 -0.000000  0.000000    0.25000000   2 t-inv F
  0.000000  0.500000  0.000000    0.25000000   3 t-inv F
  0.500000  0.500000  0.000000    0.25000000   4 t-inv F


--------------------------------------------------------------------------------------------------------




 Dimension of arrays:
   k-points           NKPTS =      4   k-points in BZ     NKDIM =      4   number of bands    NBANDS=    624
   number of dos      NEDOS =    301   number of ions     NIONS =     81
   non local maximal  LDIM  =      6   non local SUM 2l+1 LMDIM =     18
   total plane-waves  NPLWV = ******
   max r-space proj   IRMAX =   7657   max aug-charges    IRDMAX=  33358
   dimension x,y,z NGX =    84 NGY =   84 NGZ =  168
   dimension x,y,z NGXF=   168 NGYF=  168 NGZF=  336
   support grid    NGXF=   168 NGYF=  168 NGZF=  336
   ions per type =              32  13  10  13  12   1
   NGX,Y,Z   is equivalent  to a cutoff of  13.10, 13.10, 12.70 a.u.
   NGXF,Y,Z  is equivalent  to a cutoff of  26.20, 26.20, 25.39 a.u.

 SYSTEM =  Pt111                                   
 POSCAR =  10.66                                   

 Startparameter for this run:
   NWRITE =      2    write-flag & timer
   PREC   = accura    normal or accurate (medium, high low for compatibility)
   ISTART =      0    job   : 0-new  1-cont  2-samecut
   ICHARG =      2    charge: 1-file 2-atom 10-const
   ISPIN  =      2    spin polarized calculation?
   LNONCOLLINEAR =      F non collinear calculations
   LSORBIT =      F    spin-orbit coupling
   INIWAV =      1    electr: 0-lowe 1-rand  2-diag
   LASPH  =      F    aspherical Exc in radial PAW
   METAGGA=      F    non-selfconsistent MetaGGA calc.

 Electronic Relaxation 1
   ENCUT  =  550.0 eV  40.42 Ry    6.36 a.u.  20.38 20.38 42.07*2*pi/ulx,y,z
   ENINI  =  550.0     initial cutoff
   ENAUG  =  587.0 eV  augmentation charge cutoff
   NELM   =    200;   NELMIN=  2; NELMDL= -5     # of ELM steps 
   EDIFF  = 0.1E-04   stopping-criterion for ELM
   LREAL  =      T    real-space projection
   NLSPLINE    = F    spline interpolate recip. space projectors
   LCOMPAT=      F    compatible to vasp.4.4
   GGA_COMPAT  = T    GGA compatible to vasp.4.4-vasp.4.6
   LMAXPAW     = -100 max onsite density
   LMAXMIX     =    2 max onsite mixed and CHGCAR
   VOSKOWN=      0    Vosko Wilk Nusair interpolation
   ROPT   =   -0.00025  -0.00025  -0.00025  -0.00025
   ROPT   =   -0.00025  -0.00025
 Ionic relaxation
   EDIFFG = -.5E-01   stopping-criterion for IOM
   NSW    =   1009    number of steps for IOM
   NBLOCK =      1;   KBLOCK =   1009    inner block; outer block 
   IBRION =      5    ionic relax: 0-MD 1-quasi-New 2-CG
   NFREE  =      2    steps in history (QN), initial steepest desc. (CG)
   ISIF   =      2    stress and relaxation
   IWAVPR =     11    prediction:  0-non 1-charg 2-wave 3-comb
   ISYM   =      2    0-nonsym 1-usesym 2-fastsym
   LCORR  =      T    Harris-Foulkes like correction to forces

   POTIM  = 0.5000    time-step for ionic-motion
   TEIN   =    0.0    initial temperature
   TEBEG  =    0.0;   TEEND  =   0.0 temperature during run
   SMASS  =  -3.00    Nose mass-parameter (am)
   estimated Nose-frequenzy (Omega)   =  0.10E-29 period in steps =****** mass=  -0.260E-26a.u.
   SCALEE = 1.0000    scale energy and forces
   NPACO  =    256;   APACO  = 16.0  distance and # of slots for P.C.
   PSTRESS=    0.0 pullay stress

  Mass of Ions in am
   POMASS = 195.08 55.85 58.93 63.55 58.69  1.00
  Ionic Valenz
   ZVAL   =  10.00  8.00  9.00 11.00 10.00  1.00
  Atomic Wigner-Seitz radii
   RWIGS  =  -1.00 -1.00 -1.00 -1.00 -1.00 -1.00
  virtual crystal weights 
   VCA    =   1.00  1.00  1.00  1.00  1.00  1.00
   NELECT =     778.0000    total number of electrons
   NUPDOWN=      -1.0000    fix difference up-down

 DOS related values:
   EMIN   =  10.00;   EMAX   =-10.00  energy-range for DOS
   EFERMI =   0.00
   ISMEAR =    -5;   SIGMA  =   0.10  broadening in eV -4-tet -1-fermi 0-gaus

 Electronic relaxation 2 (details)
   IALGO  =     68    algorithm
   LDIAG  =      T    sub-space diagonalisation (order eigenvalues)
   LSUBROT=      F    optimize rotation matrix (better conditioning)
   TURBO    =      0    0=normal 1=particle mesh
   IRESTART =      0    0=no restart 2=restart with 2 vectors
   NREBOOT  =      0    no. of reboots
   NMIN     =      0    reboot dimension
   EREF     =   0.00    reference energy to select bands
   IMIX   =      4    mixing-type and parameters
     AMIX     =   0.40;   BMIX     =  1.00
     AMIX_MAG =   1.60;   BMIX_MAG =  1.00
     AMIN     =   0.10
     WC   =   100.;   INIMIX=   1;  MIXPRE=   1;  MAXMIX= -45

 Intra band minimization:
   WEIMIN = 0.0010     energy-eigenvalue tresh-hold
   EBREAK =  0.40E-08  absolut break condition
   DEPER  =   0.30     relativ break condition  

   TIME   =   0.40     timestep for ELM

  volume/ion in A,a.u.               =      26.73       180.38
  Fermi-wavevector in a.u.,A,eV,Ry     =   1.163891  2.199434 18.431011  1.354641
  Thomas-Fermi vector in A             =   2.300435
 
 Write flags
   LWAVE        =      F    write WAVECAR
   LDOWNSAMPLE  =      F    k-point downsampling of WAVECAR
   LCHARG       =      F    write CHGCAR
   LVTOT        =      F    write LOCPOT, total local potential
   LVHAR        =      F    write LOCPOT, Hartree potential only
   LELF         =      F    write electronic localiz. function (ELF)
   LORBIT       =      0    0 simple, 1 ext, 2 COOP (PROOUT), +10 PAW based schemes


 Dipole corrections
   LMONO  =      F    monopole corrections only (constant potential shift)
   LDIPOL =      F    correct potential (dipole corrections)
   IDIPOL =      0    1-x, 2-y, 3-z, 4-all directions 
   EPSILON=  1.0000000 bulk dielectric constant

 Exchange correlation treatment:
   GGA     =    --    GGA type
   LEXCH   =     8    internal setting for exchange type
   VOSKOWN=      0    Vosko Wilk Nusair interpolation
   LHFCALC =     F    Hartree Fock is set to
   LHFONE  =     F    Hartree Fock one center treatment
   AEXX    =    0.0000 exact exchange contribution

 Linear response parameters
   LEPSILON=     F    determine dielectric tensor
   LRPA    =     F    only Hartree local field effects (RPA)
   LNABLA  =     F    use nabla operator in PAW spheres
   LVEL    =     F    velocity operator in full k-point grid
   LINTERFAST=   F  fast interpolation
   KINTER  =     0    interpolate to denser k-point grid
   CSHIFT  =0.1000    complex shift for real part using Kramers Kronig
   OMEGAMAX=  -1.0    maximum frequency
   DEG_THRESHOLD= 0.2000000E-02 threshold for treating states as degnerate
   RTIME   =   -0.100 relaxation time in fs
  (WPLASMAI=    0.000 imaginary part of plasma frequency in eV, 0.658/RTIME)
   DFIELD  = 0.0000000 0.0000000 0.0000000 field for delta impulse in time
 
 Orbital magnetization related:
   ORBITALMAG=     F  switch on orbital magnetization
   LCHIMAG   =     F  perturbation theory with respect to B field
   DQ        =  0.001000  dq finite difference perturbation B field
   LLRAUG    =     F  two centre corrections for induced B field



--------------------------------------------------------------------------------------------------------


 finite differences
   using selective dynamics as specified on POSCAR
   WARNING: If single coordinates had been selected the selection of coordinates
            is made according to the corresponding   d i r e c t   coordinates!
            Don't support selection of single cartesian coordinates -- sorry ...
  !
 charge density and potential will be updated during run
 spin polarized calculation
 RMM-DIIS sequential band-by-band and
  variant of blocked Davidson during initial phase
 perform sub-space diagonalisation
    before iterative eigenvector-optimisation
 modified Broyden-mixing scheme, WC =      100.0
 initial mixing is a Kerker type mixing with AMIX =  0.4000 and BMIX =      1.0000
 Hartree-type preconditioning will be used
 using additional bands          235
 real space projection scheme for non local part
 use partial core corrections
 calculate Harris-corrections to forces 
   (improved forces if not selfconsistent)
 use gradient corrections 
 use of overlap-Matrix (Vanderbilt PP)
 Fermi weights with tetrahedron method with Bloechl corrections


--------------------------------------------------------------------------------------------------------


  energy-cutoff  :      550.00
  volume of cell :     2165.05
      direct lattice vectors                 reciprocal lattice vectors
    10.659999847  0.000000000  0.000000000     0.093808632 -0.054160439  0.000000000
     5.329999924  9.231830672  0.000000000     0.000000000  0.108320878  0.000000000
     0.000000000  0.000000000 22.000000000     0.000000000  0.000000000  0.045454545

  length of vectors
    10.659999847 10.659999847 22.000000000     0.108320878  0.108320878  0.045454545


 
 k-points in units of 2pi/SCALE and weight: mesh auto                               
   0.00000000  0.00000000  0.00000000       0.250
   0.04690432 -0.02708022  0.00000000       0.250
   0.00000000  0.05416044  0.00000000       0.250
   0.04690432  0.02708022  0.00000000       0.250
 
 k-points in reciprocal lattice and weights: mesh auto                               
   0.00000000  0.00000000  0.00000000       0.250
   0.50000000 -0.00000000  0.00000000       0.250
   0.00000000  0.50000000  0.00000000       0.250
   0.50000000  0.50000000  0.00000000       0.250
 
 position of ions in fractional coordinates (direct lattice) 
   0.78671846  0.87879026  0.31614071
   0.04348176  0.88086904  0.31576087
   0.27934366  0.38090586  0.31855454
   0.87189048  0.96328914  0.42112475
   0.12176249  0.46220021  0.42602128
   0.12262566  0.96524813  0.42209513
   0.87481929  0.45888159  0.42460205
   0.37622508  0.96045410  0.41843314
   0.87300430  0.21163354  0.41920878
   0.12629230  0.21207930  0.42099925
   0.62527044  0.95956299  0.42218343
   0.87371676  0.71078154  0.42477734
   0.37495960  0.20872876  0.42337458
   0.37972597  0.70961078  0.42436024
   0.62631785  0.46101610  0.42066722
   0.12259911  0.70823459  0.42741266
   0.62485005  0.21044298  0.42087222
   0.54855754  0.37517346  0.31625467
   0.53431064  0.12475121  0.31439155
   0.54860226  0.12207837  0.04171946
   0.12037701  0.45967589  0.12832010
   0.04447602  0.13460077  0.31443627
   0.04184264  0.13051489  0.03430237
   0.13087669  0.95764103  0.13245935
   0.37547543  0.45892078  0.42403734
   0.45530875  0.54599229  0.21885876
   0.62367153  0.71079772  0.42227862
   0.95690976  0.78853034  0.22080018
   0.79573825  0.62185954  0.31857755
   0.29195900  0.63108532  0.31847850
   0.20238946  0.27945563  0.22529667
   0.70634053  0.54956523  0.22104965
   0.04100122  0.63058048  0.32451249
   0.79601056  0.86182010  0.04358326
   0.05654378  0.86511100  0.03922008
   0.04354811  0.63172365  0.03890931
   0.62768151  0.22351632  0.12936912
   0.38251648  0.95408414  0.13073287
   0.03638372  0.38273696  0.32363993
   0.02789537  0.38111357  0.03922688
   0.87238548  0.21524336  0.12909491
   0.95544102  0.54429894  0.22387985
   0.29705180  0.11571514  0.32049660
   0.54105172  0.62911289  0.32127636
   0.29593874  0.11566849  0.04109769
   0.54915757  0.62535345  0.04512996
   0.29444361  0.38188257  0.03954700
   0.62577798  0.94799811  0.13283874
   0.70758671  0.79302795  0.22021260
   0.86523064  0.70443471  0.12965162
   0.62674088  0.45978399  0.12791088
   0.29880519  0.87361295  0.31832233
   0.30656831  0.86859519  0.04153612
   0.62656079  0.71505450  0.12903147
   0.22530175  0.02703708  0.22786686
   0.54425403  0.38139876  0.03593963
   0.37883082  0.20414358  0.13341050
   0.13702030  0.70469682  0.13275664
   0.70473624  0.05075228  0.22032351
   0.79329997  0.12919985  0.31621502
   0.53916060  0.87245124  0.31645585
   0.79690904  0.12300803  0.03589815
   0.54639677  0.86991640  0.03703501
   0.20836934  0.54281359  0.22392341
   0.95151229  0.29695182  0.22189009
   0.87203635  0.96412677  0.12966428
   0.71588620  0.28973804  0.22348756
   0.45714642  0.29229289  0.22084198
   0.87549525  0.45703326  0.12894021
   0.12808024  0.20618715  0.12934578
   0.79201094  0.62176511  0.04149761
   0.29752238  0.62870438  0.04356032
   0.38614974  0.71252577  0.12966825
   0.38234618  0.45146388  0.12688447
   0.79421076  0.37857550  0.31993031
   0.79142063  0.37689392  0.04093851
   0.95649044  0.05228505  0.22184373
   0.45833867  0.79643911  0.22484352
   0.21509157  0.79742211  0.22509059
   0.46224830  0.02934237  0.22252338
   0.20258832  0.80862681  0.46843821
 
 position of ions in cartesian coordinates  (Angst):
  13.07037069  8.11284286  6.95509559
   5.15854751  8.13203380  6.94673905
   5.00803156  3.51645839  7.00819978
  14.42868345  8.89292227  9.26474443
   3.76151516  4.26695404  9.37246821
   6.45196198  8.91100729  9.28609289
  11.77141233  4.23631718  9.34124519
   9.12977961  8.86674960  9.20552913
  10.43423247  1.95376503  9.22259306
   2.47665859  1.95788018  9.26198351
  11.77985342  8.85852300  9.28803544
  13.10228612  6.56181482  9.34510145
   5.10959358  1.92694858  9.31424076
   7.83010415  6.55100658  9.33592519
   9.13376395  4.25602254  9.25467886
   5.08179680  6.53830180  9.40307841
   7.78256251  1.94277398  9.25918886
   7.84729783  3.46353785  6.95760273
   6.36067530  1.15168206  6.91661420
   6.49877769  1.12700682  0.91782815
   3.73329140  4.24365001  2.82304227
   1.19153651  1.24261151  6.91759792
   1.14168689  1.20489139  0.75465211
   6.49937211  8.84077982  2.91410569
   6.44861579  4.23667897  9.32882157
   7.76373007  5.04050837  4.81489278
  10.43689023  6.56196423  9.29012966
  14.40352448  7.27957854  4.85760399
  11.79708091  5.74090202  7.00870604
   6.47596763  5.82607278  7.00652690
   3.64697012  2.57988703  4.95652669
  10.45877256  5.07349312  4.86309232
   3.79806693  5.82141219  7.13927471
  13.07897347  7.95617723  0.95883175
   5.21379828  7.98655826  0.86284167
   3.83130979  5.83196573  0.85600479
   7.88242681  2.06346482  2.84612068
   9.16289403  8.80794326  2.87612304
   2.42783838  3.53336277  7.12007854
   2.32869997  3.51837592  0.86299137
  10.44687620  1.98709023  2.84008810
  13.08611442  5.02487568  4.92535676
   3.78333380  1.06826259  7.05092530
   9.12078296  5.80786370  7.06808002
   3.77121995  1.06783187  0.90414915
   9.18715339  5.77315714  0.99285907
   5.17420286  3.52547522  0.87003394
  11.72362308  8.75175804  2.92245229
  11.76971308  7.32109972  4.84467719
  12.97799537  6.50322193  2.85233561
   9.13170631  4.24464793  2.81403934
   7.84162023  8.06504683  7.00309133
   7.89763048  8.01872375  0.91379463
  10.49037833  6.60126203  2.83869239
   2.54582431  0.24960178  5.01307103
   7.83460323  3.52100880  0.79067188
   5.12642169  1.88461893  2.93503107
   5.21667036  6.50564171  2.92064609
   7.78299791  0.46853647  4.84711732
   9.14521269  1.19275111  6.95673041
  10.39761692  8.05432209  6.96202879
   9.15068307  1.13558928  0.78975929
  10.46124387  8.03092093  0.81477030
   5.11441351  5.01116311  4.92631499
  11.72587405  2.74140892  4.88158190
  14.43470298  8.90065509  2.85261421
   9.17565049  2.67481248  4.91672637
   6.43110185  2.69839849  4.85852345
  11.76876646  4.21925362  2.83668457
   2.46431279  1.90348482  2.84560726
  11.75684446  5.74003023  0.91294740
   6.52258279  5.80409234  0.95832694
   7.91411848  6.57791728  2.85270146
   6.48211261  4.16783809  2.79145838
  10.48409397  3.49494494  7.03846690
  10.44538833  3.47942085  0.90064720
  10.47486725  0.48268677  4.88056207
   9.13091059  7.35259104  4.94655735
   6.54313591  7.36166588  4.95199290
   5.08396163  0.27088375  4.89551443
   6.46957235  7.46510582 10.30564073
 


--------------------------------------------------------------------------------------------------------


 k-point  1 :   0.0000 0.0000 0.0000  plane waves:   63475
 k-point  2 :   0.5000-0.0000 0.0000  plane waves:   63428
 k-point  3 :   0.0000 0.5000 0.0000  plane waves:   63428
 k-point  4 :   0.5000 0.5000 0.0000  plane waves:   63428

 maximum and minimum number of plane-waves per node :     63475    63428

 maximum number of plane-waves:     63475
 maximum index in each direction: 
   IXMAX=   20   IYMAX=   20   IZMAX=   42
   IXMIN=  -20   IYMIN=  -20   IZMIN=  -42


 serial   3D FFT for wavefunctions
 parallel 3D FFT for charge:
    minimum data exchange during FFTs selected (reduces bandwidth)


 total amount of memory used by VASP MPI-rank0   369858. kBytes
=======================================================================

   base      :      30000. kBytes
   nonlr-proj:      96555. kBytes
   fftplans  :      12162. kBytes
   grid      :     120476. kBytes
   one-center:       2519. kBytes
   wavefun   :     108146. kBytes
 
     INWAV:  cpu time    0.0001: real time    0.0004
 Broyden mixing: mesh for mixing (old mesh)
   NGX = 41   NGY = 41   NGZ = 85
  (NGX  =168   NGY  =168   NGZ  =336)
  gives a total of 142885 points

 initial charge density was supplied:
 charge density of overlapping atoms calculated
 number of electron     778.0000000 magnetization     231.0000000
 keeping initial charge density in first step


--------------------------------------------------------------------------------------------------------


 Maximum index for non-local projection operator         7408
 Maximum index for augmentation-charges         1437 (set IRDMAX)


--------------------------------------------------------------------------------------------------------


 First call to EWALD:  gamma=   0.137
 Maximum number of real-space cells 4x 4x 2
 Maximum number of reciprocal cells 2x 2x 4

    FEWALD:  cpu time    0.0044: real time    0.0044


--------------------------------------- Iteration      1(   1)  ---------------------------------------


    POTLOK:  cpu time    0.4782: real time    0.4821
    SETDIJ:  cpu time    0.0364: real time    0.0366
     EDDAV:  cpu time   59.2983: real time   59.5010
 BZINTS: Fermi energy: 17.493038;778.000000 electrons
         Band energy:7818.292314;  BLOECHL correction: -0.019120
       DOS:  cpu time    0.0460: real time    0.1233
    --------------------------------------------
      LOOP:  cpu time   59.8589: real time   60.1431

 eigenvalue-minimisations  :  9984
 total energy-change (2. order) : 0.7574089E+04  (-0.3345479E+05)
 number of electron     778.0000000 magnetization     231.0000000
 augmentation part      778.0000000 magnetization     231.0000000

 Free energy of the ion-electron system (eV)
  ---------------------------------------------------
  alpha Z        PSCENC =      2197.15539535
  Ewald energy   TEWEN  =    222803.52339549
  -Hartree energ DENC   =   -294946.31146120
  -exchange      EXHF   =         0.00000000
  -V(xc)+E(xc)   XCENC  =      1384.68393170
  PAW double counting   =     64136.80006862   -66038.70876209
  entropy T*S    EENTRO =         0.00000000
  eigenvalues    EBANDS =      7818.29231431
  atomic energy  EATOM  =     70218.65458108
  Solvation  Ediel_sol  =         0.00000000
  ---------------------------------------------------
  free energy    TOTEN  =      7574.08946326 eV

  energy without entropy =     7574.08946326  energy(sigma->0) =     7574.08946326


--------------------------------------------------------------------------------------------------------




--------------------------------------- Iteration      1(   2)  ---------------------------------------


     EDDAV:  cpu time   60.2746: real time   60.4616
 BZINTS: Fermi energy:  5.754463;778.000000 electrons
         Band energy: 884.439786;  BLOECHL correction: -0.083174
       DOS:  cpu time    0.0244: real time    0.0251
    --------------------------------------------
      LOOP:  cpu time   60.2991: real time   60.4866

 eigenvalue-minimisations  : 10128
 total energy-change (2. order) :-0.6933853E+04  (-0.6150892E+04)
 number of electron     778.0000000 magnetization     231.0000000
 augmentation part      778.0000000 magnetization     231.0000000

 Free energy of the ion-electron system (eV)
  ---------------------------------------------------
  alpha Z        PSCENC =      2197.15539535
  Ewald energy   TEWEN  =    222803.52339549
  -Hartree energ DENC   =   -294946.31146120
  -exchange      EXHF   =         0.00000000
  -V(xc)+E(xc)   XCENC  =      1384.68393170
  PAW double counting   =     64136.80006862   -66038.70876209
  entropy T*S    EENTRO =         0.00000000
  eigenvalues    EBANDS =       884.43978633
  atomic energy  EATOM  =     70218.65458108
  Solvation  Ediel_sol  =         0.00000000
  ---------------------------------------------------
  free energy    TOTEN  =       640.23693528 eV

  energy without entropy =      640.23693528  energy(sigma->0) =      640.23693528


--------------------------------------------------------------------------------------------------------




--------------------------------------- Iteration      1(   3)  ---------------------------------------


     EDDAV:  cpu time   60.8923: real time   61.0865
 BZINTS: Fermi energy:  3.433157;778.000000 electrons
         Band energy:-185.001824;  BLOECHL correction: -0.043141
       DOS:  cpu time    0.0262: real time    0.0495
    --------------------------------------------
      LOOP:  cpu time   60.9185: real time   61.1361

 eigenvalue-minimisations  : 10272
 total energy-change (2. order) :-0.1069442E+04  (-0.8933166E+03)
 number of electron     778.0000000 magnetization     231.0000000
 augmentation part      778.0000000 magnetization     231.0000000

 Free energy of the ion-electron system (eV)
  ---------------------------------------------------
  alpha Z        PSCENC =      2197.15539535
  Ewald energy   TEWEN  =    222803.52339549
  -Hartree energ DENC   =   -294946.31146120
  -exchange      EXHF   =         0.00000000
  -V(xc)+E(xc)   XCENC  =      1384.68393170
  PAW double counting   =     64136.80006862   -66038.70876209
  entropy T*S    EENTRO =         0.00000000
  eigenvalues    EBANDS =      -185.00182366
  atomic energy  EATOM  =     70218.65458108
  Solvation  Ediel_sol  =         0.00000000
  ---------------------------------------------------
  free energy    TOTEN  =      -429.20467471 eV

  energy without entropy =     -429.20467471  energy(sigma->0) =     -429.20467471


--------------------------------------------------------------------------------------------------------




--------------------------------------- Iteration      1(   4)  ---------------------------------------


     EDDAV:  cpu time   69.7101: real time   70.1403
 BZINTS: Fermi energy:  3.301524;778.000000 electrons
         Band energy:-250.979442;  BLOECHL correction: -0.014842
       DOS:  cpu time    0.0275: real time    0.0283
    --------------------------------------------
      LOOP:  cpu time   69.7376: real time   70.1686

 eigenvalue-minimisations  : 12192
 total energy-change (2. order) :-0.6597762E+02  (-0.6358243E+02)
 number of electron     778.0000000 magnetization     231.0000000
 augmentation part      778.0000000 magnetization     231.0000000

 Free energy of the ion-electron system (eV)
  ---------------------------------------------------
  alpha Z        PSCENC =      2197.15539535
  Ewald energy   TEWEN  =    222803.52339549
  -Hartree energ DENC   =   -294946.31146120
  -exchange      EXHF   =         0.00000000
  -V(xc)+E(xc)   XCENC  =      1384.68393170
  PAW double counting   =     64136.80006862   -66038.70876209
  entropy T*S    EENTRO =         0.00000000
  eigenvalues    EBANDS =      -250.97944189
  atomic energy  EATOM  =     70218.65458108
  Solvation  Ediel_sol  =         0.00000000
  ---------------------------------------------------
  free energy    TOTEN  =      -495.18229295 eV

  energy without entropy =     -495.18229295  energy(sigma->0) =     -495.18229295


--------------------------------------------------------------------------------------------------------




--------------------------------------- Iteration      1(   5)  ---------------------------------------


     EDDAV:  cpu time   69.1846: real time   69.4575
 BZINTS: Fermi energy:  3.297892;778.000000 electrons
         Band energy:-253.141696;  BLOECHL correction: -0.013912
       DOS:  cpu time    0.0280: real time    0.0286
    CHARGE:  cpu time    2.6883: real time    2.6960
    MIXING:  cpu time    0.0110: real time    0.0110
    --------------------------------------------
      LOOP:  cpu time   71.9119: real time   72.1932

 eigenvalue-minimisations  : 12096
 total energy-change (2. order) :-0.2162254E+01  (-0.2157720E+01)
 number of electron     778.0000017 magnetization     216.5625118
 augmentation part      335.0118568 magnetization     184.0309646

 Broyden mixing:
  rms(total) = 0.11747E+02    rms(broyden)= 0.11747E+02
  rms(prec ) = 0.12066E+02
  weight for this iteration     100.00

 Free energy of the ion-electron system (eV)
  ---------------------------------------------------
  alpha Z        PSCENC =      2197.15539535
  Ewald energy   TEWEN  =    222803.52339549
  -Hartree energ DENC   =   -294946.31146120
  -exchange      EXHF   =         0.00000000
  -V(xc)+E(xc)   XCENC  =      1384.68393170
  PAW double counting   =     64136.80006862   -66038.70876209
  entropy T*S    EENTRO =         0.00000000
  eigenvalues    EBANDS =      -253.14169608
  atomic energy  EATOM  =     70218.65458108
  Solvation  Ediel_sol  =         0.00000000
  ---------------------------------------------------
  free energy    TOTEN  =      -497.34454713 eV

  energy without entropy =     -497.34454713  energy(sigma->0) =     -497.34454713


--------------------------------------------------------------------------------------------------------




--------------------------------------- Iteration      1(   6)  ---------------------------------------


    POTLOK:  cpu time    0.4359: real time    0.4386
    SETDIJ:  cpu time    0.0365: real time    0.0366
    EDDIAG:  cpu time    9.9617: real time    9.9922
  RMM-DIIS:  cpu time   37.4266: real time   37.6352
    ORTHCH:  cpu time    1.6580: real time    1.6629
 BZINTS: Fermi energy:  1.561939;778.000000 electrons
         Band energy:***********;  BLOECHL correction: -0.039260
       DOS:  cpu time    0.0297: real time    0.0298
    CHARGE:  cpu time    2.6813: real time    2.6893
    MIXING:  cpu time    0.0110: real time    0.0133
    --------------------------------------------
      LOOP:  cpu time   52.2407: real time   52.4978

 eigenvalue-minimisations  : 10038
 total energy-change (2. order) :-0.1668999E+03  (-0.8417373E+02)
 number of electron     778.0000024 magnetization     212.4815203
 augmentation part      406.3923777 magnetization     179.5250615

 Broyden mixing:
  rms(total) = 0.19716E+02    rms(broyden)= 0.19716E+02
  rms(prec ) = 0.25585E+02
  weight for this iteration     100.00

 eigenvalues of (default mixing * dielectric matrix)
  average eigenvalue GAMMA=   0.2246
  0.2246

 Free energy of the ion-electron system (eV)
  ---------------------------------------------------
  alpha Z        PSCENC =      2197.15539535
  Ewald energy   TEWEN  =    222803.52339549
  -Hartree energ DENC   =   -293334.08365525
  -exchange      EXHF   =         0.00000000
  -V(xc)+E(xc)   XCENC  =      1338.47613308
  PAW double counting   =     68952.39668206   -70643.87235668
  entropy T*S    EENTRO =         0.00000000
  eigenvalues    EBANDS =     -2196.49458523
  atomic energy  EATOM  =     70218.65458108
  Solvation  Ediel_sol  =         0.00000000
  ---------------------------------------------------
  free energy    TOTEN  =      -664.24441010 eV

  energy without entropy =     -664.24441010  energy(sigma->0) =     -664.24441010


--------------------------------------------------------------------------------------------------------




--------------------------------------- Iteration      1(   7)  ---------------------------------------


    POTLOK:  cpu time    0.4353: real time    0.4512
    SETDIJ:  cpu time    0.0363: real time    0.0365
    EDDIAG:  cpu time    9.9694: real time   10.0055
  RMM-DIIS:  cpu time   37.4100: real time   37.5230
    ORTHCH:  cpu time    1.6115: real time    1.6227
 BZINTS: Fermi energy:  3.002729;778.000000 electrons
         Band energy:***********;  BLOECHL correction: -0.008682
       DOS:  cpu time    0.0277: real time    0.0278
    CHARGE:  cpu time    2.6829: real time    2.6929
    MIXING:  cpu time    0.0106: real time    0.0107
    --------------------------------------------
      LOOP:  cpu time   52.1841: real time   52.3705

 eigenvalue-minimisations  :  9998
 total energy-change (2. order) : 0.1242147E+03  (-0.1466725E+02)
 number of electron     778.0000026 magnetization     207.8645616
 augmentation part      366.2314466 magnetization     165.5135790

 Broyden mixing:
  rms(total) = 0.15662E+02    rms(broyden)= 0.15662E+02
  rms(prec ) = 0.21116E+02
  weight for this iteration     100.00

 eigenvalues of (default mixing * dielectric matrix)
  average eigenvalue GAMMA=   0.2663
  0.3659  0.1667

 Free energy of the ion-electron system (eV)
  ---------------------------------------------------
  alpha Z        PSCENC =      2197.15539535
  Ewald energy   TEWEN  =    222803.52339549
  -Hartree energ DENC   =   -294022.08641504
  -exchange      EXHF   =         0.00000000
  -V(xc)+E(xc)   XCENC  =      1358.79580371
  PAW double counting   =     70000.24226552   -71852.49530597
  entropy T*S    EENTRO =         0.00000000
  eigenvalues    EBANDS =     -1243.81941954
  atomic energy  EATOM  =     70218.65458108
  Solvation  Ediel_sol  =         0.00000000
  ---------------------------------------------------
  free energy    TOTEN  =      -540.02969941 eV

  energy without entropy =     -540.02969941  energy(sigma->0) =     -540.02969941


--------------------------------------------------------------------------------------------------------




--------------------------------------- Iteration      1(   8)  ---------------------------------------


    POTLOK:  cpu time    0.4393: real time    0.4415
    SETDIJ:  cpu time    0.0366: real time    0.0367
    EDDIAG:  cpu time    9.9927: real time   10.0222
  RMM-DIIS:  cpu time   37.2929: real time   37.4593
    ORTHCH:  cpu time    1.6127: real time    1.6202
 BZINTS: Fermi energy:  2.606699;778.000000 electrons
         Band energy:-854.664348;  BLOECHL correction: -0.003868
       DOS:  cpu time    0.0261: real time    0.0262
    CHARGE:  cpu time    2.6755: real time    2.6835
    MIXING:  cpu time    0.0117: real time    0.0120
    --------------------------------------------
      LOOP:  cpu time   52.0874: real time   52.3013

 eigenvalue-minimisations  : 10005
[...]
      9.120783  5.807864  7.068080            0           0           0  
      3.771220  1.067832  0.904149            0           0           0  
      9.187153  5.773157  0.992859            0           0           0  
      5.174203  3.525475  0.870034            0           0           0  
     11.723623  8.751758  2.922452            0           0           0  
     11.769713  7.321100  4.844677            0           0           0  
     12.977995  6.503222  2.852336            0           0           0  
      9.131706  4.244648  2.814039            0           0           0  
      7.841620  8.065047  7.003091            0           0           0  
      7.897630  8.018724  0.913795            0           0           0  
     10.490378  6.601262  2.838692            0           0           0  
      2.545824  0.249602  5.013071            0           0           0  
      7.834603  3.521009  0.790672            0           0           0  
      5.126422  1.884619  2.935031            0           0           0  
      5.216670  6.505642  2.920646            0           0           0  
      7.782998  0.468536  4.847117            0           0           0  
      9.145213  1.192751  6.956730            0           0           0  
     10.397617  8.054322  6.962029            0           0           0  
      9.150683  1.135589  0.789759            0           0           0  
     10.461244  8.030921  0.814770            0           0           0  
      5.114414  5.011163  4.926315            0           0           0  
     11.725874  2.741409  4.881582            0           0           0  
     14.434703  8.900655  2.852614            0           0           0  
      9.175650  2.674812  4.916726            0           0           0  
      6.431102  2.698398  4.858523            0           0           0  
     11.768766  4.219254  2.836685            0           0           0  
      2.464313  1.903485  2.845607            0           0           0  
     11.756844  5.740030  0.912947            0           0           0  
      6.522583  5.804092  0.958327            0           0           0  
      7.914118  6.577917  2.852701            0           0           0  
      6.482113  4.167838  2.791458            0           0           0  
     10.484094  3.494945  7.038467            0           0           0  
     10.445388  3.479421  0.900647            0           0           0  
     10.474867  0.482687  4.880562            0           0           0  
      9.130911  7.352591  4.946557            0           0           0  
      6.543136  7.361666  4.951993            0           0           0  
      5.083962  0.270884  4.895514            0           0           0  
      6.469572  7.465106 10.305641     0.027660   -0.339685    0.940132  
 
   2 f  =   19.378967 THz   121.761640 2PiTHz  646.412736 cm-1    80.144994 meV
             X         Y         Z           dx          dy          dz
     13.070371  8.112843  6.955096            0           0           0  
      5.158548  8.132034  6.946739            0           0           0  
      5.008032  3.516458  7.008200            0           0           0  
     14.428683  8.892922  9.264744            0           0           0  
      3.761515  4.266954  9.372468            0           0           0  
      6.451962  8.911007  9.286093            0           0           0  
     11.771412  4.236317  9.341245            0           0           0  
      9.129780  8.866750  9.205529            0           0           0  
     10.434232  1.953765  9.222593            0           0           0  
      2.476659  1.957880  9.261984            0           0           0  
     11.779853  8.858523  9.288035            0           0           0  
     13.102286  6.561815  9.345101            0           0           0  
      5.109594  1.926949  9.314241            0           0           0  
      7.830104  6.551007  9.335925            0           0           0  
      9.133764  4.256023  9.254679            0           0           0  
      5.081797  6.538302  9.403078            0           0           0  
      7.782563  1.942774  9.259189            0           0           0  
      7.847298  3.463538  6.957603            0           0           0  
      6.360675  1.151682  6.916614            0           0           0  
      6.498778  1.127007  0.917828            0           0           0  
      3.733291  4.243650  2.823042            0           0           0  
      1.191537  1.242612  6.917598            0           0           0  
      1.141687  1.204891  0.754652            0           0           0  
      6.499372  8.840780  2.914106            0           0           0  
      6.448616  4.236679  9.328822            0           0           0  
      7.763730  5.040508  4.814893            0           0           0  
     10.436890  6.561964  9.290130            0           0           0  
     14.403524  7.279579  4.857604            0           0           0  
     11.797081  5.740902  7.008706            0           0           0  
      6.475968  5.826073  7.006527            0           0           0  
      3.646970  2.579887  4.956527            0           0           0  
     10.458773  5.073493  4.863092            0           0           0  
      3.798067  5.821412  7.139275            0           0           0  
     13.078973  7.956177  0.958832            0           0           0  
      5.213798  7.986558  0.862842            0           0           0  
      3.831310  5.831966  0.856005            0           0           0  
      7.882427  2.063465  2.846121            0           0           0  
      9.162894  8.807943  2.876123            0           0           0  
      2.427838  3.533363  7.120079            0           0           0  
      2.328700  3.518376  0.862991            0           0           0  
     10.446876  1.987090  2.840088            0           0           0  
     13.086114  5.024876  4.925357            0           0           0  
      3.783334  1.068263  7.050925            0           0           0  
      9.120783  5.807864  7.068080            0           0           0  
      3.771220  1.067832  0.904149            0           0           0  
      9.187153  5.773157  0.992859            0           0           0  
      5.174203  3.525475  0.870034            0           0           0  
     11.723623  8.751758  2.922452            0           0           0  
     11.769713  7.321100  4.844677            0           0           0  
     12.977995  6.503222  2.852336            0           0           0  
      9.131706  4.244648  2.814039            0           0           0  
      7.841620  8.065047  7.003091            0           0           0  
      7.897630  8.018724  0.913795            0           0           0  
     10.490378  6.601262  2.838692            0           0           0  
      2.545824  0.249602  5.013071            0           0           0  
      7.834603  3.521009  0.790672            0           0           0  
      5.126422  1.884619  2.935031            0           0           0  
      5.216670  6.505642  2.920646            0           0           0  
      7.782998  0.468536  4.847117            0           0           0  
      9.145213  1.192751  6.956730            0           0           0  
     10.397617  8.054322  6.962029            0           0           0  
      9.150683  1.135589  0.789759            0           0           0  
     10.461244  8.030921  0.814770            0           0           0  
      5.114414  5.011163  4.926315            0           0           0  
     11.725874  2.741409  4.881582            0           0           0  
     14.434703  8.900655  2.852614            0           0           0  
      9.175650  2.674812  4.916726            0           0           0  
      6.431102  2.698398  4.858523            0           0           0  
     11.768766  4.219254  2.836685            0           0           0  
      2.464313  1.903485  2.845607            0           0           0  
     11.756844  5.740030  0.912947            0           0           0  
      6.522583  5.804092  0.958327            0           0           0  
      7.914118  6.577917  2.852701            0           0           0  
      6.482113  4.167838  2.791458            0           0           0  
     10.484094  3.494945  7.038467            0           0           0  
     10.445388  3.479421  0.900647            0           0           0  
     10.474867  0.482687  4.880562            0           0           0  
      9.130911  7.352591  4.946557            0           0           0  
      6.543136  7.361666  4.951993            0           0           0  
      5.083962  0.270884  4.895514            0           0           0  
      6.469572  7.465106 10.305641     0.008340    0.940538    0.339586  
 
   3 f  =   16.190449 THz   101.727589 2PiTHz  540.055218 cm-1    66.958337 meV
             X         Y         Z           dx          dy          dz
     13.070371  8.112843  6.955096            0           0           0  
      5.158548  8.132034  6.946739            0           0           0  
      5.008032  3.516458  7.008200            0           0           0  
     14.428683  8.892922  9.264744            0           0           0  
      3.761515  4.266954  9.372468            0           0           0  
      6.451962  8.911007  9.286093            0           0           0  
     11.771412  4.236317  9.341245            0           0           0  
      9.129780  8.866750  9.205529            0           0           0  
     10.434232  1.953765  9.222593            0           0           0  
      2.476659  1.957880  9.261984            0           0           0  
     11.779853  8.858523  9.288035            0           0           0  
     13.102286  6.561815  9.345101            0           0           0  
      5.109594  1.926949  9.314241            0           0           0  
      7.830104  6.551007  9.335925            0           0           0  
      9.133764  4.256023  9.254679            0           0           0  
      5.081797  6.538302  9.403078            0           0           0  
      7.782563  1.942774  9.259189            0           0           0  
      7.847298  3.463538  6.957603            0           0           0  
      6.360675  1.151682  6.916614            0           0           0  
      6.498778  1.127007  0.917828            0           0           0  
      3.733291  4.243650  2.823042            0           0           0  
      1.191537  1.242612  6.917598            0           0           0  
      1.141687  1.204891  0.754652            0           0           0  
      6.499372  8.840780  2.914106            0           0           0  
      6.448616  4.236679  9.328822            0           0           0  
      7.763730  5.040508  4.814893            0           0           0  
     10.436890  6.561964  9.290130            0           0           0  
     14.403524  7.279579  4.857604            0           0           0  
     11.797081  5.740902  7.008706            0           0           0  
      6.475968  5.826073  7.006527            0           0           0  
      3.646970  2.579887  4.956527            0           0           0  
     10.458773  5.073493  4.863092            0           0           0  
      3.798067  5.821412  7.139275            0           0           0  
     13.078973  7.956177  0.958832            0           0           0  
      5.213798  7.986558  0.862842            0           0           0  
      3.831310  5.831966  0.856005            0           0           0  
      7.882427  2.063465  2.846121            0           0           0  
      9.162894  8.807943  2.876123            0           0           0  
      2.427838  3.533363  7.120079            0           0           0  
      2.328700  3.518376  0.862991            0           0           0  
     10.446876  1.987090  2.840088            0           0           0  
     13.086114  5.024876  4.925357            0           0           0  
      3.783334  1.068263  7.050925            0           0           0  
      9.120783  5.807864  7.068080            0           0           0  
      3.771220  1.067832  0.904149            0           0           0  
      9.187153  5.773157  0.992859            0           0           0  
      5.174203  3.525475  0.870034            0           0           0  
     11.723623  8.751758  2.922452            0           0           0  
     11.769713  7.321100  4.844677            0           0           0  
     12.977995  6.503222  2.852336            0           0           0  
      9.131706  4.244648  2.814039            0           0           0  
      7.841620  8.065047  7.003091            0           0           0  
      7.897630  8.018724  0.913795            0           0           0  
     10.490378  6.601262  2.838692            0           0           0  
      2.545824  0.249602  5.013071            0           0           0  
      7.834603  3.521009  0.790672            0           0           0  
      5.126422  1.884619  2.935031            0           0           0  
      5.216670  6.505642  2.920646            0           0           0  
      7.782998  0.468536  4.847117            0           0           0  
      9.145213  1.192751  6.956730            0           0           0  
     10.397617  8.054322  6.962029            0           0           0  
      9.150683  1.135589  0.789759            0           0           0  
     10.461244  8.030921  0.814770            0           0           0  
      5.114414  5.011163  4.926315            0           0           0  
     11.725874  2.741409  4.881582            0           0           0  
     14.434703  8.900655  2.852614            0           0           0  
      9.175650  2.674812  4.916726            0           0           0  
      6.431102  2.698398  4.858523            0           0           0  
     11.768766  4.219254  2.836685            0           0           0  
      2.464313  1.903485  2.845607            0           0           0  
     11.756844  5.740030  0.912947            0           0           0  
      6.522583  5.804092  0.958327            0           0           0  
      7.914118  6.577917  2.852701            0           0           0  
      6.482113  4.167838  2.791458            0           0           0  
     10.484094  3.494945  7.038467            0           0           0  
     10.445388  3.479421  0.900647            0           0           0  
     10.474867  0.482687  4.880562            0           0           0  
      9.130911  7.352591  4.946557            0           0           0  
      6.543136  7.361666  4.951993            0           0           0  
      5.083962  0.270884  4.895514            0           0           0  
      6.469572  7.465106 10.305641     0.999583    0.001552   -0.028848  
 
 Finite differences POTIM=  1.500000000000000E-002
  LATTYP: Found a hexagonal cell.
 ALAT       =    10.6599998474
 C/A-ratio  =     2.0637898982
  
  Lattice vectors:
  
 A1 = (   5.3299999237,  -9.2318306722,   0.0000000000)
 A2 = ( -10.6599998474,   0.0000000000,   0.0000000000)
 A3 = (   0.0000000000,   0.0000000000, -22.0000000000)


Analysis of symmetry for initial positions (statically):
=====================================================================
 Subroutine PRICEL returns:
 Original cell was already a primitive cell.
 

 Routine SETGRP: Setting up the symmetry group for a 
 hexagonal supercell.


 Subroutine GETGRP returns: Found  1 space group operations
 (whereof  1 operations were pure point group operations)
 out of a pool of 24 trial point group operations.


The static configuration has the point symmetry C_1 .


Analysis of symmetry for dynamics (positions and initial velocities):
=====================================================================
 Subroutine PRICEL returns:
 Original cell was already a primitive cell.
 

 Routine SETGRP: Setting up the symmetry group for a 
 hexagonal supercell.


 Subroutine GETGRP returns: Found  1 space group operations
 (whereof  1 operations were pure point group operations)
 out of a pool of 24 trial point group operations.


The dynamic configuration has the point symmetry C_1 .


Analysis of constrained symmetry for selective dynamics:
=====================================================================
 Subroutine PRICEL returns:
 Original cell was already a primitive cell.
 

 Routine SETGRP: Setting up the symmetry group for a 
 hexagonal supercell.


 Subroutine GETGRP returns: Found  1 space group operations
 (whereof  1 operations were pure point group operations)
 out of a pool of 24 trial point group operations.


The constrained configuration has the point symmetry C_1 .


Analysis of structural, dynamic, and magnetic symmetry:
=====================================================================
 Subroutine PRICEL returns:
 Original cell was already a primitive cell.
 

 Routine SETGRP: Setting up the symmetry group for a 
 hexagonal supercell.


 Subroutine GETGRP returns: Found  1 space group operations
 (whereof  1 operations were pure point group operations)
 out of a pool of 24 trial point group operations.


The magnetic configuration has the point symmetry C_1 .


 Subroutine INISYM returns: Found  1 space group operations
 (whereof  1 operations are pure point group operations),
 and found     1 'primitive' translations

 
 KPOINTS: mesh auto                               

Automatic generation of k-mesh.
Space group operators:
 irot       det(A)        alpha          n_x          n_y          n_z        tau_x        tau_y        tau_z
    1     1.000000     0.000000     1.000000     0.000000     0.000000     0.000000     0.000000     0.000000
 
 Subroutine IBZKPT returns following result:
 ===========================================
 
 Found      4 irreducible k-points:
 
 Following reciprocal coordinates:
            Coordinates               Weight
  0.000000  0.000000  0.000000      1.000000
  0.500000 -0.000000  0.000000      1.000000
  0.000000  0.500000  0.000000      1.000000
  0.500000  0.500000  0.000000      1.000000
 
 Following cartesian coordinates:
            Coordinates               Weight
  0.000000  0.000000  0.000000      1.000000
  0.046904 -0.027080  0.000000      1.000000
  0.000000  0.054160  0.000000      1.000000
  0.046904  0.027080  0.000000      1.000000
 
 TETIRR: Found     12 inequivalent tetrahedra from       24
     LOOP+:  cpu time  598.3919: real time  601.6644
    4ORBIT:  cpu time    0.0000: real time    0.0000
 BZINTS: Fermi energy:  1.932528;778.000000 electrons
         Band energy:-744.936628;  BLOECHL correction: -0.276206

 total amount of memory used by VASP MPI-rank0   369858. kBytes
=======================================================================

   base      :      30000. kBytes
   nonlr-proj:      96555. kBytes
   fftplans  :      12162. kBytes
   grid      :     120476. kBytes
   one-center:       2519. kBytes
   wavefun   :     108146. kBytes
 
  
  
 General timing and accounting informations for this job:
 ========================================================
  
                  Total CPU time used (sec):     8190.926
                            User time (sec):     8159.218
                          System time (sec):       31.708
                         Elapsed time (sec):     8247.733
  
                   Maximum memory used (kb):      704172.
                   Average memory used (kb):           0.
  
                          Minor page faults:      3144482
                          Major page faults:          164
                 Voluntary context switches:         5768
