 vasp.5.4.4.18Apr17-6-g9f103f2a35 (build Oct 25 2019 11:13:22) complex          
  
 executed on             LinuxIFC date 2021.10.16  21:30:12
 running on   48 total cores
 distrk:  each k-point on   48 cores,    1 groups
 distr:  one band on NCORES_PER_BAND=   4 cores,   12 groups


--------------------------------------------------------------------------------------------------------


 INCAR:
 POTCAR:    PAW_PBE Pt 04Feb2005                  
 POTCAR:    PAW_PBE Fe 06Sep2000                  
 POTCAR:    PAW_PBE Co 02Aug2007                  
 POTCAR:    PAW_PBE Cu 22Jun2005                  
 POTCAR:    PAW_PBE Ni 02Aug2007                  
 POTCAR:    PAW_PBE H 15Jun2001                   
 POTCAR:    PAW_PBE Pt 04Feb2005                  
   VRHFIN =Pt: s1d9                                                             
   LEXCH  = PE                                                                  
   EATOM  =   729.1176 eV,   53.5886 Ry                                         
                                                                                
   TITEL  = PAW_PBE Pt 04Feb2005                                                
   LULTRA =        F    use ultrasoft PP ?                                      
   IUNSCR =        1    unscreen: 0-lin 1-nonlin 2-no                           
   RPACOR =    2.330    partial core radius                                     
   POMASS =  195.080; ZVAL   =   10.000    mass and valenz                      
   RCORE  =    2.600    outmost cutoff radius                                   
   RWIGS  =    2.750; RWIGS  =    1.455    wigner-seitz radius (au A)           
   ENMAX  =  230.283; ENMIN  =  172.712 eV                                      
   ICORE  =        3    local potential                                         
   LCOR   =        T    correct aug charges                                     
   LPAW   =        T    paw PP                                                  
   EAUG   =  358.966                                                            
   DEXC   =    0.000                                                            
   RMAX   =    2.658    core radius for proj-oper                               
   RAUG   =    1.300    factor for augmentation sphere                          
   RDEP   =    2.761    radius for radial grids                                 
   RDEPT  =    2.203    core radius for aug-charge                              
                                                                                
   Atomic configuration                                                         
   16 entries                                                                   
     n  l   j            E        occ.                                          
     1  0  0.50    -78401.1885   2.0000                                         
     2  0  0.50    -13770.7750   2.0000                                         
     2  1  1.50    -11931.0468   6.0000                                         
     3  0  0.50     -3234.7234   2.0000                                         
     3  1  1.50     -2699.2216   6.0000                                         
     3  2  2.50     -2119.5714  10.0000                                         
     4  0  0.50      -695.1528   2.0000                                         
     4  1  1.50      -519.6034   6.0000                                         
     4  2  2.50      -306.6786  10.0000                                         
     4  3  3.50       -70.1041  14.0000                                         
     5  0  0.50      -101.7747   2.0000                                         
     5  1  1.50       -55.9873   6.0000                                         
     5  2  2.50        -6.1423   9.0000                                         
     6  0  0.50        -5.6573   1.0000                                         
     6  1  1.50        -6.8029   0.0000                                         
     5  3  2.50        -1.3606   0.0000                                         
   Description                                                                  
     l       E           TYP  RCUT    TYP  RCUT                                 
     2     -6.1423404     23  2.500                                             
     2     -7.5029230     23  2.500                                             
     0     -5.6573207     23  2.500                                             
     0      0.7416693     23  2.500                                             
     1     -2.7211652     23  2.600                                             
     1     20.4087390     23  2.600                                             
     3     -1.3605826     23  2.500                                             
  local pseudopotential read in
  partial core-charges read in
  partial kinetic energy density read in
  atomic valenz-charges read in
  non local Contribution for L=           2  read in
    real space projection operators read in
  non local Contribution for L=           2  read in
    real space projection operators read in
  non local Contribution for L=           0  read in
    real space projection operators read in
  non local Contribution for L=           0  read in
    real space projection operators read in
  non local Contribution for L=           1  read in
    real space projection operators read in
  non local Contribution for L=           1  read in
    real space projection operators read in
    PAW grid and wavefunctions read in
 
   number of l-projection  operators is LMAX  =           6
   number of lm-projection operators is LMMAX =          18
 
 POTCAR:    PAW_PBE Fe 06Sep2000                  
   VRHFIN =Fe:  d7 s1                                                           
   LEXCH  = PE                                                                  
   EATOM  =   594.3153 eV,   43.6809 Ry                                         
                                                                                
   TITEL  = PAW_PBE Fe 06Sep2000                                                
   LULTRA =        F    use ultrasoft PP ?                                      
   IUNSCR =        1    unscreen: 0-lin 1-nonlin 2-no                           
   RPACOR =    2.000    partial core radius                                     
   POMASS =   55.847; ZVAL   =    8.000    mass and valenz                      
   RCORE  =    2.300    outmost cutoff radius                                   
   RWIGS  =    2.460; RWIGS  =    1.302    wigner-seitz radius (au A)           
   ENMAX  =  267.882; ENMIN  =  200.911 eV                                      
   RCLOC  =    1.701    cutoff for local pot                                    
   LCOR   =        T    correct aug charges                                     
   LPAW   =        T    paw PP                                                  
   EAUG   =  511.368                                                            
   DEXC   =    0.000                                                            
   RMAX   =    2.356    core radius for proj-oper                               
   RAUG   =    1.300    factor for augmentation sphere                          
   RDEP   =    2.442    radius for radial grids                                 
   RDEPT  =    1.890    core radius for aug-charge                              
                                                                                
   Atomic configuration                                                         
    9 entries                                                                   
     n  l   j            E        occ.                                          
     1  0  0.50     -6993.8440   2.0000                                         
     2  0  0.50      -814.6047   2.0000                                         
     2  1  1.50      -693.3689   6.0000                                         
     3  0  0.50       -89.4732   2.0000                                         
     3  1  1.50       -55.6373   6.0000                                         
     3  2  2.50        -3.8151   7.0000                                         
     4  0  0.50        -4.2551   1.0000                                         
     4  1  1.50        -3.4015   0.0000                                         
     4  3  2.50        -1.3606   0.0000                                         
   Description                                                                  
     l       E           TYP  RCUT    TYP  RCUT                                 
     2     -3.8151135     23  2.300                                             
     2     -5.1756961     23  2.300                                             
     0     -4.2550963     23  2.300                                             
     0      7.2035603     23  2.300                                             
     1     -2.7211652     23  2.300                                             
     1     18.4316424     23  2.300                                             
  local pseudopotential read in
  partial core-charges read in
  partial kinetic energy density read in
  atomic valenz-charges read in
  non local Contribution for L=           2  read in
    real space projection operators read in
  non local Contribution for L=           2  read in
    real space projection operators read in
  non local Contribution for L=           0  read in
    real space projection operators read in
  non local Contribution for L=           0  read in
    real space projection operators read in
  non local Contribution for L=           1  read in
    real space projection operators read in
  non local Contribution for L=           1  read in
    real space projection operators read in
    PAW grid and wavefunctions read in
 
   number of l-projection  operators is LMAX  =           6
   number of lm-projection operators is LMMAX =          18
 
 POTCAR:    PAW_PBE Co 02Aug2007                  
   VRHFIN =Co: d8 s1                                                            
   LEXCH  = PE                                                                  
   EATOM  =   813.3670 eV,   59.7808 Ry                                         
                                                                                
   TITEL  = PAW_PBE Co 02Aug2007                                                
   LULTRA =        F    use ultrasoft PP ?                                      
   IUNSCR =        1    unscreen: 0-lin 1-nonlin 2-no                           
   RPACOR =    2.000    partial core radius                                     
   POMASS =   58.933; ZVAL   =    9.000    mass and valenz                      
   RCORE  =    2.300    outmost cutoff radius                                   
   RWIGS  =    2.460; RWIGS  =    1.302    wigner-seitz radius (au A)           
   ENMAX  =  267.968; ENMIN  =  200.976 eV                                      
   RCLOC  =    1.203    cutoff for local pot                                    
   LCOR   =        T    correct aug charges                                     
   LPAW   =        T    paw PP                                                  
   EAUG   =  477.818                                                            
   DEXC   =    0.000                                                            
   RMAX   =    2.360    core radius for proj-oper                               
   RAUG   =    1.300    factor for augmentation sphere                          
   RDEP   =    2.393    radius for radial grids                                 
   RDEPT  =    1.864    core radius for aug-charge                              
                                                                                
   Atomic configuration                                                         
    9 entries                                                                   
     n  l   j            E        occ.                                          
     1  0  0.50     -7587.6674   2.0000                                         
     2  0  0.50      -893.6084   2.0000                                         
     2  1  1.50      -764.5805   6.0000                                         
     3  0  0.50       -97.5973   2.0000                                         
     3  1  1.50       -60.9648   6.0000                                         
     3  2  2.50        -4.2382   8.0000                                         
     4  0  0.50        -4.3746   1.0000                                         
     4  1  1.50        -4.0817   0.0000                                         
     4  3  2.50        -1.3606   0.0000                                         
   Description                                                                  
     l       E           TYP  RCUT    TYP  RCUT                                 
     2     -4.2382362     23  2.300                                             
     2     -5.5988188     23  2.300                                             
     0     -4.3745797     23  2.300                                             
     0      5.7660125     23  2.300                                             
     1     -2.7211652     23  2.300                                             
     1     16.9860234     23  2.300                                             
  local pseudopotential read in
  partial core-charges read in
  partial kinetic energy density read in
  atomic valenz-charges read in
  non local Contribution for L=           2  read in
    real space projection operators read in
  non local Contribution for L=           2  read in
    real space projection operators read in
  non local Contribution for L=           0  read in
    real space projection operators read in
  non local Contribution for L=           0  read in
    real space projection operators read in
  non local Contribution for L=           1  read in
    real space projection operators read in
  non local Contribution for L=           1  read in
    real space projection operators read in
    PAW grid and wavefunctions read in
 
   number of l-projection  operators is LMAX  =           6
   number of lm-projection operators is LMMAX =          18
 
 POTCAR:    PAW_PBE Cu 22Jun2005                  
   VRHFIN =Cu: d10 p1                                                           
   LEXCH  = PE                                                                  
   EATOM  =  1390.9808 eV,  102.2342 Ry                                         
                                                                                
   TITEL  = PAW_PBE Cu 22Jun2005                                                
   LULTRA =        F    use ultrasoft PP ?                                      
   IUNSCR =        1    unscreen: 0-lin 1-nonlin 2-no                           
   RPACOR =    2.000    partial core radius                                     
   POMASS =   63.546; ZVAL   =   11.000    mass and valenz                      
   RCORE  =    2.300    outmost cutoff radius                                   
   RWIGS  =    2.200; RWIGS  =    1.164    wigner-seitz radius (au A)           
   ENMAX  =  295.446; ENMIN  =  221.585 eV                                      
   ICORE  =        3    local potential                                         
   LCOR   =        T    correct aug charges                                     
   LPAW   =        T    paw PP                                                  
   EAUG   =  586.980                                                            
   DEXC   =    0.000                                                            
   RMAX   =    2.344    core radius for proj-oper                               
   RAUG   =    1.300    factor for augmentation sphere                          
   RDEP   =    2.302    radius for radial grids                                 
   RDEPT  =    1.771    core radius for aug-charge                              
                                                                                
   Atomic configuration                                                         
    9 entries                                                                   
     n  l   j            E        occ.                                          
     1  0  0.50     -8850.2468   2.0000                                         
     2  0  0.50     -1062.3498   2.0000                                         
     2  1  1.50      -916.8226   6.0000                                         
     3  0  0.50      -114.6929   2.0000                                         
     3  1  1.50       -72.1325   6.0000                                         
     3  2  2.50        -5.0394  10.0000                                         
     4  0  0.50        -4.6097   1.0000                                         
     4  1  0.50        -4.0817   0.0000                                         
     4  3  2.50        -1.3606   0.0000                                         
   Description                                                                  
     l       E           TYP  RCUT    TYP  RCUT                                 
     2     -5.0393973     23  2.200                                             
     2     10.8846608     23  2.200                                             
     0     -4.6097109     23  2.200                                             
     0      8.2520465     23  2.200                                             
     1     -2.7211652     23  2.200                                             
     1     21.7055443     23  2.200                                             
     3      2.7211652     23  2.300                                             
  local pseudopotential read in
  partial core-charges read in
  partial kinetic energy density read in
  atomic valenz-charges read in
  non local Contribution for L=           2  read in
    real space projection operators read in
  non local Contribution for L=           2  read in
    real space projection operators read in
  non local Contribution for L=           0  read in
    real space projection operators read in
  non local Contribution for L=           0  read in
    real space projection operators read in
  non local Contribution for L=           1  read in
    real space projection operators read in
  non local Contribution for L=           1  read in
    real space projection operators read in
    PAW grid and wavefunctions read in
 
   number of l-projection  operators is LMAX  =           6
   number of lm-projection operators is LMMAX =          18
 
 POTCAR:    PAW_PBE Ni 02Aug2007                  
   VRHFIN =Ni:                                                                  
   LEXCH  = PE                                                                  
   EATOM  =  1077.6739 eV,   79.2068 Ry                                         
                                                                                
   TITEL  = PAW_PBE Ni 02Aug2007                                                
   LULTRA =        F    use ultrasoft PP ?                                      
   IUNSCR =        1    unscreen: 0-lin 1-nonlin 2-no                           
   RPACOR =    2.000    partial core radius                                     
   POMASS =   58.690; ZVAL   =   10.000    mass and valenz                      
   RCORE  =    2.300    outmost cutoff radius                                   
   RWIGS  =    2.430; RWIGS  =    1.286    wigner-seitz radius (au A)           
   ENMAX  =  269.532; ENMIN  =  202.149 eV                                      
   RCLOC  =    1.201    cutoff for local pot                                    
   LCOR   =        T    correct aug charges                                     
   LPAW   =        T    paw PP                                                  
   EAUG   =  544.565                                                            
   DEXC   =    0.000                                                            
   RMAX   =    2.357    core radius for proj-oper                               
   RAUG   =    1.300    factor for augmentation sphere                          
   RDEP   =    2.390    radius for radial grids                                 
   RDEPT  =    1.838    core radius for aug-charge                              
                                                                                
   Atomic configuration                                                         
    9 entries                                                                   
     n  l   j            E        occ.                                          
     1  0  0.50     -8206.4253   2.0000                                         
     2  0  0.50      -976.1748   2.0000                                         
     2  1  1.50      -839.0571   6.0000                                         
     3  0  0.50      -105.9991   2.0000                                         
     3  1  1.50       -66.4603   6.0000                                         
     3  2  2.50        -4.6458   9.0000                                         
     4  0  0.50        -4.4926   1.0000                                         
     4  1  1.50        -4.0817   0.0000                                         
     4  3  2.50        -1.3606   0.0000                                         
   Description                                                                  
     l       E           TYP  RCUT    TYP  RCUT                                 
     2     -4.6457903     23  2.300                                             
     2     -6.0063729     23  2.300                                             
     0     -4.4925590     23  2.300                                             
     0      5.0102601     23  2.300                                             
     1     -2.7211652     23  2.300                                             
     1     16.5183231     23  2.300                                             
  local pseudopotential read in
  partial core-charges read in
  partial kinetic energy density read in
  atomic valenz-charges read in
  non local Contribution for L=           2  read in
    real space projection operators read in
  non local Contribution for L=           2  read in
    real space projection operators read in
  non local Contribution for L=           0  read in
    real space projection operators read in
  non local Contribution for L=           0  read in
    real space projection operators read in
  non local Contribution for L=           1  read in
    real space projection operators read in
  non local Contribution for L=           1  read in
    real space projection operators read in
    PAW grid and wavefunctions read in
 
   number of l-projection  operators is LMAX  =           6
   number of lm-projection operators is LMMAX =          18
 
 POTCAR:    PAW_PBE H 15Jun2001                   
   VRHFIN =H: ultrasoft test                                                    
   LEXCH  = PE                                                                  
   EATOM  =    12.4884 eV,    0.9179 Ry                                         
                                                                                
   TITEL  = PAW_PBE H 15Jun2001                                                 
   LULTRA =        F    use ultrasoft PP ?                                      
   IUNSCR =        0    unscreen: 0-lin 1-nonlin 2-no                           
   RPACOR =    0.000    partial core radius                                     
   POMASS =    1.000; ZVAL   =    1.000    mass and valenz                      
   RCORE  =    1.100    outmost cutoff radius                                   
   RWIGS  =    0.700; RWIGS  =    0.370    wigner-seitz radius (au A)           
   ENMAX  =  250.000; ENMIN  =  200.000 eV                                      
   RCLOC  =    0.701    cutoff for local pot                                    
   LCOR   =        T    correct aug charges                                     
   LPAW   =        T    paw PP                                                  
   EAUG   =  400.000                                                            
   RMAX   =    1.123    core radius for proj-oper                               
   RAUG   =    1.200    factor for augmentation sphere                          
   RDEP   =    1.112    radius for radial grids                                 
   RDEPT  =    0.926    core radius for aug-charge                              
                                                                                
   Atomic configuration                                                         
    2 entries                                                                   
     n  l   j            E        occ.                                          
     1  0  0.50        -6.4927   1.0000                                         
     2  1  0.50        -3.4015   0.0000                                         
   Description                                                                  
     l       E           TYP  RCUT    TYP  RCUT                                 
     0     -6.4927494     23  1.100                                             
     0      6.8029130     23  1.100                                             
     1     -4.0817478     23  1.100                                             
  local pseudopotential read in
  atomic valenz-charges read in
  non local Contribution for L=           0  read in
    real space projection operators read in
  non local Contribution for L=           0  read in
    real space projection operators read in
  non local Contribution for L=           1  read in
    real space projection operators read in
    PAW grid and wavefunctions read in
 
   number of l-projection  operators is LMAX  =           3
   number of lm-projection operators is LMMAX =           5
 
 Optimization of the real space projectors (new method)

 maximal supplied QI-value         = 14.36
 optimisation between [QCUT,QGAM] = [ 11.92, 23.98] = [ 39.79,161.09] Ry 
 Optimized for a Real-space Cutoff    1.49 Angstroem

   l    n(q)    QCUT    max X(q) W(low)/X(q) W(high)/X(q)  e(spline) 
   2     10    11.920    66.195    0.79E-04    0.18E-03    0.24E-06
   2     10    11.920    64.643    0.81E-04    0.19E-03    0.24E-06
   0     11    11.920    95.520    0.28E-04    0.54E-04    0.18E-06
   0     11    11.920    63.403    0.27E-04    0.52E-04    0.17E-06
   1     10    11.920    19.961    0.18E-04    0.11E-03    0.23E-06
   1     10    11.920    13.289    0.25E-04    0.87E-04    0.19E-06
 Optimization of the real space projectors (new method)

 maximal supplied QI-value         = 16.25
 optimisation between [QCUT,QGAM] = [ 11.86, 23.89] = [ 39.41,159.82] Ry 
 Optimized for a Real-space Cutoff    1.49 Angstroem

   l    n(q)    QCUT    max X(q) W(low)/X(q) W(high)/X(q)  e(spline) 
   2     10    11.864    80.901    0.13E-03    0.23E-03    0.37E-06
   2     10    11.864    75.754    0.13E-03    0.23E-03    0.38E-06
   0     11    11.864    58.752    0.44E-04    0.11E-04    0.20E-06
   0     11    11.864    30.679    0.36E-04    0.10E-04    0.18E-06
   1     10    11.864    17.977    0.31E-04    0.45E-04    0.10E-06
   1     10    11.864    13.559    0.25E-04    0.37E-04    0.89E-07
 Optimization of the real space projectors (new method)

 maximal supplied QI-value         = 16.25
 optimisation between [QCUT,QGAM] = [ 11.86, 23.89] = [ 39.41,159.82] Ry 
 Optimized for a Real-space Cutoff    1.33 Angstroem

   l    n(q)    QCUT    max X(q) W(low)/X(q) W(high)/X(q)  e(spline) 
   2      9    11.864    65.824    0.22E-03    0.53E-03    0.26E-06
   2      9    11.864    61.429    0.22E-03    0.53E-03    0.26E-06
   0      9    11.864    56.174    0.21E-03    0.32E-04    0.15E-06
   0      9    11.864    31.263    0.19E-03    0.30E-04    0.14E-06
   1      9    11.864    19.828    0.63E-04    0.30E-03    0.16E-06
   1      9    11.864    15.139    0.49E-04    0.25E-03    0.13E-06
 Optimization of the real space projectors (new method)

 maximal supplied QI-value         = 16.25
 optimisation between [QCUT,QGAM] = [ 11.86, 23.89] = [ 39.41,159.82] Ry 
 Optimized for a Real-space Cutoff    1.49 Angstroem

   l    n(q)    QCUT    max X(q) W(low)/X(q) W(high)/X(q)  e(spline) 
   2     10    11.864     4.610    0.10E-03    0.20E-03    0.29E-06
   2     10    11.864     8.522    0.17E-03    0.33E-03    0.50E-06
   0     11    11.864    51.609    0.52E-04    0.55E-04    0.33E-06
   0     11    11.864    27.747    0.46E-04    0.52E-04    0.31E-06
   1     10    11.864    20.408    0.54E-04    0.25E-04    0.21E-06
   1     10    11.864    13.425    0.48E-04    0.22E-04    0.18E-06
 Optimization of the real space projectors (new method)

 maximal supplied QI-value         = 16.25
 optimisation between [QCUT,QGAM] = [ 11.86, 23.89] = [ 39.41,159.82] Ry 
 Optimized for a Real-space Cutoff    1.33 Angstroem

   l    n(q)    QCUT    max X(q) W(low)/X(q) W(high)/X(q)  e(spline) 
   2      9    11.864    60.317    0.21E-03    0.51E-03    0.25E-06
   2      9    11.864    55.921    0.21E-03    0.51E-03    0.26E-06
   0      9    11.864    51.690    0.22E-03    0.30E-04    0.17E-06
   0      9    11.864    30.015    0.20E-03    0.28E-04    0.15E-06
   1      9    11.864    18.849    0.76E-04    0.33E-03    0.17E-06
   1      9    11.864    14.624    0.60E-04    0.28E-03    0.15E-06
 Optimization of the real space projectors (new method)

 maximal supplied QI-value         = 34.20
 optimisation between [QCUT,QGAM] = [ 11.97, 23.94] = [ 40.13,160.53] Ry 
 Optimized for a Real-space Cutoff    1.18 Angstroem

   l    n(q)    QCUT    max X(q) W(low)/X(q) W(high)/X(q)  e(spline) 
   0      8    11.971    19.460    0.15E-03    0.31E-03    0.25E-06
   0      8    11.971    12.209    0.13E-03    0.29E-03    0.25E-06
   1      8    11.971     4.655    0.22E-03    0.24E-03    0.21E-06
  PAW_PBE Pt 04Feb2005                  :
 energy of atom  1       EATOM= -729.1176
 kinetic energy error for atom=    0.0021 (will be added to EATOM!!)
  PAW_PBE Fe 06Sep2000                  :
 energy of atom  2       EATOM= -594.3153
 kinetic energy error for atom=    0.0024 (will be added to EATOM!!)
  PAW_PBE Co 02Aug2007                  :
 energy of atom  3       EATOM= -813.3670
 kinetic energy error for atom=    0.0026 (will be added to EATOM!!)
  PAW_PBE Cu 22Jun2005                  :
 energy of atom  4       EATOM=-1390.9808
 kinetic energy error for atom=    0.0036 (will be added to EATOM!!)
  PAW_PBE Ni 02Aug2007                  :
 energy of atom  5       EATOM=-1077.6739
 kinetic energy error for atom=    0.0027 (will be added to EATOM!!)
  PAW_PBE H 15Jun2001                   :
 energy of atom  6       EATOM=  -12.4884
 kinetic energy error for atom=    0.0008 (will be added to EATOM!!)
 
 
 POSCAR: 11.06                                   
  positions in direct lattice
  velocities in cartesian coordinates
 exchange correlation table for  LEXCH =        8
   RHO(1)=    0.500       N(1)  =     2000
   RHO(2)=  100.500       N(2)  =     4000
 


--------------------------------------------------------------------------------------------------------


 ion  position               nearest neighbor table
   1  0.788  0.880  0.311-  49 2.57  59 2.62  28 2.65  11 2.76  19 2.76  33 2.76  61 2.77  29 2.78
                            60 2.78   4 2.79   2 2.83  12 2.85
   2  0.044  0.880  0.308-  79 2.55  77 2.60  28 2.73  30 2.73  33 2.75  60 2.76  52 2.79   6 2.82
                             1 2.83  22 2.84   4 2.88  16 2.95
   3  0.280  0.378  0.315-  64 2.55  68 2.65  31 2.66  39 2.67   5 2.74  33 2.75  13 2.77  25 2.80
                            43 2.81  19 2.81  30 2.84  18 2.96
   4  0.871  0.965  0.415-  17 2.71  60 2.72  11 2.75   9 2.76   1 2.79  12 2.80   6 2.83  16 2.85
                             2 2.88
   5  0.118  0.466  0.417-  39 2.64  33 2.70  12 2.71   7 2.71  16 2.71   3 2.74  10 2.74  25 2.80
                            13 2.87
   6  0.128  0.962  0.414-  52 2.67   8 2.71  10 2.77  22 2.79  14 2.79   9 2.81   2 2.82   4 2.83
                            16 2.84
   7  0.878  0.457  0.418-  39 2.63  75 2.66   5 2.71   9 2.72  15 2.72  10 2.74  29 2.75  12 2.79
                            27 2.82
   8  0.375  0.959  0.414-  43 2.56  52 2.63  61 2.68   6 2.71  14 2.74  27 2.74  13 2.75  10 2.77
                            11 2.77
   9  0.872  0.214  0.412-  75 2.63  60 2.67   7 2.72  15 2.72  17 2.74   4 2.76  22 2.78   6 2.81
                            10 2.83
  10  0.128  0.212  0.415-  39 2.64  43 2.68  13 2.72  22 2.73   7 2.74   5 2.74   8 2.77   6 2.77
                             9 2.83
  11  0.626  0.958  0.414-  61 2.71  12 2.74  27 2.75  13 2.75   4 2.75   1 2.76   8 2.77  17 2.78
                            19 2.78
  12  0.874  0.711  0.417-  33 2.69  29 2.70   5 2.71  11 2.74  27 2.77  16 2.78   7 2.79   4 2.80
                             1 2.85
  13  0.378  0.206  0.416-  43 2.68  10 2.72   8 2.75  11 2.75  19 2.76  17 2.77   3 2.77  25 2.78
                             5 2.87
  14  0.380  0.710  0.415-  81 1.64  44 2.61  52 2.65  27 2.70   8 2.74  15 2.74  30 2.76   6 2.79
                            25 2.80  16 2.81
  15  0.629  0.462  0.415-  44 2.62  75 2.64   9 2.72  27 2.72   7 2.72  18 2.73  14 2.74  17 2.81
                            25 2.83
  16  0.128  0.706  0.418-  33 2.66   5 2.71  25 2.72  30 2.76  12 2.78  14 2.81   6 2.84   4 2.85
                             2 2.95
  17  0.626  0.210  0.413-   4 2.71  18 2.71  60 2.73   9 2.74  13 2.77  25 2.78  11 2.78  19 2.81
                            15 2.81
  18  0.547  0.378  0.315-  67 2.54  68 2.61  26 2.67  17 2.71  44 2.73  15 2.73  60 2.74  75 2.76
                            25 2.79  30 2.83  19 2.86   3 2.96
  19  0.535  0.125  0.311-  80 2.53  68 2.56  59 2.57  43 2.66  13 2.76   1 2.76  61 2.77  11 2.78
                             3 2.81  17 2.81  18 2.86  60 2.89
  20  0.552  0.124  0.052-  37 2.54  57 2.54  48 2.56  62 2.67  63 2.77  47 2.79  34 2.81  56 2.83
                            45 2.95
  21  0.117  0.448  0.127-  47 2.51  36 2.52  40 2.52  42 2.62  70 2.69  69 2.70  64 2.70  31 2.74
                            50 2.78  57 2.79  74 3.04  58 3.09
  22  0.048  0.135  0.312-  65 2.53  77 2.54  55 2.56  43 2.69  39 2.70  10 2.73   9 2.78   6 2.79
                            75 2.81   2 2.84  52 2.84  60 2.84  31 3.35
  23  0.032  0.132  0.039-  70 2.56  41 2.58  40 2.58  62 2.69  76 2.70  24 2.71  45 2.77  35 2.89
                            53 2.93
  24  0.132  0.957  0.136-  79 2.51  35 2.56  77 2.57  53 2.57  55 2.59  70 2.65  58 2.68  23 2.71
                            73 2.74  38 2.74  66 2.81  41 2.91
  25  0.374  0.460  0.417-  81 1.64  16 2.72  17 2.78  13 2.78  30 2.78  18 2.79   5 2.80  14 2.80
                             3 2.80  15 2.83
  26  0.458  0.551  0.220-  74 2.50  73 2.52  51 2.55  79 2.63  30 2.64  18 2.67  44 2.68  32 2.73
                            78 2.74  68 2.81  67 2.84  64 2.85
  27  0.623  0.712  0.416-  44 2.64  61 2.68  14 2.70  15 2.72   8 2.74  11 2.75  29 2.77  12 2.77
                             7 2.82
  28  0.955  0.779  0.215-  58 2.56  50 2.56  66 2.61   1 2.65  42 2.65  33 2.67  49 2.68   2 2.73
                            64 2.75  59 2.94  77 3.16  79 3.16
  29  0.800  0.624  0.317-  42 2.55  32 2.63  39 2.63  49 2.64  75 2.68  12 2.70  33 2.73   7 2.75
                            27 2.77   1 2.78  61 2.79  44 2.83
  30  0.288  0.630  0.314-  79 2.53  64 2.63  26 2.64  33 2.71   2 2.73  52 2.75  16 2.76  14 2.76
                            25 2.78  44 2.80  18 2.83   3 2.84
  31  0.197  0.274  0.226-  70 2.49  43 2.57  57 2.57  55 2.61  39 2.62  65 2.63   3 2.66  21 2.74
                            42 2.80  80 2.84  64 2.96  68 3.01  22 3.35
  32  0.704  0.554  0.222-  54 2.55  69 2.55  51 2.59  49 2.63  29 2.63  44 2.66  78 2.67  75 2.67
                            65 2.72  42 2.73  26 2.73  67 2.77
  33  0.041  0.635  0.319-  16 2.66  28 2.67  64 2.68  12 2.69   5 2.70  30 2.71  42 2.71  29 2.73
                             2 2.75   3 2.75   1 2.76  39 2.80
  34  0.794  0.860  0.055-  50 2.37  48 2.43  66 2.54  36 2.60  63 2.69  71 2.72  20 2.81  35 2.85

  35  0.050  0.863  0.048-  36 2.43  58 2.54  24 2.56  66 2.58  72 2.69  34 2.85  23 2.89  53 2.90
                            62 2.92
  36  0.046  0.646  0.053-  35 2.43  21 2.52  58 2.52  50 2.58  34 2.60  72 2.68  47 2.90  71 3.06

  37  0.627  0.234  0.134-  67 2.50  56 2.50  51 2.50  20 2.54  59 2.54  74 2.55  68 2.55  62 2.57
                            41 2.59  66 2.76
  38  0.383  0.952  0.134-  45 2.42  53 2.43  80 2.46  55 2.52  78 2.52  63 2.54  73 2.58  54 2.59
                            48 2.62  24 2.74  57 2.75  70 2.83
  39  0.035  0.384  0.321-  42 2.60  31 2.62   7 2.63  29 2.63  10 2.64   5 2.64   3 2.67  65 2.68
                            75 2.68  22 2.70  33 2.80  43 2.96
  40  0.009  0.376  0.044-  69 2.35  76 2.47  21 2.52  23 2.58  70 2.59  71 2.60  45 3.03
  41  0.868  0.220  0.132-  76 2.44  77 2.46  67 2.52  65 2.54  62 2.56  23 2.58  37 2.59  69 2.60
                            51 2.66  66 2.68  70 2.71  24 2.91
  42  0.958  0.538  0.223-  50 2.48  29 2.55  39 2.60  21 2.62  69 2.62  28 2.65  65 2.66  33 2.71
                            32 2.73  64 2.76  49 2.77  31 2.80
  43  0.301  0.114  0.319-  55 2.51   8 2.56  31 2.57  80 2.58  19 2.66  10 2.68  52 2.68  13 2.68
                            61 2.68  22 2.69   3 2.81  39 2.96
  44  0.543  0.626  0.320-  14 2.61  78 2.62  15 2.62  27 2.64  32 2.66  26 2.68  61 2.71  75 2.71
                            52 2.71  18 2.73  30 2.80  29 2.83
  45  0.291  0.112  0.049-  38 2.42  70 2.44  53 2.53  57 2.59  63 2.71  23 2.77  20 2.95  40 3.03
                            47 3.10
  46  0.550  0.626  0.049-  54 2.38  51 2.39  73 2.40  71 2.55  76 2.70  56 2.73  53 2.75  63 2.76
                            72 2.80
  47  0.309  0.384  0.051-  74 2.30  21 2.51  56 2.59  57 2.60  72 2.60  20 2.79  36 2.90  45 3.10

  48  0.625  0.943  0.137-  49 2.35  34 2.43  80 2.48  54 2.52  63 2.52  20 2.56  59 2.58  38 2.62
                            50 2.70  57 2.82  66 2.91
  49  0.707  0.789  0.221-  48 2.35  50 2.43  54 2.50   1 2.57  61 2.62  32 2.63  29 2.64  80 2.66
                            78 2.67  28 2.68  42 2.77  59 2.93
  50  0.857  0.689  0.133-  71 2.36  34 2.37  49 2.43  42 2.48  54 2.49  69 2.53  28 2.56  36 2.58
                            48 2.70  21 2.78
  51  0.628  0.460  0.130-  46 2.39  76 2.43  37 2.50  56 2.51  26 2.55  32 2.59  67 2.62  69 2.64
                            41 2.66  74 2.68  73 2.76  54 2.82
  52  0.299  0.873  0.317-  55 2.43  79 2.45  78 2.55   8 2.63  14 2.65   6 2.67  43 2.68  61 2.69
                            44 2.71  30 2.75   2 2.79  22 2.84
  53  0.305  0.877  0.046-  73 2.41  38 2.43  45 2.53  24 2.57  63 2.65  46 2.75  72 2.84  35 2.90
                            23 2.93
  54  0.618  0.719  0.131-  46 2.38  71 2.46  63 2.47  50 2.49  49 2.50  48 2.52  32 2.55  78 2.57
                            73 2.58  38 2.59  51 2.82  69 2.86
  55  0.233  0.022  0.228-  52 2.43  79 2.51  43 2.51  38 2.52  78 2.53  80 2.53  22 2.56  24 2.59
                            31 2.61  70 2.73  77 2.91
  56  0.542  0.383  0.041-  74 2.49  37 2.50  51 2.51  47 2.59  76 2.65  72 2.69  46 2.73  62 2.77
                            20 2.83
  57  0.375  0.205  0.139-  68 2.48  20 2.54  80 2.57  31 2.57  45 2.59  47 2.60  38 2.75  21 2.79
                            70 2.82  48 2.82  74 2.83
  58  0.156  0.704  0.140-  72 2.42  64 2.44  79 2.47  36 2.52  35 2.54  28 2.56  73 2.63  24 2.68
                            74 2.68  21 3.09
  59  0.702  0.057  0.220-  66 2.47  37 2.54  19 2.57  48 2.58  60 2.59   1 2.62  68 2.69  67 2.75
                            77 2.81  80 2.86  49 2.93  28 2.94
  60  0.794  0.129  0.313-  67 2.51  77 2.53  59 2.59   9 2.67   4 2.72  17 2.73  18 2.74   2 2.76
                             1 2.78  75 2.83  22 2.84  19 2.89
  61  0.542  0.871  0.316-  78 2.47  80 2.48  49 2.62  27 2.68   8 2.68  43 2.68  52 2.69  44 2.71
                            11 2.71  19 2.77   1 2.77  29 2.79
  62  0.790  0.129  0.042-  66 2.50  41 2.56  37 2.57  20 2.67  76 2.69  23 2.69  56 2.77  35 2.92

  63  0.544  0.878  0.042-  54 2.47  48 2.52  38 2.54  53 2.65  34 2.69  45 2.71  71 2.75  46 2.76
                            20 2.77
  64  0.208  0.536  0.222-  58 2.44   3 2.55  74 2.62  30 2.63  33 2.68  68 2.69  21 2.70  28 2.75
                            42 2.76  26 2.85  31 2.96
  65  0.946  0.304  0.224-  69 2.49  22 2.53  41 2.54  75 2.56  67 2.57  77 2.61  70 2.62  31 2.63
                            42 2.66  39 2.68  32 2.72
  66  0.869  0.977  0.134-  59 2.47  62 2.50  77 2.52  34 2.54  35 2.58  28 2.61  41 2.68  37 2.76
                            24 2.81  48 2.91
  67  0.717  0.297  0.226-  37 2.50  60 2.51  41 2.52  18 2.54  65 2.57  77 2.58  75 2.58  51 2.62
                            59 2.75  32 2.77  26 2.84
  68  0.456  0.298  0.222-  57 2.48  74 2.48  37 2.55  19 2.56  18 2.61   3 2.65  64 2.69  59 2.69
                            26 2.81  31 3.01
  69  0.869  0.454  0.131-  40 2.35  76 2.47  71 2.47  65 2.49  50 2.53  32 2.55  41 2.60  42 2.62
                            51 2.64  21 2.70  70 2.79  54 2.86
  70  0.122  0.202  0.132-  45 2.44  31 2.49  23 2.56  40 2.59  65 2.62  24 2.65  21 2.69  41 2.71
                            55 2.73  69 2.79  57 2.82  38 2.83
  71  0.783  0.620  0.045-  50 2.36  54 2.46  69 2.47  46 2.55  40 2.60  76 2.70  34 2.72  63 2.75
                            36 3.06
  72  0.298  0.624  0.049-  58 2.42  74 2.44  73 2.50  47 2.60  36 2.68  35 2.69  56 2.69  46 2.80
                            53 2.84
  73  0.386  0.717  0.131-  46 2.40  53 2.41  72 2.50  26 2.52  79 2.55  78 2.57  54 2.58  38 2.58
                            58 2.63  24 2.74  51 2.76  74 2.90
  74  0.388  0.454  0.132-  47 2.30  72 2.44  68 2.48  56 2.49  26 2.50  37 2.55  64 2.62  51 2.68
                            58 2.68  57 2.83  73 2.90  21 3.04
  75  0.792  0.386  0.319-  65 2.56  67 2.58   9 2.63  15 2.64   7 2.66  32 2.67  29 2.68  39 2.68
                            44 2.71  18 2.76  22 2.81  60 2.83
  76  0.786  0.375  0.044-  51 2.43  41 2.44  69 2.47  40 2.47  56 2.65  62 2.69  46 2.70  71 2.70
                            23 2.70
  77  0.951  0.066  0.221-  41 2.46  66 2.52  60 2.53  22 2.54  24 2.57  67 2.58   2 2.60  65 2.61
                            59 2.81  55 2.91  79 3.04  28 3.16
  78  0.464  0.795  0.226-  61 2.47  80 2.52  38 2.52  55 2.53  52 2.55  79 2.57  73 2.57  54 2.57
                            44 2.62  32 2.67  49 2.67  26 2.74
  79  0.231  0.796  0.226-  52 2.45  58 2.47  55 2.51  24 2.51  30 2.53   2 2.55  73 2.55  78 2.57
                            26 2.63  77 3.04  28 3.16
  80  0.461  0.024  0.225-  38 2.46  48 2.48  61 2.48  78 2.52  55 2.53  19 2.53  57 2.57  43 2.58
                            49 2.66  31 2.84  59 2.86
  81  0.377  0.586  0.455-  14 1.64  25 1.64
 
  LATTYP: Found a hexagonal cell.
 ALAT       =    11.0600004197
 C/A-ratio  =     1.9891500149
  
  Lattice vectors:
  
 A1 = (   5.5300002098,  -9.5782413293,   0.0000000000)
 A2 = ( -11.0600004196,   0.0000000000,   0.0000000000)
 A3 = (   0.0000000000,   0.0000000000, -22.0000000000)


Analysis of symmetry for initial positions (statically):
=====================================================================
 Subroutine PRICEL returns:
 Original cell was already a primitive cell.
 

 Routine SETGRP: Setting up the symmetry group for a 
 hexagonal supercell.


 Subroutine GETGRP returns: Found  1 space group operations
 (whereof  1 operations were pure point group operations)
 out of a pool of 24 trial point group operations.


The static configuration has the point symmetry C_1 .


Analysis of symmetry for dynamics (positions and initial velocities):
=====================================================================
 Subroutine PRICEL returns:
 Original cell was already a primitive cell.
 

 Routine SETGRP: Setting up the symmetry group for a 
 hexagonal supercell.


 Subroutine GETGRP returns: Found  1 space group operations
 (whereof  1 operations were pure point group operations)
 out of a pool of 24 trial point group operations.


The dynamic configuration has the point symmetry C_1 .


Analysis of constrained symmetry for selective dynamics:
=====================================================================
 Subroutine PRICEL returns:
 Original cell was already a primitive cell.
 

 Routine SETGRP: Setting up the symmetry group for a 
 hexagonal supercell.


 Subroutine GETGRP returns: Found  1 space group operations
 (whereof  1 operations were pure point group operations)
 out of a pool of 24 trial point group operations.


The constrained configuration has the point symmetry C_1 .


Analysis of structural, dynamic, and magnetic symmetry:
=====================================================================
 Subroutine PRICEL returns:
 Original cell was already a primitive cell.
 

 Routine SETGRP: Setting up the symmetry group for a 
 hexagonal supercell.


 Subroutine GETGRP returns: Found  1 space group operations
 (whereof  1 operations were pure point group operations)
 out of a pool of 24 trial point group operations.


The magnetic configuration has the point symmetry C_1 .


 Subroutine INISYM returns: Found  1 space group operations
 (whereof  1 operations are pure point group operations),
 and found     1 'primitive' translations

 
 
 KPOINTS: mesh auto                               

Automatic generation of k-mesh.
Space group operators:
 irot       det(A)        alpha          n_x          n_y          n_z        tau_x        tau_y        tau_z
    1     1.000000     0.000000     1.000000     0.000000     0.000000     0.000000     0.000000     0.000000
 
 Subroutine IBZKPT returns following result:
 ===========================================
 
 Found      4 irreducible k-points:
 
 Following reciprocal coordinates:
            Coordinates               Weight
  0.000000  0.000000  0.000000      1.000000
  0.500000  0.000000  0.000000      1.000000
  0.000000  0.500000  0.000000      1.000000
  0.500000  0.500000  0.000000      1.000000
 
 Following cartesian coordinates:
            Coordinates               Weight
  0.000000  0.000000  0.000000      1.000000
  0.045208 -0.026101  0.000000      1.000000
  0.000000  0.052202  0.000000      1.000000
  0.045208  0.026101  0.000000      1.000000
 


--------------------------------------------------------------------------------------------------------




 Dimension of arrays:
   k-points           NKPTS =      4   k-points in BZ     NKDIM =      4   number of bands    NBANDS=    588
   number of dos      NEDOS =    301   number of ions     NIONS =     81
   non local maximal  LDIM  =      6   non local SUM 2l+1 LMDIM =     18
   total plane-waves  NPLWV = ******
   max r-space proj   IRMAX =   8163   max aug-charges    IRDMAX=  35560
   dimension x,y,z NGX =    90 NGY =   90 NGZ =  168
   dimension x,y,z NGXF=   180 NGYF=  180 NGZF=  336
   support grid    NGXF=   180 NGYF=  180 NGZF=  336
   ions per type =              32  13  10  13  12   1
   NGX,Y,Z   is equivalent  to a cutoff of  13.53, 13.53, 12.70 a.u.
   NGXF,Y,Z  is equivalent  to a cutoff of  27.06, 27.06, 25.39 a.u.

 SYSTEM =  Pt111                                   
 POSCAR =  11.06                                   

 Startparameter for this run:
   NWRITE =      2    write-flag & timer
   PREC   = accura    normal or accurate (medium, high low for compatibility)
   ISTART =      0    job   : 0-new  1-cont  2-samecut
   ICHARG =      2    charge: 1-file 2-atom 10-const
   ISPIN  =      2    spin polarized calculation?
   LNONCOLLINEAR =      F non collinear calculations
   LSORBIT =      F    spin-orbit coupling
   INIWAV =      1    electr: 0-lowe 1-rand  2-diag
   LASPH  =      F    aspherical Exc in radial PAW
   METAGGA=      F    non-selfconsistent MetaGGA calc.

 Electronic Relaxation 1
   ENCUT  =  550.0 eV  40.42 Ry    6.36 a.u.  21.15 21.15 42.07*2*pi/ulx,y,z
   ENINI  =  550.0     initial cutoff
   ENAUG  =  587.0 eV  augmentation charge cutoff
   NELM   =    200;   NELMIN=  2; NELMDL= -5     # of ELM steps 
   EDIFF  = 0.1E-04   stopping-criterion for ELM
   LREAL  =      T    real-space projection
   NLSPLINE    = F    spline interpolate recip. space projectors
   LCOMPAT=      F    compatible to vasp.4.4
   GGA_COMPAT  = T    GGA compatible to vasp.4.4-vasp.4.6
   LMAXPAW     = -100 max onsite density
   LMAXMIX     =    2 max onsite mixed and CHGCAR
   VOSKOWN=      0    Vosko Wilk Nusair interpolation
   ROPT   =   -0.00025  -0.00025  -0.00025  -0.00025
   ROPT   =   -0.00025  -0.00025
 Ionic relaxation
   EDIFFG = -.5E-01   stopping-criterion for IOM
   NSW    =    300    number of steps for IOM
   NBLOCK =      1;   KBLOCK =    300    inner block; outer block 
   IBRION =      2    ionic relax: 0-MD 1-quasi-New 2-CG
   NFREE  =      1    steps in history (QN), initial steepest desc. (CG)
   ISIF   =      2    stress and relaxation
   IWAVPR =     11    prediction:  0-non 1-charg 2-wave 3-comb
   ISYM   =      2    0-nonsym 1-usesym 2-fastsym
   LCORR  =      T    Harris-Foulkes like correction to forces

   POTIM  = 0.5000    time-step for ionic-motion
   TEIN   =    0.0    initial temperature
   TEBEG  =    0.0;   TEEND  =   0.0 temperature during run
   SMASS  =  -3.00    Nose mass-parameter (am)
   estimated Nose-frequenzy (Omega)   =  0.10E-29 period in steps =****** mass=  -0.280E-26a.u.
   SCALEE = 1.0000    scale energy and forces
   NPACO  =    256;   APACO  = 16.0  distance and # of slots for P.C.
   PSTRESS=    0.0 pullay stress

  Mass of Ions in am
   POMASS = 195.08 55.85 58.93 63.55 58.69  1.00
  Ionic Valenz
   ZVAL   =  10.00  8.00  9.00 11.00 10.00  1.00
  Atomic Wigner-Seitz radii
   RWIGS  =  -1.00 -1.00 -1.00 -1.00 -1.00 -1.00
  virtual crystal weights 
   VCA    =   1.00  1.00  1.00  1.00  1.00  1.00
   NELECT =     778.0000    total number of electrons
   NUPDOWN=      -1.0000    fix difference up-down

 DOS related values:
   EMIN   =  10.00;   EMAX   =-10.00  energy-range for DOS
   EFERMI =   0.00
   ISMEAR =     1;   SIGMA  =   0.10  broadening in eV -4-tet -1-fermi 0-gaus

 Electronic relaxation 2 (details)
   IALGO  =     68    algorithm
   LDIAG  =      T    sub-space diagonalisation (order eigenvalues)
   LSUBROT=      F    optimize rotation matrix (better conditioning)
   TURBO    =      0    0=normal 1=particle mesh
   IRESTART =      0    0=no restart 2=restart with 2 vectors
   NREBOOT  =      0    no. of reboots
   NMIN     =      0    reboot dimension
   EREF     =   0.00    reference energy to select bands
   IMIX   =      4    mixing-type and parameters
     AMIX     =   0.40;   BMIX     =  1.00
     AMIX_MAG =   1.60;   BMIX_MAG =  1.00
     AMIN     =   0.10
     WC   =   100.;   INIMIX=   1;  MIXPRE=   1;  MAXMIX= -45

 Intra band minimization:
   WEIMIN = 0.0010     energy-eigenvalue tresh-hold
   EBREAK =  0.43E-08  absolut break condition
   DEPER  =   0.30     relativ break condition  

   TIME   =   0.40     timestep for ELM

  volume/ion in A,a.u.               =      28.77       194.17
  Fermi-wavevector in a.u.,A,eV,Ry     =   1.135656  2.146079 17.547634  1.289715
  Thomas-Fermi vector in A             =   2.272361
 
 Write flags
   LWAVE        =      F    write WAVECAR
   LDOWNSAMPLE  =      F    k-point downsampling of WAVECAR
   LCHARG       =      F    write CHGCAR
   LVTOT        =      F    write LOCPOT, total local potential
   LVHAR        =      F    write LOCPOT, Hartree potential only
   LELF         =      F    write electronic localiz. function (ELF)
   LORBIT       =      0    0 simple, 1 ext, 2 COOP (PROOUT), +10 PAW based schemes


 Dipole corrections
   LMONO  =      F    monopole corrections only (constant potential shift)
   LDIPOL =      F    correct potential (dipole corrections)
   IDIPOL =      0    1-x, 2-y, 3-z, 4-all directions 
   EPSILON=  1.0000000 bulk dielectric constant

 Exchange correlation treatment:
   GGA     =    --    GGA type
   LEXCH   =     8    internal setting for exchange type
   VOSKOWN=      0    Vosko Wilk Nusair interpolation
   LHFCALC =     F    Hartree Fock is set to
   LHFONE  =     F    Hartree Fock one center treatment
   AEXX    =    0.0000 exact exchange contribution

 Linear response parameters
   LEPSILON=     F    determine dielectric tensor
   LRPA    =     F    only Hartree local field effects (RPA)
   LNABLA  =     F    use nabla operator in PAW spheres
   LVEL    =     F    velocity operator in full k-point grid
   LINTERFAST=   F  fast interpolation
   KINTER  =     0    interpolate to denser k-point grid
   CSHIFT  =0.1000    complex shift for real part using Kramers Kronig
   OMEGAMAX=  -1.0    maximum frequency
   DEG_THRESHOLD= 0.2000000E-02 threshold for treating states as degnerate
   RTIME   =   -0.100 relaxation time in fs
  (WPLASMAI=    0.000 imaginary part of plasma frequency in eV, 0.658/RTIME)
   DFIELD  = 0.0000000 0.0000000 0.0000000 field for delta impulse in time
 
 Orbital magnetization related:
   ORBITALMAG=     F  switch on orbital magnetization
   LCHIMAG   =     F  perturbation theory with respect to B field
   DQ        =  0.001000  dq finite difference perturbation B field
   LLRAUG    =     F  two centre corrections for induced B field



--------------------------------------------------------------------------------------------------------


 conjugate gradient relaxation of ions
   using selective dynamics as specified on POSCAR
 charge density and potential will be updated during run
 spin polarized calculation
 RMM-DIIS sequential band-by-band and
  variant of blocked Davidson during initial phase
 perform sub-space diagonalisation
    before iterative eigenvector-optimisation
 modified Broyden-mixing scheme, WC =      100.0
 initial mixing is a Kerker type mixing with AMIX =  0.4000 and BMIX =      1.0000
 Hartree-type preconditioning will be used
 using additional bands          199
 real space projection scheme for non local part
 use partial core corrections
 calculate Harris-corrections to forces 
   (improved forces if not selfconsistent)
 use gradient corrections 
 use of overlap-Matrix (Vanderbilt PP)
 Methfessel and Paxton  Order N= 1 SIGMA  =   0.10


--------------------------------------------------------------------------------------------------------


  energy-cutoff  :      550.00
  volume of cell :     2330.58
      direct lattice vectors                 reciprocal lattice vectors
    11.060000420  0.000000000  0.000000000     0.090415910 -0.052201650  0.000000000
     5.530000210  9.578241329  0.000000000     0.000000000  0.104403300  0.000000000
     0.000000000  0.000000000 22.000000000     0.000000000  0.000000000  0.045454545

  length of vectors
    11.060000420 11.060000420 22.000000000     0.104403300  0.104403300  0.045454545


 
 k-points in units of 2pi/SCALE and weight: mesh auto                               
   0.00000000  0.00000000  0.00000000       0.250
   0.04520795 -0.02610082  0.00000000       0.250
   0.00000000  0.05220165  0.00000000       0.250
   0.04520795  0.02610082  0.00000000       0.250
 
 k-points in reciprocal lattice and weights: mesh auto                               
   0.00000000  0.00000000  0.00000000       0.250
   0.50000000  0.00000000  0.00000000       0.250
   0.00000000  0.50000000  0.00000000       0.250
   0.50000000  0.50000000  0.00000000       0.250
 
 position of ions in fractional coordinates (direct lattice) 
   0.78823787  0.88021057  0.31082543
   0.04389558  0.88029656  0.30761130
   0.27979023  0.37779810  0.31482156
   0.87114770  0.96541387  0.41451940
   0.11792891  0.46563769  0.41727737
   0.12841254  0.96231874  0.41353778
   0.87772827  0.45656902  0.41844822
   0.37538483  0.95915941  0.41373714
   0.87179380  0.21414066  0.41170303
   0.12846683  0.21248764  0.41461771
   0.62614745  0.95818746  0.41432624
   0.87352906  0.71084715  0.41736755
   0.37755671  0.20630205  0.41598139
   0.37978235  0.70968898  0.41492878
   0.62867171  0.46247685  0.41537986
   0.12750990  0.70609948  0.41818349
   0.62603984  0.20956049  0.41342044
   0.54715165  0.37761779  0.31456276
   0.53472600  0.12539112  0.31101520
   0.55179070  0.12374142  0.05223803
   0.11664031  0.44783054  0.12690504
   0.04787782  0.13464427  0.31152799
   0.03186342  0.13215323  0.03914365
   0.13229023  0.95742467  0.13574991
   0.37377339  0.45967104  0.41651101
   0.45833023  0.55057366  0.21962299
   0.62250152  0.71171548  0.41597180
   0.95473106  0.77905270  0.21531405
   0.79958983  0.62379471  0.31667926
   0.28754808  0.63024090  0.31404731
   0.19730386  0.27376709  0.22569465
   0.70394404  0.55368540  0.22172522
   0.04073959  0.63453593  0.31905658
   0.79426676  0.85995412  0.05534962
   0.05040034  0.86281033  0.04849241
   0.04583922  0.64588455  0.05316479
   0.62748553  0.23380425  0.13407091
   0.38303549  0.95218749  0.13425721
   0.03536923  0.38390537  0.32067909
   0.00878266  0.37630951  0.04359329
   0.86822399  0.21988956  0.13207131
   0.95768743  0.53847804  0.22346892
   0.30053419  0.11441981  0.31878314
   0.54250627  0.62627965  0.31978096
   0.29115016  0.11224154  0.04942744
   0.55011489  0.62555697  0.04882647
   0.30851450  0.38355964  0.05056246
   0.62453420  0.94332048  0.13749178
   0.70748620  0.78937003  0.22081801
   0.85712416  0.68932342  0.13253871
   0.62777237  0.45999968  0.13033077
   0.29858029  0.87289682  0.31743685
   0.30521974  0.87703315  0.04638098
   0.61823189  0.71917785  0.13087512
   0.23341642  0.02203156  0.22829392
   0.54221244  0.38306195  0.04085355
   0.37543997  0.20459316  0.13860528
   0.15586478  0.70436301  0.14002149
   0.70209783  0.05654741  0.21991291
   0.79408081  0.12858592  0.31334770
   0.54245972  0.87120368  0.31603904
   0.78970655  0.12944214  0.04180567
   0.54410433  0.87755340  0.04232343
   0.20842910  0.53574741  0.22172336
   0.94628336  0.30393848  0.22360982
   0.86905633  0.97705001  0.13425761
   0.71711062  0.29698767  0.22578458
   0.45638208  0.29767019  0.22194754
   0.86935297  0.45437442  0.13113085
   0.12200307  0.20180872  0.13240107
   0.78290196  0.62028376  0.04517290
   0.29789721  0.62412549  0.04942260
   0.38609046  0.71740367  0.13123061
   0.38842403  0.45385939  0.13216076
   0.79208630  0.38558873  0.31865016
   0.78618513  0.37451175  0.04413402
   0.95135446  0.06593013  0.22138172
   0.46359829  0.79518871  0.22640819
   0.23108351  0.79634638  0.22553160
   0.46122434  0.02412498  0.22485055
   0.37677210  0.58568865  0.45471972
 
 position of ions in cartesian coordinates  (Angst):
  13.58547585  8.43086928  6.83815945
   5.35352534  8.43169288  6.76744860
   5.18370357  3.61864136  6.92607443
  14.97363283  9.24696699  9.11942686
   3.87927025  4.45999015  9.18010220
   6.74186558  9.21732113  9.09783121
  12.23250185  4.37312826  9.20586093
   9.45590812  9.18706031  9.10221703
  10.82623772  2.05109095  9.05746655
   2.59589984  2.03525791  9.12158967
  12.22396787  9.17775073  9.11517722
  13.59221661  6.80866552  9.18208611
   5.31662774  1.97601082  9.15159060
   8.12497314  6.79757228  9.12843322
   9.51060649  4.42971492  9.13835689
   5.31498981  6.76319119  9.20003669
   8.08287052  2.00722099  9.09524965
   8.13972397  3.61691428  6.92038081
   6.60748268  1.20102645  6.84233432
   6.78709547  1.18522515  1.14923670
   3.76654481  4.28942896  2.79191094
   1.27411150  1.28965530  6.85361575
   1.08321683  1.26579552  0.86116039
   6.75768865  9.17044452  2.98649792
   6.67591482  4.40284011  9.16324233
   8.11380504  5.27352740  4.83170574
  10.82065384  6.81698261  9.15137963
  14.86748747  7.46195479  4.73690904
  12.29304874  5.97485626  6.96694371
   6.66551417  6.03659947  6.90904082
   3.69611280  2.62220721  4.96528240
  10.84750176  5.30333240  4.87795483
   3.95956367  6.07773829  7.01924472
  13.54013713  8.23684812  1.21769172
   5.32876904  8.26420554  1.06683310
   4.07872348  6.18643805  1.16962540
   8.23292784  2.23943355  2.94956001
   9.50196967  9.12028159  2.95365854
   2.51418044  3.67713827  7.05493999
   2.17812787  3.60438329  0.95905241
  10.81854706  2.10615528  2.90556873
  13.56980708  5.15767259  4.91631614
   3.95664978  1.09594054  7.01322915
   9.46344615  5.99865759  7.03518101
   3.84081665  1.07507655  1.08740358
   9.54360111  5.99173566  1.07418236
   5.53325542  3.67382684  1.11237413
  12.12391093  9.03535119  3.02481924
  12.19001410  7.56077667  4.85799630
  13.29175221  6.60250608  2.91585159
   9.48696101  4.40598797  2.86727693
   8.12941769  8.36081641  6.98361062
   8.22572396  8.40043513  1.02038156
  10.81469861  6.88845902  2.87925273
   2.70342022  0.21102363  5.02246627
   8.11520240  3.66905975  0.89877812
   5.28376640  1.95964267  3.04931611
   5.61899210  6.74655889  3.08047284
   8.07790953  0.54162477  4.83808406
   9.49361429  1.23162695  6.89364951
  10.81736124  8.34459911  6.95285895
   9.44996985  1.23982809  0.91972464
  10.87066461  8.40541820  0.93111538
   5.26790923  5.13151797  4.87791390
  12.14667424  2.91119613  4.91941612
  15.01485015  9.35842080  2.95366751
   9.57358561  2.84461955  4.96726068
   6.69370223  2.85115693  4.88284582
  12.12773486  4.35210787  2.88487863
   2.46535630  1.93297263  2.91282356
  12.08906533  5.94122750  0.99380383
   6.74615738  5.97802458  1.08729710
   8.23740307  6.87146547  2.88707340
   6.80581242  4.34717479  2.90753677
  10.89278053  3.69326187  7.01030362
  10.76625790  3.58716396  0.97094843
  10.88657438  0.63149474  4.87039779
   9.52479099  7.61650941  4.98098015
   6.95957939  7.62759781  4.96169511
   5.23455253  0.23107491  4.94671213
   7.40595801  5.60986727 10.00383375
 


--------------------------------------------------------------------------------------------------------


 k-point  1 :   0.0000 0.0000 0.0000  plane waves:   68137
 k-point  2 :   0.5000 0.0000 0.0000  plane waves:   68322
 k-point  3 :   0.0000 0.5000 0.0000  plane waves:   68322
 k-point  4 :   0.5000 0.5000 0.0000  plane waves:   68322

 maximum and minimum number of plane-waves per node :     17102    17020

 maximum number of plane-waves:     68322
 maximum index in each direction: 
   IXMAX=   21   IYMAX=   21   IZMAX=   42
   IXMIN=  -21   IYMIN=  -21   IZMIN=  -42


 real space projection operators:
  total allocation   :      81433.40 KBytes
  max/ min on nodes  :      20824.26      19899.30


 parallel 3D FFT for wavefunctions:
    minimum data exchange during FFTs selected (reduces bandwidth)
 parallel 3D FFT for charge:
    minimum data exchange during FFTs selected (reduces bandwidth)


 total amount of memory used by VASP MPI-rank0   250371. kBytes
=======================================================================

   base      :      30000. kBytes
   nonlr-proj:      36797. kBytes
   fftplans  :      18292. kBytes
   grid      :      55120. kBytes
   one-center:        653. kBytes
   wavefun   :     109509. kBytes
 
     INWAV:  cpu time    0.0000: real time    0.0000
 Broyden mixing: mesh for mixing (old mesh)
   NGX = 43   NGY = 43   NGZ = 85
  (NGX  =180   NGY  =180   NGZ  =336)
  gives a total of 157165 points

 initial charge density was supplied:
 charge density of overlapping atoms calculated
 number of electron     778.0000000 magnetization     231.0000000
 keeping initial charge density in first step


--------------------------------------------------------------------------------------------------------


 Maximum index for non-local projection operator         2181
 Maximum index for augmentation-charges         1135 (set IRDMAX)


--------------------------------------------------------------------------------------------------------


 First call to EWALD:  gamma=   0.134
 Maximum number of real-space cells 4x 4x 2
 Maximum number of reciprocal cells 2x 2x 4

    FEWALD:  cpu time    0.0048: real time    0.0048


--------------------------------------- Iteration      1(   1)  ---------------------------------------


    POTLOK:  cpu time    0.4859: real time    0.4888
    SETDIJ:  cpu time    0.0380: real time    0.0405
     EDDAV:  cpu time   70.6075: real time   70.8083
       DOS:  cpu time    0.0025: real time    0.0865
    --------------------------------------------
      LOOP:  cpu time   71.1338: real time   71.4241

 eigenvalue-minimisations  :  9408
 total energy-change (2. order) : 0.7615967E+04  (-0.3282006E+05)
 number of electron     778.0000000 magnetization     231.0000000
 augmentation part      778.0000000 magnetization     231.0000000

 Free energy of the ion-electron system (eV)
  ---------------------------------------------------
  alpha Z        PSCENC =      2041.10282521
  Ewald energy   TEWEN  =    220735.72185577
  -Hartree energ DENC   =   -292405.88183910
  -exchange      EXHF   =         0.00000000
  -V(xc)+E(xc)   XCENC  =      1374.50958599
  PAW double counting   =     64136.80006862   -66038.70876209
  entropy T*S    EENTRO =        -0.00317392
  eigenvalues    EBANDS =      7553.77184329
  atomic energy  EATOM  =     70218.65458108
  Solvation  Ediel_sol  =         0.00000000
  ---------------------------------------------------
  free energy    TOTEN  =      7615.96698485 eV

  energy without entropy =     7615.97015877  energy(sigma->0) =     7615.96804283


--------------------------------------------------------------------------------------------------------




--------------------------------------- Iteration      1(   2)  ---------------------------------------


     EDDAV:  cpu time   70.1759: real time   70.3845
       DOS:  cpu time    0.0027: real time    0.0108
    --------------------------------------------
      LOOP:  cpu time   70.1787: real time   70.3953

 eigenvalue-minimisations  :  9408
 total energy-change (2. order) :-0.6853888E+04  (-0.6148654E+04)
 number of electron     778.0000000 magnetization     231.0000000
 augmentation part      778.0000000 magnetization     231.0000000

 Free energy of the ion-electron system (eV)
  ---------------------------------------------------
  alpha Z        PSCENC =      2041.10282521
  Ewald energy   TEWEN  =    220735.72185577
  -Hartree energ DENC   =   -292405.88183910
  -exchange      EXHF   =         0.00000000
  -V(xc)+E(xc)   XCENC  =      1374.50958599
  PAW double counting   =     64136.80006862   -66038.70876209
  entropy T*S    EENTRO =         0.00215747
  eigenvalues    EBANDS =       699.87824308
  atomic energy  EATOM  =     70218.65458108
  Solvation  Ediel_sol  =         0.00000000
  ---------------------------------------------------
  free energy    TOTEN  =       762.07871603 eV

  energy without entropy =      762.07655856  energy(sigma->0) =      762.07799687


--------------------------------------------------------------------------------------------------------




--------------------------------------- Iteration      1(   3)  ---------------------------------------


     EDDAV:  cpu time   70.1191: real time   70.3255
       DOS:  cpu time    0.0030: real time    0.0070
    --------------------------------------------
      LOOP:  cpu time   70.1221: real time   70.3325

 eigenvalue-minimisations  :  9408
 total energy-change (2. order) :-0.1138791E+04  (-0.9227288E+03)
 number of electron     778.0000000 magnetization     231.0000000
 augmentation part      778.0000000 magnetization     231.0000000

 Free energy of the ion-electron system (eV)
  ---------------------------------------------------
  alpha Z        PSCENC =      2041.10282521
  Ewald energy   TEWEN  =    220735.72185577
  -Hartree energ DENC   =   -292405.88183910
  -exchange      EXHF   =         0.00000000
  -V(xc)+E(xc)   XCENC  =      1374.50958599
  PAW double counting   =     64136.80006862   -66038.70876209
  entropy T*S    EENTRO =         0.00221375
  eigenvalues    EBANDS =      -438.91311564
  atomic energy  EATOM  =     70218.65458108
  Solvation  Ediel_sol  =         0.00000000
  ---------------------------------------------------
  free energy    TOTEN  =      -376.71258641 eV

  energy without entropy =     -376.71480016  energy(sigma->0) =     -376.71332433


--------------------------------------------------------------------------------------------------------




--------------------------------------- Iteration      1(   4)  ---------------------------------------


     EDDAV:  cpu time   84.3023: real time   84.6108
       DOS:  cpu time    0.0032: real time    0.0038
    --------------------------------------------
      LOOP:  cpu time   84.3055: real time   84.6146

 eigenvalue-minimisations  : 11880
 total energy-change (2. order) :-0.1133883E+03  (-0.1031921E+03)
 number of electron     778.0000000 magnetization     231.0000000
 augmentation part      778.0000000 magnetization     231.0000000

 Free energy of the ion-electron system (eV)
  ---------------------------------------------------
  alpha Z        PSCENC =      2041.10282521
  Ewald energy   TEWEN  =    220735.72185577
  -Hartree energ DENC   =   -292405.88183910
  -exchange      EXHF   =         0.00000000
  -V(xc)+E(xc)   XCENC  =      1374.50958599
  PAW double counting   =     64136.80006862   -66038.70876209
  entropy T*S    EENTRO =         0.00215569
  eigenvalues    EBANDS =      -552.30139029
  atomic energy  EATOM  =     70218.65458108
  Solvation  Ediel_sol  =         0.00000000
  ---------------------------------------------------
  free energy    TOTEN  =      -490.10091912 eV

  energy without entropy =     -490.10307481  energy(sigma->0) =     -490.10163769


--------------------------------------------------------------------------------------------------------




--------------------------------------- Iteration      1(   5)  ---------------------------------------


     EDDAV:  cpu time   80.2408: real time   80.5787
       DOS:  cpu time    0.0031: real time    0.0232
    CHARGE:  cpu time    4.6021: real time    4.6535
    MIXING:  cpu time    0.0124: real time    0.0126
    --------------------------------------------
      LOOP:  cpu time   84.8584: real time   85.2680

 eigenvalue-minimisations  : 11208
 total energy-change (2. order) :-0.4416336E+01  (-0.4377065E+01)
 number of electron     778.0000018 magnetization     216.7162562
 augmentation part      335.4516230 magnetization     183.5782995

 Broyden mixing:
  rms(total) = 0.11262E+02    rms(broyden)= 0.11262E+02
  rms(prec ) = 0.11654E+02
  weight for this iteration     100.00

 Free energy of the ion-electron system (eV)
  ---------------------------------------------------
  alpha Z        PSCENC =      2041.10282521
  Ewald energy   TEWEN  =    220735.72185577
  -Hartree energ DENC   =   -292405.88183910
  -exchange      EXHF   =         0.00000000
  -V(xc)+E(xc)   XCENC  =      1374.50958599
  PAW double counting   =     64136.80006862   -66038.70876209
  entropy T*S    EENTRO =         0.00237945
  eigenvalues    EBANDS =      -556.71794994
  atomic energy  EATOM  =     70218.65458108
  Solvation  Ediel_sol  =         0.00000000
  ---------------------------------------------------
  free energy    TOTEN  =      -494.51725502 eV

  energy without entropy =     -494.51963447  energy(sigma->0) =     -494.51804817


--------------------------------------------------------------------------------------------------------




--------------------------------------- Iteration      1(   6)  ---------------------------------------


    POTLOK:  cpu time    0.4640: real time    0.4885
    SETDIJ:  cpu time    0.0358: real time    0.0360
    EDDIAG:  cpu time   12.5841: real time   12.6394
  RMM-DIIS:  cpu time   44.0614: real time   44.2028
    ORTHCH:  cpu time    1.4355: real time    1.4394
       DOS:  cpu time    0.0026: real time    0.0026
    CHARGE:  cpu time    4.4784: real time    4.4906
    MIXING:  cpu time    0.0125: real time    0.0131
    --------------------------------------------
      LOOP:  cpu time   63.0743: real time   63.3125

 eigenvalue-minimisations  :  9694
 total energy-change (2. order) :-0.2696959E+03  (-0.1032638E+03)
 number of electron     778.0000022 magnetization     213.1898491
 augmentation part      407.6419281 magnetization     178.3352434

 Broyden mixing:
  rms(total) = 0.21567E+02    rms(broyden)= 0.21567E+02
  rms(prec ) = 0.28513E+02
  weight for this iteration     100.00

 eigenvalues of (default mixing * dielectric matrix)
  average eigenvalue GAMMA=   0.1887
  0.1887

 Free energy of the ion-electron system (eV)
  ---------------------------------------------------
  alpha Z        PSCENC =      2041.10282521
  Ewald energy   TEWEN  =    220735.72185577
  -Hartree energ DENC   =   -290796.31823587
  -exchange      EXHF   =         0.00000000
  -V(xc)+E(xc)   XCENC  =      1331.99213218
  PAW double counting   =     68418.50865748   -70093.80883225
  entropy T*S    EENTRO =         0.00260628
  eigenvalues    EBANDS =     -2620.06871093
  atomic energy  EATOM  =     70218.65458108
  Solvation  Ediel_sol  =         0.00000000
  ---------------------------------------------------
  free energy    TOTEN  =      -764.21312105 eV

  energy without entropy =     -764.21572733  energy(sigma->0) =     -764.21398981


--------------------------------------------------------------------------------------------------------




--------------------------------------- Iteration      1(   7)  ---------------------------------------


    POTLOK:  cpu time    0.4638: real time    0.4665
    SETDIJ:  cpu time    0.0356: real time    0.0357
    EDDIAG:  cpu time   12.5739: real time   12.6147
  RMM-DIIS:  cpu time   42.8452: real time   43.0259
    ORTHCH:  cpu time    1.4731: real time    1.5447
       DOS:  cpu time    0.0026: real time    0.0026
    CHARGE:  cpu time    4.4359: real time    4.4510
    MIXING:  cpu time    0.0129: real time    0.0129
    --------------------------------------------
      LOOP:  cpu time   61.8429: real time   62.1541

 eigenvalue-minimisations  :  9425
 total energy-change (2. order) : 0.2770131E+03  (-0.1592487E+02)
 number of electron     778.0000021 magnetization     208.4830247
 augmentation part      375.0383149 magnetization     164.9990305

 Broyden mixing:
  rms(total) = 0.14059E+02    rms(broyden)= 0.14058E+02
  rms(prec ) = 0.17906E+02
  weight for this iteration     100.00

 eigenvalues of (default mixing * dielectric matrix)
  average eigenvalue GAMMA=   0.2547
  0.3329  0.1765

 Free energy of the ion-electron system (eV)
  ---------------------------------------------------
  alpha Z        PSCENC =      2041.10282521
  Ewald energy   TEWEN  =    220735.72185577
  -Hartree energ DENC   =   -291444.04715023
  -exchange      EXHF   =         0.00000000
  -V(xc)+E(xc)   XCENC  =      1349.64428108
  PAW double counting   =     69323.76859599   -71146.88997091
  entropy T*S    EENTRO =         0.00389688
  eigenvalues    EBANDS =     -1565.15892968
  atomic energy  EATOM  =     70218.65458108
  Solvation  Ediel_sol  =         0.00000000
  ---------------------------------------------------
  free energy    TOTEN  =      -487.20001481 eV

  energy without entropy =     -487.20391169  energy(sigma->0) =     -487.20131377


--------------------------------------------------------------------------------------------------------




--------------------------------------- Iteration      1(   8)  ---------------------------------------


    POTLOK:  cpu time    0.4659: real time    0.4682
    SETDIJ:  cpu time    0.0362: real time    0.0363
    EDDIAG:  cpu time   12.6184: real time   12.6568
  RMM-DIIS:  cpu time   42.9324: real time   43.0766
    ORTHCH:  cpu time    1.4085: real time    1.4123
       DOS:  cpu time    0.0027: real time    0.0027
    CHARGE:  cpu time    4.3871: real time    4.4022
    MIXING:  cpu time    0.0134: real time    0.0137
    --------------------------------------------
      LOOP:  cpu time   61.8646: real time   62.0688

 eigenvalue-minimisations  :  9436
 total energy-change (2. order) : 0.1957843E+02  (-0.1462742E+02)
 number of electron     778.0000021 magnetization     201.2364614
 augmentation part      375.8579505 magnetization     163.2717953

 Broyden mixing:
  rms(total) = 0.15837E+02    rms(broyden)= 0.15837E+02
  rms(prec ) = 0.18488E+02
  weight for this iteration     100.00

 eigenvalues of (default mixing * dielectric matrix)
  average eigenvalue GAMMA=   0.3138
  0.5859  0.2695  0.0859

 Free energy of the ion-electron system (eV)
  ---------------------------------------------------
  alpha Z        PSCENC =      2041.10282521
  Ewald energy   TEWEN  =    220735.72185577
  -Hartree energ DENC   =   -291645.98366811
  -exchange      EXHF   =         0.00000000
  -V(xc)+E(xc)   XCENC  =      1357.12486740
  PAW double counting   =     70452.07221834   -72354.24981364
  entropy T*S    EENTRO =        -0.00316297
  eigenvalues    EBANDS =     -1272.06128390
  atomic energy  EATOM  =     70218.65458108
  Solvation  Ediel_sol  =         0.00000000
  ---------------------------------------------------
  free energy    TOTEN  =      -467.62158083 eV

  energy without entropy =     -467.61841786  energy(sigma->0) =     -467.62052651


--------------------------------------------------------------------------------------------------------




--------------------------------------- Iteration      1(   9)  ---------------------------------------


    POTLOK:  cpu time    0.4658: real time    0.4683
    SETDIJ:  cpu time    0.0359: real time    0.0360
    EDDIAG:  cpu time   12.5989: real time   12.6371
  RMM-DIIS:  cpu time   43.2934: real time   43.4728
    ORTHCH:  cpu time    1.4175: real time    1.4225
       DOS:  cpu time    0.0029: real time    0.0029
    CHARGE:  cpu time    4.4109: real time    4.4242
    MIXING:  cpu time    0.0131: real time    0.0134
    --------------------------------------------
      LOOP:  cpu time   62.2384: real time   62.4771

 eigenvalue-minimisations  :  9447
 total energy-change (2. order) : 0.5656717E+02  (-0.1638408E+02)
 number of electron     778.0000021 magnetization     193.7776790
 augmentation part      378.7297396 magnetization     146.7025798

 Broyden mixing:
  rms(total) = 0.13488E+02    rms(broyden)= 0.13487E+02
  rms(prec ) = 0.15282E+02
  weight for this iteration     100.00

 eigenvalues of (default mixing * dielectric matrix)
  average eigenvalue GAMMA=   0.3474
  0.8133  0.3544  0.1110  0.1110

 Free energy of the ion-electron system (eV)
  ---------------------------------------------------
  alpha Z        PSCENC =      2041.10282521
  Ewald energy   TEWEN  =    220735.72185577
  -Hartree energ DENC   =   -291457.10861431
  -exchange      EXHF   =         0.00000000
  -V(xc)+E(xc)   XCENC  =      1375.00528163
  PAW double counting   =     71763.36570015   -73723.20366652
  entropy T*S    EENTRO =         0.00384411
  eigenvalues    EBANDS =     -1364.59621350
  atomic energy  EATOM  =     70218.65458108
  Solvation  Ediel_sol  =         0.00000000
  ---------------------------------------------------
  free energy    TOTEN  =      -411.05440639 eV

  energy without entropy =     -411.05825050  energy(sigma->0) =     -411.05568776


--------------------------------------------------------------------------------------------------------




--------------------------------------- Iteration      1(  10)  ---------------------------------------


    POTLOK:  cpu time    0.4559: real time    0.4744
    SETDIJ:  cpu time    0.0355: real time    0.0357
[...]
   -.167E+01 0.438E+02 -.276E+04   0.213E+01 -.433E+02 0.276E+04   -.504E+00 -.469E+00 0.140E+01   0.368E-01 0.315E-02 -.201E-01
   -.259E+02 0.318E+01 -.276E+04   0.249E+02 -.260E+01 0.276E+04   0.998E+00 -.575E+00 0.220E+01   -.791E-02 -.379E-02 -.144E-02
   0.243E+02 -.537E+00 -.276E+04   -.241E+02 0.307E+00 0.275E+04   -.231E+00 0.204E+00 0.187E+01   -.457E-02 0.347E-02 -.528E-01
   -.325E+02 -.112E+02 -.283E+04   0.326E+02 0.103E+02 0.282E+04   -.127E+00 0.938E+00 0.215E+01   0.117E-02 -.154E-01 -.167E-01
   0.116E+02 -.334E+02 -.281E+04   -.123E+02 0.335E+02 0.281E+04   0.705E+00 -.109E+00 0.257E+01   -.129E-01 0.276E-01 -.478E-01
   -.312E+02 0.337E+02 -.280E+04   0.305E+02 -.333E+02 0.280E+04   0.619E+00 -.339E+00 0.178E+01   0.141E-01 -.195E-01 -.240E-01
   -.364E+01 0.183E+01 -.277E+04   0.443E+01 -.151E+01 0.277E+04   -.750E+00 -.276E+00 0.246E+01   -.130E-01 -.283E-01 -.229E-01
   -.317E+02 -.117E+02 -.280E+04   0.318E+02 0.112E+02 0.280E+04   -.110E+00 0.460E+00 0.155E+01   -.744E-02 0.112E-02 -.939E-02
   -.249E+02 -.957E+01 -.277E+04   0.250E+02 0.933E+01 0.277E+04   -.727E-01 0.252E+00 0.193E+01   0.569E-02 -.665E-02 0.128E-03
   0.358E+01 -.301E+02 -.278E+04   -.358E+01 0.297E+02 0.278E+04   0.402E-01 0.426E+00 0.187E+01   -.405E-01 -.311E-01 -.158E-01
   0.391E+02 0.457E+01 -.279E+04   -.383E+02 -.439E+01 0.279E+04   -.891E+00 -.225E+00 0.107E+01   -.158E-01 0.208E-01 -.466E-01
   0.467E+02 -.293E+01 -.280E+04   -.450E+02 0.304E+01 0.280E+04   -.173E+01 -.718E-01 0.262E+01   0.131E-02 -.428E-02 -.142E-01
   -.242E+01 -.460E+01 -.274E+04   0.129E+01 0.449E+01 0.274E+04   0.113E+01 0.688E-01 0.212E+01   0.202E-01 0.320E-01 -.264E-01
   0.303E+02 -.835E+01 -.279E+04   -.303E+02 0.829E+01 0.279E+04   -.865E-01 0.694E-01 0.196E+01   0.287E-01 -.241E-01 -.405E-02
   0.791E+02 -.564E+02 -.148E+04   -.780E+02 0.568E+02 0.148E+04   -.106E+01 -.322E+00 0.146E+01   0.203E-01 -.107E-01 -.332E-01
   0.185E+02 -.385E+02 -.142E+04   -.197E+02 0.382E+02 0.141E+04   0.115E+01 0.325E+00 0.238E+01   -.168E-01 -.166E-01 -.289E-01
   0.595E+02 0.337E+02 0.281E+04   -.592E+02 -.338E+02 -.281E+04   -.356E+00 0.119E+00 -.283E+01   -.332E-02 0.475E-03 0.138E-02
   -.144E+02 -.318E+02 0.164E+04   0.133E+02 0.323E+02 -.164E+04   0.120E+01 -.469E+00 0.133E+01   0.176E-02 0.128E-01 -.135E-01
   -.523E+02 0.220E+02 -.141E+04   0.532E+02 -.215E+02 0.141E+04   -.831E+00 -.476E+00 0.234E+01   -.592E-03 -.185E-01 -.215E-01
   -.708E+02 0.943E+02 0.293E+04   0.714E+02 -.927E+02 -.293E+04   -.499E+00 -.163E+01 -.269E+01   -.138E-01 0.115E-01 -.733E-02
   0.403E+02 -.472E+02 0.151E+04   -.400E+02 0.466E+02 -.151E+04   -.309E+00 0.597E+00 -.718E+00   -.161E-01 0.374E-02 0.318E-01
   0.210E+02 0.152E+02 -.276E+04   -.211E+02 -.148E+02 0.276E+04   0.998E-01 -.373E+00 -.572E-01   -.554E-02 0.111E-01 -.822E-02
   0.125E+02 0.119E+02 -.808E+01   -.124E+02 -.116E+02 0.718E+01   -.200E+00 -.399E+00 0.921E+00   0.405E-02 0.979E-02 -.573E-02
   -.241E+02 0.141E+02 -.281E+04   0.237E+02 -.140E+02 0.281E+04   0.464E+00 -.900E-01 0.216E+01   -.615E-03 0.145E-01 -.102E-01
   -.107E+02 0.294E+02 0.146E+03   0.954E+01 -.310E+02 -.146E+03   0.123E+01 0.162E+01 -.227E+00   -.503E-02 0.402E-02 -.165E-01
   -.739E+02 -.298E+01 -.143E+04   0.746E+02 0.185E+01 0.142E+04   -.698E+00 0.120E+01 0.268E+01   0.112E-01 -.745E-02 -.392E-01
   0.484E+02 0.319E+02 -.146E+04   -.483E+02 -.310E+02 0.146E+04   -.193E+00 -.844E+00 0.218E+01   0.445E-02 0.400E-01 -.198E-01
   -.225E+02 -.755E+02 -.490E+02   0.215E+02 0.751E+02 0.492E+02   0.113E+01 0.488E+00 -.215E+00   -.807E-02 -.211E-01 0.671E-02
   -.319E+02 -.228E+02 -.722E+01   0.325E+02 0.235E+02 0.682E+01   -.575E+00 -.706E+00 0.412E+00   0.111E-01 0.248E-02 -.973E-02
   0.110E+02 0.500E+01 -.113E+04   -.109E+02 -.522E+01 0.113E+04   -.690E-01 0.312E+00 0.165E+00   0.224E-02 0.102E-01 -.254E-01
   -.852E+02 0.573E+01 0.225E+04   0.856E+02 -.691E+01 -.224E+04   -.463E+00 0.124E+01 -.285E+01   -.409E-02 -.961E-02 0.110E-01
   0.367E+02 -.118E+02 0.231E+04   -.371E+02 0.995E+01 -.230E+04   0.545E+00 0.195E+01 -.303E+01   -.164E-01 -.303E-02 0.181E-02
   0.595E+02 0.347E+02 0.225E+04   -.589E+02 -.330E+02 -.225E+04   -.637E+00 -.172E+01 -.291E+01   -.626E-02 0.348E-03 0.446E-02
   0.479E+02 0.805E+02 0.119E+04   -.469E+02 -.797E+02 -.119E+04   -.969E+00 -.810E+00 -.761E-01   -.979E-03 -.626E-02 -.960E-02
   0.213E+02 -.879E+02 0.121E+04   -.213E+02 0.874E+02 -.121E+04   -.133E+00 0.437E+00 -.544E+00   0.152E-01 0.489E-02 0.223E-01
   -.667E+02 -.215E+02 -.117E+04   0.669E+02 0.217E+02 0.117E+04   -.160E+00 -.180E+00 0.241E+00   -.137E-01 -.173E-01 -.225E-01
   -.200E+03 -.368E+01 0.236E+04   0.197E+03 0.331E+01 -.236E+04   0.213E+01 0.328E+00 -.378E+01   -.275E-02 0.149E-01 -.617E-02
   -.437E+02 0.700E+02 0.123E+04   0.428E+02 -.695E+02 -.123E+04   0.924E+00 -.601E+00 -.517E+00   -.361E-02 -.161E-02 0.546E-03
   -.829E+02 -.842E+01 -.139E+02   0.827E+02 0.876E+01 0.140E+02   0.199E+00 -.410E+00 -.238E+00   -.399E-02 0.107E-01 -.158E-01
   0.152E+02 -.831E+02 -.119E+04   -.153E+02 0.830E+02 0.119E+04   0.121E+00 0.141E+00 0.596E+00   -.240E-01 -.223E-01 -.189E-01
   0.200E+02 0.216E+02 -.120E+04   -.202E+02 -.218E+02 0.120E+04   0.227E+00 0.720E-01 -.170E+00   -.103E-02 0.129E-01 -.224E-01
   -.221E+02 -.106E+03 0.230E+04   0.209E+02 0.104E+03 -.230E+04   0.121E+01 0.210E+01 -.326E+01   0.166E-01 0.138E-01 -.262E-02
   0.306E+02 -.368E+02 0.263E+04   -.304E+02 0.370E+02 -.263E+04   -.209E+00 -.134E+00 -.303E+01   0.236E-01 -.180E-01 -.103E-01
   0.202E+03 0.428E+02 0.261E+04   -.201E+03 -.419E+02 -.261E+04   -.776E+00 -.917E+00 -.315E+01   -.221E-02 0.312E-03 -.557E-02
   -.784E+02 -.580E+02 0.132E+04   0.776E+02 0.570E+02 -.132E+04   0.694E+00 0.111E+01 -.135E+00   0.377E-02 -.152E-01 -.516E-03
   -.991E+02 0.328E+02 0.205E+02   0.992E+02 -.327E+02 -.208E+02   -.543E-01 -.129E+00 0.303E+00   0.236E-02 -.298E-04 -.264E-01
   -.169E+03 -.429E+01 0.135E+04   0.169E+03 0.484E+01 -.135E+04   0.673E-01 -.602E+00 -.122E+00   -.708E-02 0.588E-02 -.494E-02
   -.529E+01 -.126E+02 0.133E+04   0.547E+01 0.122E+02 -.133E+04   -.193E+00 0.463E+00 -.234E+00   0.121E-01 0.551E-02 -.216E-01
   0.515E+02 0.179E+01 -.136E+04   -.514E+02 -.195E+01 0.136E+04   -.142E+00 0.144E+00 0.758E+00   -.153E-01 0.378E-01 -.245E-01
   0.826E+02 -.597E+02 0.264E+04   -.818E+02 0.600E+02 -.264E+04   -.871E+00 -.292E+00 -.332E+01   0.624E-02 -.333E-02 -.356E-02
   -.298E+02 -.188E+01 0.134E+04   0.299E+02 0.222E+01 -.134E+04   -.108E+00 -.363E+00 -.551E+00   0.234E-01 -.181E-02 -.942E-02
   0.459E+02 -.905E+02 -.238E+02   -.451E+02 0.901E+02 0.241E+02   -.825E+00 0.501E+00 -.425E+00   -.483E-02 -.836E-02 0.273E-01
   0.686E+02 0.357E+02 0.328E+04   -.687E+02 -.348E+02 -.328E+04   0.123E+00 -.893E+00 -.424E+01   0.183E-02 0.649E-02 -.839E-02
   0.642E+02 -.127E+02 0.163E+04   -.646E+02 0.121E+02 -.163E+04   0.344E+00 0.625E+00 0.270E-01   0.215E-02 -.325E-02 -.138E-01
   0.185E+03 -.412E+02 0.154E+04   -.185E+03 0.416E+02 -.154E+04   -.209E+00 -.508E+00 -.555E-01   -.218E-01 0.638E-02 -.241E-02
   0.302E+02 0.884E+02 0.122E+03   -.308E+02 -.881E+02 -.122E+03   0.585E+00 -.352E+00 -.128E+00   0.722E-02 -.194E-01 -.186E-01
   0.123E+02 0.720E+02 -.160E+04   -.119E+02 -.720E+02 0.160E+04   -.466E+00 -.590E-01 0.833E+00   0.372E-01 -.102E-01 -.232E-01
   -.510E+02 0.220E+02 -.163E+04   0.503E+02 -.218E+02 0.163E+04   0.892E+00 -.160E+00 0.159E+01   -.314E-01 0.166E-01 -.325E-01
   0.200E+02 0.156E+03 0.322E+04   -.198E+02 -.156E+03 -.321E+04   -.223E+00 -.133E+00 -.362E+01   -.214E-02 -.849E-03 -.299E-02
   -.413E+02 -.960E+02 0.326E+04   0.404E+02 0.960E+02 -.325E+04   0.859E+00 0.324E-01 -.362E+01   0.247E-01 -.150E-01 0.881E-02
   0.131E+03 -.156E+01 0.702E+01   -.131E+03 0.141E+01 -.645E+01   0.279E+00 0.944E-01 -.638E+00   -.126E-01 0.125E-01 -.163E-01
   -.138E+03 -.170E+02 0.837E+01   0.138E+03 0.168E+02 -.809E+01   0.365E+00 0.229E+00 -.342E+00   -.737E-02 -.143E-01 0.197E-01
   0.339E+01 0.140E+03 0.168E+04   -.332E+01 -.139E+03 -.168E+04   -.213E-01 -.101E+01 -.115E+01   -.299E-02 -.133E-01 0.158E-02
   0.451E+02 -.497E+02 -.302E+01   -.447E+02 0.487E+02 0.276E+01   -.558E+00 0.123E+01 0.152E+00   0.250E-01 -.832E-02 0.425E-02
   0.740E+02 -.434E+01 0.328E+01   -.733E+02 0.428E+01 -.285E+01   -.689E+00 0.915E-01 -.345E+00   -.732E-02 -.800E-02 -.212E-01
   -.118E+03 -.104E+02 0.148E+04   0.117E+03 0.107E+02 -.148E+04   0.550E+00 -.217E+00 -.558E+00   -.845E-04 0.241E-01 -.144E-01
   -.550E+02 0.500E+01 0.155E+04   0.555E+02 -.534E+01 -.155E+04   -.442E+00 0.353E+00 -.567E+00   0.477E-02 -.171E-02 0.108E-01
   -.164E+03 -.285E+02 0.296E+04   0.164E+03 0.283E+02 -.296E+04   0.356E-01 0.103E+00 -.264E+01   -.596E-02 0.190E-02 0.759E-02
   0.937E+02 -.662E+02 0.294E+04   -.945E+02 0.666E+02 -.293E+04   0.855E+00 -.316E+00 -.163E+01   -.118E-01 -.193E-01 -.991E-02
   0.283E+02 -.298E+02 0.153E+04   -.279E+02 0.296E+02 -.153E+04   -.369E+00 0.164E+00 0.413E-02   0.113E-01 -.841E-02 0.644E-02
   0.101E+03 0.941E+01 0.148E+04   -.999E+02 -.939E+01 -.148E+04   -.821E+00 0.544E-01 -.597E+00   -.125E-01 -.535E-02 -.231E-01
   -.321E+02 -.452E+02 -.150E+04   0.320E+02 0.454E+02 0.150E+04   0.780E-01 -.182E+00 0.205E+00   0.130E-01 -.249E-01 -.287E-01
   -.473E+02 0.194E+02 0.294E+04   0.477E+02 -.189E+02 -.293E+04   -.415E+00 -.544E+00 -.196E+01   -.270E-02 0.196E-01 -.949E-02
   -.483E+02 0.134E+03 0.798E+02   0.487E+02 -.134E+03 -.795E+02   -.454E+00 -.321E+00 -.469E+00   0.166E-01 -.905E-02 0.132E-01
   -.341E+01 0.539E+02 -.397E+02   0.332E+01 -.532E+02 0.396E+02   0.855E-01 -.850E+00 -.850E-02   -.424E-02 0.272E-01 0.704E-02
   0.119E+03 -.106E+02 -.494E+02   -.119E+03 0.113E+02 0.496E+02   -.425E+00 -.765E+00 -.290E+00   0.227E-02 0.349E-01 0.219E-01
   -.233E+02 -.940E+02 0.186E+02   0.229E+02 0.936E+02 -.186E+02   0.406E+00 0.448E+00 -.715E-01   -.224E-01 -.128E-01 -.450E-02
   -.200E+00 -.106E+01 -.329E+03   0.414E+00 0.122E+01 0.331E+03   -.186E+00 -.186E+00 -.174E+01   -.126E-03 0.117E-02 0.595E-03
 -----------------------------------------------------------------------------------------------
   -.144E+01 0.819E+00 0.608E+01   0.336E-12 -.671E-12 -.138E-10   0.143E+01 -.795E+00 -.520E+01   0.402E-02 -.155E-01 -.856E+00
 
 
 POSITION                                       TOTAL-FORCE (eV/Angst)
 -----------------------------------------------------------------------------------
     13.57593      8.43557      6.83181        -0.010664     -0.002908     -0.005989
      5.35650      8.42872      6.74006         0.004088     -0.001035     -0.007589
      5.19032      3.63285      6.93060         0.008924     -0.010754     -0.013793
     15.03407      9.23745      9.05238        -0.007047      0.009523      0.029701
      3.87139      4.46755      9.17744        -0.016844     -0.006327      0.006504
      6.71038      9.20529      9.05303        -0.003142      0.006025      0.009709
     12.23009      4.36456      9.20806         0.012141     -0.003376     -0.014463
      9.45066      9.18677      9.09858        -0.002863      0.000024     -0.011666
     10.82269      2.02581      9.05729         0.006208     -0.030142      0.001132
      2.60313      2.02987      9.11994         0.003864      0.001636     -0.001981
     12.22598      9.18227      9.10814        -0.003528      0.001098      0.000227
     13.61075      6.82617      9.16901        -0.001299      0.006146      0.002559
      5.32294      1.98388      9.14954        -0.000749     -0.005890      0.009593
      8.13196      6.84584      9.20300        -0.016235      0.011183      0.010622
      9.53963      4.41235      9.13292         0.005689      0.004753      0.002538
      5.26391      6.83728      9.11846         0.001852      0.009547      0.034848
      8.08813      1.98033      9.09348         0.006632      0.000105      0.009962
      8.13686      3.61940      6.93058         0.002266      0.019023     -0.022607
      6.60425      1.21006      6.83989         0.006235     -0.002526     -0.005152
      6.78710      1.18523      1.14924         0.005468     -0.002862     -0.009815
      3.76654      4.28943      2.79191        -0.031251     -0.022780      0.021448
      1.28001      1.29414      6.84928         0.006233     -0.011585      0.005971
      1.08322      1.26580      0.86116        -0.008864     -0.010229     -0.009037
      6.75769      9.17044      2.98650         0.019084     -0.007880      0.013662
      6.64944      4.38791      9.21410         0.013432      0.023335      0.019622
      8.11381      5.27353      4.83171         0.015250     -0.017455      0.040051
     10.84184      6.81353      9.15162         0.004143     -0.000769     -0.000830
     14.86749      7.46195      4.73691         0.005573     -0.004478     -0.022047
     12.29330      5.96723      6.96570         0.004597      0.003350      0.007558
      6.70151      6.04201      6.92255        -0.009445     -0.001654      0.001199
      3.69611      2.62221      4.96528         0.000106      0.006040     -0.054102
     10.84750      5.30333      4.87795        -0.022010      0.011615     -0.004937
      3.95831      6.05730      6.99519        -0.007236      0.011076      0.006733
     13.54014      8.23685      1.21769         0.002169      0.000776      0.013177
      5.32877      8.26421      1.06683         0.004616     -0.011997     -0.020092
      4.07872      6.18644      1.16963         0.010351     -0.006227     -0.004364
      8.23293      2.23943      2.94956         0.001709     -0.002852     -0.001438
      9.50197      9.12028      2.95366        -0.009116      0.007767      0.004050
      2.51768      3.67242      7.05761        -0.002532      0.012477      0.001038
      2.17813      3.60438      0.95905        -0.010879      0.000691     -0.005641
     10.81855      2.10616      2.90557        -0.016526     -0.002211      0.014141
     13.56981      5.15767      4.91632         0.006627     -0.022935     -0.037347
      3.96496      1.10235      7.01413        -0.000768     -0.009034      0.011326
      9.45721      6.00641      7.04784        -0.006679      0.004809      0.000156
      3.84082      1.07508      1.08740        -0.006942      0.001029      0.000864
      9.54360      5.99174      1.07418        -0.010198      0.032170      0.008291
      5.53326      3.67383      1.11237        -0.004266      0.021233      0.001975
     12.12391      9.03535      3.02482         0.006957      0.006378      0.000058
     12.19001      7.56078      4.85800         0.004947     -0.002035     -0.007853
     13.29175      6.60251      2.91585         0.002058      0.003093     -0.001362
      9.48696      4.40599      2.86728        -0.002228      0.012307     -0.001679
      8.12814      8.36816      6.97700         0.017995     -0.021982      0.009340
      8.22572      8.40044      1.02038         0.016004     -0.005337      0.014402
     10.81470      6.88846      2.87925        -0.010177      0.001910     -0.005741
      2.70342      0.21102      5.02247         0.029822     -0.020188     -0.001375
      8.11520      3.66906      0.89878        -0.009135     -0.002335     -0.012565
      5.28377      1.95964      3.04932        -0.003783      0.006886     -0.001067
      5.61899      6.74656      3.08047         0.002638     -0.008665     -0.000208
      8.07791      0.54162      4.83808         0.003363      0.003113     -0.013534
      9.49138      1.24229      6.87811        -0.002194      0.003344      0.005729
     10.81142      8.34120      6.95374         0.004123      0.002734      0.003735
      9.44997      1.23983      0.91972        -0.001559     -0.002575     -0.007924
     10.87066      8.40542      0.93112        -0.022504     -0.011462     -0.006087
      5.26791      5.13152      4.87791         0.038291      0.038951      0.023578
     12.14667      2.91120      4.91942        -0.004287      0.020853     -0.012801
     15.01485      9.35842      2.95367        -0.011755      0.000590      0.009533
      9.57359      2.84462      4.96726        -0.029656      0.021024      0.003074
      6.69370      2.85116      4.88285         0.017338      0.023247      0.011711
     12.12773      4.35211      2.88488        -0.008198      0.006155      0.011021
      2.46536      1.93297      2.91282         0.008127     -0.008071     -0.013419
     12.08907      5.94123      0.99380        -0.009251     -0.016485     -0.003378
      6.74616      5.97802      1.08730         0.007356      0.002892      0.011914
      8.23740      6.87147      2.88707         0.011823     -0.018558     -0.020778
      6.80581      4.34717      2.90754         0.019273      0.013348      0.011788
     10.89134      3.69235      7.00858        -0.006002      0.011385     -0.003738
     10.76626      3.58716      0.97095        -0.006767     -0.009043     -0.003599
     10.88657      0.63149      4.87040        -0.011728     -0.007736     -0.017883
      9.52479      7.61651      4.98098        -0.031428     -0.010394     -0.003819
      6.95958      7.62760      4.96170        -0.005252     -0.028463     -0.001881
      5.23455      0.23107      4.94671         0.007594      0.016825     -0.004454
      7.42027      5.55673     10.21694         0.030024     -0.029238     -0.006510
 -----------------------------------------------------------------------------------
    total drift:                               -0.003652      0.008757      0.025876


--------------------------------------------------------------------------------------------------------



  FREE ENERGIE OF THE ION-ELECTRON SYSTEM (eV)
  ---------------------------------------------------
  free  energy   TOTEN  =      -504.60584868 eV

  energy  without entropy=     -504.62006769  energy(sigma->0) =     -504.61058835
 
 d Force = 0.1653692E-02[ 0.637E-03, 0.267E-02]  d Energy = 0.1641148E-02 0.125E-04
 d Force = 0.2865396E+02[ 0.286E+02, 0.287E+02]  d Ewald  = 0.2865396E+02-0.676E-05


--------------------------------------------------------------------------------------------------------


    POTLOK:  cpu time    0.4983: real time    0.5002


--------------------------------------------------------------------------------------------------------


 Conjugate gradient step on ions:
 trial-energy change:   -0.001641  1 .order   -0.001654   -0.002670   -0.000637
  (g-gl).g = 0.145E-02      g.g   = 0.144E-02  gl.gl    = 0.367E-02
 g(Force)  = 0.144E-02   g(Stress)= 0.000E+00 ortho     =-0.128E-03
 gamma     =   0.39526
 trial     =   1.92738
 opt step  =   2.53193  (harmonic =   2.53193) maximal distance =0.01395059
 next E    =  -504.605961   (d E  =  -0.00175)


--------------------------------------------------------------------------------------------------------


  
 reached required accuracy - stopping structural energy minimisation
     LOOP+:  cpu time  879.8559: real time  886.3375
    4ORBIT:  cpu time    0.0000: real time    0.0000

 total amount of memory used by VASP MPI-rank0   250371. kBytes
=======================================================================

   base      :      30000. kBytes
   nonlr-proj:      36797. kBytes
   fftplans  :      18292. kBytes
   grid      :      55120. kBytes
   one-center:        653. kBytes
   wavefun   :     109509. kBytes
 
  
  
 General timing and accounting informations for this job:
 ========================================================
  
                  Total CPU time used (sec):    17647.885
                            User time (sec):    17136.210
                          System time (sec):      511.674
                         Elapsed time (sec):    17744.272
  
                   Maximum memory used (kb):      407232.
                   Average memory used (kb):           0.
  
                          Minor page faults:     20393400
                          Major page faults:          240
                 Voluntary context switches:         8314
