 vasp.5.4.4.18Apr17-6-g9f103f2a35 (build Nov 30 2020 22:55:02) complex          
  
 executed on             LinuxIFC date 2021.10.25  18:48:28
 running on   40 total cores
 distrk:  each k-point on   40 cores,    1 groups
 distr:  one band on NCORES_PER_BAND=   4 cores,   10 groups


--------------------------------------------------------------------------------------------------------


 INCAR:
 POTCAR:    PAW_PBE Pt 04Feb2005                  
 POTCAR:    PAW_PBE H 15Jun2001                   
 POTCAR:    PAW_PBE Pt 04Feb2005                  
   VRHFIN =Pt: s1d9                                                             
   LEXCH  = PE                                                                  
   EATOM  =   729.1176 eV,   53.5886 Ry                                         
                                                                                
   TITEL  = PAW_PBE Pt 04Feb2005                                                
   LULTRA =        F    use ultrasoft PP ?                                      
   IUNSCR =        1    unscreen: 0-lin 1-nonlin 2-no                           
   RPACOR =    2.330    partial core radius                                     
   POMASS =  195.080; ZVAL   =   10.000    mass and valenz                      
   RCORE  =    2.600    outmost cutoff radius                                   
   RWIGS  =    2.750; RWIGS  =    1.455    wigner-seitz radius (au A)           
   ENMAX  =  230.283; ENMIN  =  172.712 eV                                      
   ICORE  =        3    local potential                                         
   LCOR   =        T    correct aug charges                                     
   LPAW   =        T    paw PP                                                  
   EAUG   =  358.966                                                            
   DEXC   =    0.000                                                            
   RMAX   =    2.658    core radius for proj-oper                               
   RAUG   =    1.300    factor for augmentation sphere                          
   RDEP   =    2.761    radius for radial grids                                 
   RDEPT  =    2.203    core radius for aug-charge                              
                                                                                
   Atomic configuration                                                         
   16 entries                                                                   
     n  l   j            E        occ.                                          
     1  0  0.50    -78401.1885   2.0000                                         
     2  0  0.50    -13770.7750   2.0000                                         
     2  1  1.50    -11931.0468   6.0000                                         
     3  0  0.50     -3234.7234   2.0000                                         
     3  1  1.50     -2699.2216   6.0000                                         
     3  2  2.50     -2119.5714  10.0000                                         
     4  0  0.50      -695.1528   2.0000                                         
     4  1  1.50      -519.6034   6.0000                                         
     4  2  2.50      -306.6786  10.0000                                         
     4  3  3.50       -70.1041  14.0000                                         
     5  0  0.50      -101.7747   2.0000                                         
     5  1  1.50       -55.9873   6.0000                                         
     5  2  2.50        -6.1423   9.0000                                         
     6  0  0.50        -5.6573   1.0000                                         
     6  1  1.50        -6.8029   0.0000                                         
     5  3  2.50        -1.3606   0.0000                                         
   Description                                                                  
     l       E           TYP  RCUT    TYP  RCUT                                 
     2     -6.1423404     23  2.500                                             
     2     -7.5029230     23  2.500                                             
     0     -5.6573207     23  2.500                                             
     0      0.7416693     23  2.500                                             
     1     -2.7211652     23  2.600                                             
     1     20.4087390     23  2.600                                             
     3     -1.3605826     23  2.500                                             
  local pseudopotential read in
  partial core-charges read in
  partial kinetic energy density read in
  atomic valenz-charges read in
  non local Contribution for L=           2  read in
    real space projection operators read in
  non local Contribution for L=           2  read in
    real space projection operators read in
  non local Contribution for L=           0  read in
    real space projection operators read in
  non local Contribution for L=           0  read in
    real space projection operators read in
  non local Contribution for L=           1  read in
    real space projection operators read in
  non local Contribution for L=           1  read in
    real space projection operators read in
    PAW grid and wavefunctions read in
 
   number of l-projection  operators is LMAX  =           6
   number of lm-projection operators is LMMAX =          18
 
 POTCAR:    PAW_PBE H 15Jun2001                   
   VRHFIN =H: ultrasoft test                                                    
   LEXCH  = PE                                                                  
   EATOM  =    12.4884 eV,    0.9179 Ry                                         
                                                                                
   TITEL  = PAW_PBE H 15Jun2001                                                 
   LULTRA =        F    use ultrasoft PP ?                                      
   IUNSCR =        0    unscreen: 0-lin 1-nonlin 2-no                           
   RPACOR =    0.000    partial core radius                                     
   POMASS =    1.000; ZVAL   =    1.000    mass and valenz                      
   RCORE  =    1.100    outmost cutoff radius                                   
   RWIGS  =    0.700; RWIGS  =    0.370    wigner-seitz radius (au A)           
   ENMAX  =  250.000; ENMIN  =  200.000 eV                                      
   RCLOC  =    0.701    cutoff for local pot                                    
   LCOR   =        T    correct aug charges                                     
   LPAW   =        T    paw PP                                                  
   EAUG   =  400.000                                                            
   RMAX   =    1.123    core radius for proj-oper                               
   RAUG   =    1.200    factor for augmentation sphere                          
   RDEP   =    1.112    radius for radial grids                                 
   RDEPT  =    0.926    core radius for aug-charge                              
                                                                                
   Atomic configuration                                                         
    2 entries                                                                   
     n  l   j            E        occ.                                          
     1  0  0.50        -6.4927   1.0000                                         
     2  1  0.50        -3.4015   0.0000                                         
   Description                                                                  
     l       E           TYP  RCUT    TYP  RCUT                                 
     0     -6.4927494     23  1.100                                             
     0      6.8029130     23  1.100                                             
     1     -4.0817478     23  1.100                                             
  local pseudopotential read in
  atomic valenz-charges read in
  non local Contribution for L=           0  read in
    real space projection operators read in
  non local Contribution for L=           0  read in
    real space projection operators read in
  non local Contribution for L=           1  read in
    real space projection operators read in
    PAW grid and wavefunctions read in
 
   number of l-projection  operators is LMAX  =           3
   number of lm-projection operators is LMMAX =           5
 
 Optimization of the real space projectors (new method)

 maximal supplied QI-value         = 14.36
 optimisation between [QCUT,QGAM] = [ 11.92, 23.98] = [ 39.79,161.09] Ry 
 Optimized for a Real-space Cutoff    1.49 Angstroem

   l    n(q)    QCUT    max X(q) W(low)/X(q) W(high)/X(q)  e(spline) 
   2     10    11.920    66.195    0.79E-04    0.18E-03    0.24E-06
   2     10    11.920    64.643    0.81E-04    0.19E-03    0.24E-06
   0     11    11.920    95.520    0.28E-04    0.54E-04    0.18E-06
   0     11    11.920    63.403    0.27E-04    0.52E-04    0.17E-06
   1     10    11.920    19.961    0.18E-04    0.11E-03    0.23E-06
   1     10    11.920    13.289    0.25E-04    0.87E-04    0.19E-06
 Optimization of the real space projectors (new method)

 maximal supplied QI-value         = 34.20
 optimisation between [QCUT,QGAM] = [ 11.97, 23.94] = [ 40.13,160.53] Ry 
 Optimized for a Real-space Cutoff    1.18 Angstroem

   l    n(q)    QCUT    max X(q) W(low)/X(q) W(high)/X(q)  e(spline) 
   0      8    11.971    19.460    0.15E-03    0.31E-03    0.25E-06
   0      8    11.971    12.209    0.13E-03    0.29E-03    0.25E-06
   1      8    11.971     4.655    0.22E-03    0.24E-03    0.21E-06
  PAW_PBE Pt 04Feb2005                  :
 energy of atom  1       EATOM= -729.1176
 kinetic energy error for atom=    0.0021 (will be added to EATOM!!)
  PAW_PBE H 15Jun2001                   :
 energy of atom  2       EATOM=  -12.4884
 kinetic energy error for atom=    0.0008 (will be added to EATOM!!)
 
 
 POSCAR: Pt111                                   
  positions in direct lattice
  velocities in cartesian coordinates
  No initial velocities read in
 exchange correlation table for  LEXCH =        8
   RHO(1)=    0.500       N(1)  =     2000
   RHO(2)=  100.500       N(2)  =     4000
 


--------------------------------------------------------------------------------------------------------


 ion  position               nearest neighbor table
   1  0.785  0.869  0.327-  71 2.74  20 2.74  55 2.74  27 2.79  35 2.79  34 2.79  43 2.81   3 2.81
                            73 2.81   2 2.81  56 2.81  72 2.81
   2  0.035  0.869  0.327-  55 2.73  65 2.74  68 2.74  39 2.77  29 2.78  27 2.80  23 2.80  72 2.81
                            47 2.81   1 2.81  57 2.81   3 2.81
   3  0.035  0.619  0.327-  55 2.74  12 2.74  76 2.74  39 2.77  28 2.79  35 2.80  15 2.80   9 2.80
                            56 2.80   1 2.81  57 2.81   2 2.81
   4  0.787  0.868  0.023-  21 2.78  78 2.78  19 2.79   6 2.80   5 2.80  58 2.80  75 2.80  74 2.80
                            44 2.81
   5  0.037  0.868  0.023-  49 2.78  70 2.79  78 2.79  48 2.80  74 2.80   4 2.80  24 2.81   6 2.81
                            59 2.81
   6  0.037  0.618  0.023-  46 2.78  70 2.79  21 2.79   4 2.80  10 2.80  58 2.80  18 2.80  59 2.81
                             5 2.81
   7  0.619  0.202  0.126-  71 2.73  79 2.74  80 2.75  42 2.78  44 2.79  74 2.79  53 2.80  11 2.80
                            78 2.80  19 2.80  22 2.81  61 2.81
   8  0.370  0.951  0.126-  69 2.74  66 2.74  26 2.74  16 2.78  24 2.79  75 2.79  25 2.80  19 2.80
                            60 2.81  49 2.81  54 2.81  53 2.81
   9  0.035  0.369  0.327-  12 2.74  77 2.74  62 2.74  28 2.78  30 2.79  33 2.79  13 2.80  47 2.80
                             3 2.80  15 2.81  56 2.81  63 2.81
  10  0.037  0.368  0.023-  54 2.77  46 2.79  45 2.79   6 2.80  58 2.80  64 2.81  18 2.81  48 2.81
                            16 2.81
  11  0.869  0.202  0.126-  77 2.74  65 2.74  79 2.75  64 2.78  74 2.78  48 2.79   7 2.80  78 2.80
                            22 2.81  45 2.81  54 2.81  49 2.81
  12  0.952  0.536  0.226-  21 2.73   9 2.74   3 2.74  45 2.74  56 2.74  46 2.74  77 2.81  62 2.81
                            20 2.81  55 2.81  67 2.81  76 2.81
  13  0.284  0.120  0.327-  62 2.74  26 2.74  69 2.74  31 2.78  36 2.78  33 2.79   9 2.80  47 2.80
                            73 2.81  43 2.81  15 2.81  23 2.81
  14  0.534  0.619  0.328-  51 2.74  66 2.75  67 2.76  52 2.79  41 2.80  57 2.80  63 2.80  23 2.80
                            56 2.81  38 2.81  73 2.81  37 2.82
  15  0.285  0.369  0.327-  76 2.74  80 2.74  62 2.75  50 2.77  36 2.79  28 2.79  41 2.80   3 2.80
                            57 2.80  43 2.80   9 2.81  13 2.81
  16  0.287  0.118  0.023-   8 2.78  54 2.78  53 2.79  75 2.80  44 2.80  18 2.81  24 2.81  48 2.81
                            10 2.81
  17  0.537  0.618  0.023-  22 2.78  25 2.79  60 2.79  24 2.80  59 2.80  64 2.80  42 2.81  58 2.81
                            75 2.81
  18  0.287  0.368  0.023-  53 2.78  61 2.79  46 2.79  59 2.80   6 2.80  42 2.81  10 2.81  16 2.81
                            44 2.81
  19  0.619  0.952  0.126-  20 2.74  71 2.74  69 2.74  44 2.78  75 2.78   4 2.79   8 2.80  53 2.80
                             7 2.80  25 2.81  21 2.81  78 2.81
  20  0.702  0.785  0.227-  56 2.74  25 2.74  19 2.74  73 2.74   1 2.74  21 2.74  67 2.81  66 2.81
                            12 2.81  69 2.81  55 2.81  71 2.81
  21  0.869  0.702  0.126-  12 2.73  55 2.74  20 2.74   4 2.78  58 2.79   6 2.79  46 2.80  45 2.80
                            70 2.80  19 2.81  25 2.81  78 2.81
  22  0.619  0.452  0.126-  79 2.73  67 2.74  51 2.75  17 2.78  42 2.78  64 2.80  61 2.80  60 2.80
                            11 2.81  45 2.81   7 2.81  25 2.81
  23  0.285  0.869  0.327-  68 2.74  66 2.74  26 2.75  37 2.77  31 2.79  29 2.79  73 2.80   2 2.80
                            14 2.80  57 2.80  47 2.81  13 2.81
  24  0.287  0.868  0.023-   8 2.79  60 2.79  49 2.79  17 2.80  59 2.80  48 2.81   5 2.81  16 2.81
                            75 2.81
  25  0.619  0.702  0.126-  20 2.74  67 2.74  66 2.74  75 2.78  17 2.79  58 2.79   8 2.80  45 2.80
                            19 2.81  21 2.81  60 2.81  22 2.81
  26  0.202  0.036  0.226-  49 2.73  13 2.74   8 2.74  54 2.74  47 2.74  23 2.75  77 2.80  69 2.80
                            62 2.80  65 2.81  66 2.81  68 2.81
  27  0.868  0.953  0.430-  39 2.77  40 2.78   1 2.79  72 2.79   2 2.80  29 2.80  32 2.80  34 2.81
                            35 2.81
  28  0.116  0.453  0.430-  50 2.77  30 2.78   9 2.78   3 2.79  15 2.79  33 2.80  35 2.80  39 2.81
                            36 2.82
  29  0.116  0.954  0.430-  37 2.77  32 2.78  47 2.78   2 2.78  23 2.79  27 2.80  33 2.80  39 2.81
                            31 2.82
  30  0.869  0.453  0.430-  38 2.77  28 2.78  56 2.79   9 2.79  63 2.79  33 2.80  35 2.80  52 2.81
                            32 2.82
  31  0.367  0.954  0.430-  37 2.77  36 2.78  13 2.78  23 2.79  73 2.79  33 2.80  34 2.80  52 2.81
                            29 2.82
  32  0.869  0.202  0.430-  38 2.77  29 2.78  72 2.79  47 2.79  63 2.79  33 2.80  27 2.80  40 2.81
                            30 2.82
  33  0.117  0.203  0.430-   9 2.79  47 2.79  13 2.79  30 2.80  31 2.80  36 2.80  32 2.80  28 2.80
                            29 2.80
  34  0.618  0.953  0.430-  40 2.77  52 2.78   1 2.79  73 2.79  43 2.79  36 2.80  35 2.80  31 2.80
                            27 2.81
  35  0.867  0.703  0.430-  52 2.77  39 2.77   1 2.79  56 2.79   3 2.80  30 2.80  28 2.80  34 2.80
                            27 2.81
  36  0.368  0.202  0.430-  50 2.77  31 2.78  13 2.78  15 2.79  43 2.79  33 2.80  34 2.80  40 2.81
                            28 2.82
  37  0.364  0.709  0.431-  82 1.84  81 1.86  31 2.77  29 2.77  23 2.77  57 2.81  14 2.82  52 2.84
                            39 2.84  50 2.91  38 2.91
  38  0.623  0.450  0.431-  82 1.84  81 1.86  32 2.77  30 2.77  63 2.78  41 2.81  14 2.81  40 2.84
                            52 2.84  50 2.91  37 2.91
  39  0.114  0.705  0.430-   3 2.77  27 2.77  35 2.77   2 2.77  57 2.79  28 2.81  29 2.81  50 2.84
                            37 2.84
  40  0.619  0.199  0.430-  43 2.77  34 2.77  27 2.78  72 2.78  41 2.79  36 2.81  32 2.81  38 2.84
                            50 2.84
  41  0.534  0.370  0.328-  51 2.74  80 2.75  79 2.76  40 2.79  14 2.80  57 2.80  15 2.80  63 2.80
                            38 2.81  72 2.81  43 2.81  50 2.82
  42  0.537  0.368  0.023-   7 2.78  22 2.78  61 2.79  64 2.80  74 2.80  44 2.80  17 2.81  18 2.81
                            59 2.81
  43  0.534  0.119  0.327-  69 2.74  80 2.74  71 2.74  40 2.77  36 2.79  34 2.79  73 2.80  15 2.80
                            13 2.81   1 2.81  41 2.81  72 2.81
  44  0.537  0.118  0.023-  19 2.78   7 2.79  53 2.79  16 2.80  75 2.80  74 2.80  42 2.80   4 2.81
                            18 2.81
  45  0.869  0.452  0.126-  77 2.73  12 2.74  67 2.75  58 2.78  64 2.78  10 2.79  25 2.80  21 2.80
                            22 2.81  11 2.81  54 2.81  46 2.81
  46  0.119  0.452  0.126-  62 2.73  76 2.74  12 2.74   6 2.78  10 2.79  18 2.79  70 2.80  21 2.80
                            61 2.81  53 2.81  54 2.81  45 2.81
  47  0.035  0.119  0.327-  65 2.74  77 2.74  26 2.74  29 2.78  32 2.79  33 2.79  13 2.80   9 2.80
                            72 2.81   2 2.81  23 2.81  63 2.81
  48  0.037  0.118  0.023-  54 2.78  49 2.78  11 2.79   5 2.80  74 2.80  24 2.81  64 2.81  10 2.81
                            16 2.81
  49  0.119  0.952  0.126-  26 2.73  68 2.74  65 2.74   5 2.78  48 2.78  24 2.79  70 2.80  78 2.80
                            60 2.81   8 2.81  54 2.81  11 2.81
  50  0.364  0.450  0.432-  81 1.86  28 2.77  36 2.77  15 2.77  57 2.81  41 2.82  39 2.84  40 2.84
                            38 2.91  37 2.91
  51  0.452  0.536  0.227-  60 2.74  61 2.74  41 2.74  14 2.74  22 2.75  57 2.75  76 2.80  68 2.80
                            67 2.80  66 2.80  80 2.80  79 2.80
  52  0.619  0.705  0.430-  82 1.88  73 2.77  35 2.77  34 2.78  56 2.78  14 2.79  31 2.81  30 2.81
                            37 2.84  38 2.84
  53  0.370  0.202  0.126-  69 2.74  80 2.74  62 2.74  18 2.78  16 2.79  44 2.79   7 2.80  19 2.80
                            61 2.81  46 2.81  54 2.81   8 2.81
  54  0.119  0.202  0.125-  26 2.74  62 2.74  77 2.75  10 2.77  48 2.78  16 2.78  11 2.81  49 2.81
                            46 2.81   8 2.81  53 2.81  45 2.81
  55  0.952  0.786  0.227-   2 2.73   3 2.74  78 2.74  21 2.74  70 2.74   1 2.74  12 2.81  68 2.81
                            65 2.81  76 2.81  71 2.81  20 2.81
  56  0.785  0.619  0.327-  20 2.74  67 2.74  12 2.74  52 2.78  30 2.79  35 2.79  63 2.80   3 2.80
                             9 2.81   1 2.81  14 2.81  73 2.81
  57  0.285  0.619  0.328-  51 2.75  68 2.75  76 2.75  39 2.79  14 2.80  41 2.80  23 2.80  15 2.80
                             2 2.81   3 2.81  37 2.81  50 2.81
  58  0.787  0.618  0.023-  45 2.78  21 2.79  25 2.79   4 2.80  75 2.80  10 2.80   6 2.80  64 2.81
                            17 2.81
  59  0.287  0.618  0.023-  61 2.78  60 2.79  70 2.79  18 2.80  24 2.80  17 2.80   6 2.81  42 2.81
                             5 2.81
  60  0.369  0.702  0.126-  66 2.74  68 2.74  51 2.74  59 2.79  24 2.79  17 2.79  61 2.80  22 2.80
                            49 2.81  70 2.81   8 2.81  25 2.81
  61  0.369  0.452  0.126-  80 2.73  76 2.74  51 2.74  59 2.78  18 2.79  42 2.79  22 2.80  60 2.80
                            53 2.81   7 2.81  46 2.81  70 2.81
  62  0.202  0.286  0.226-  46 2.73  13 2.74  53 2.74   9 2.74  54 2.74  15 2.75  69 2.80  26 2.80
                            77 2.81  12 2.81  80 2.81  76 2.81
  63  0.784  0.369  0.327-  67 2.74  79 2.74  77 2.75  38 2.78  32 2.79  30 2.79  56 2.80  72 2.80
                            14 2.80  41 2.80  47 2.81   9 2.81
  64  0.787  0.368  0.023-  11 2.78  45 2.78  22 2.80  42 2.80  17 2.80  10 2.81  58 2.81  74 2.81
                            48 2.81
  65  0.952  0.036  0.226-   2 2.74  78 2.74  11 2.74  47 2.74  72 2.74  49 2.74  77 2.80  26 2.81
                            71 2.81  55 2.81  79 2.81  68 2.81
  66  0.452  0.785  0.227-  60 2.74  73 2.74   8 2.74  23 2.74  25 2.74  14 2.75  68 2.80  51 2.80
                            67 2.80  20 2.81  26 2.81  69 2.81
  67  0.702  0.536  0.227-  22 2.74  56 2.74  63 2.74  25 2.74  45 2.75  14 2.76  79 2.80  51 2.80
                            66 2.80  20 2.81  77 2.81  12 2.81
  68  0.202  0.785  0.227-  23 2.74  49 2.74  70 2.74   2 2.74  60 2.74  57 2.75  66 2.80  51 2.80
                            76 2.80  55 2.81  26 2.81  65 2.81
  69  0.452  0.036  0.226-  43 2.74  73 2.74  53 2.74   8 2.74  13 2.74  19 2.74  26 2.80  62 2.80
                            20 2.81  71 2.81  66 2.81  80 2.81
  70  0.119  0.702  0.126-  76 2.74  68 2.74  55 2.74   5 2.79   6 2.79  59 2.79  49 2.80  46 2.80
                            78 2.80  21 2.80  60 2.81  61 2.81
  71  0.702  0.036  0.227-   7 2.73  72 2.74  43 2.74  19 2.74   1 2.74  78 2.74  65 2.81  79 2.81
                            69 2.81  80 2.81  55 2.81  20 2.81
  72  0.785  0.119  0.327-  71 2.74  79 2.74  65 2.74  40 2.78  32 2.79  27 2.79  63 2.80   2 2.81
                            47 2.81   1 2.81  41 2.81  43 2.81
  73  0.534  0.870  0.327-  69 2.74  66 2.74  20 2.74  52 2.77  34 2.79  31 2.79  43 2.80  23 2.80
                            13 2.81   1 2.81  14 2.81  56 2.81
  74  0.787  0.118  0.023-  11 2.78  78 2.78   7 2.79   5 2.80  44 2.80  42 2.80  48 2.80   4 2.80
                            64 2.81
  75  0.537  0.868  0.023-  19 2.78  25 2.78   8 2.79  16 2.80  44 2.80  58 2.80   4 2.80  24 2.81
                            17 2.81
  76  0.202  0.536  0.227-  15 2.74  70 2.74  46 2.74   3 2.74  61 2.74  57 2.75  80 2.80  51 2.80
                            68 2.80  62 2.81  55 2.81  12 2.81
  77  0.952  0.286  0.226-  45 2.73  11 2.74  47 2.74   9 2.74  54 2.75  63 2.75  65 2.80  26 2.80
                            12 2.81  62 2.81  79 2.81  67 2.81
  78  0.869  0.952  0.126-  65 2.74  55 2.74  71 2.74   4 2.78  74 2.78   5 2.79   7 2.80  70 2.80
                            49 2.80  11 2.80  19 2.81  21 2.81
  79  0.702  0.286  0.227-  22 2.73  72 2.74   7 2.74  63 2.74  11 2.75  41 2.76  67 2.80  51 2.80
                            80 2.80  71 2.81  77 2.81  65 2.81
  80  0.452  0.286  0.227-  61 2.73  43 2.74  53 2.74  15 2.74   7 2.75  41 2.75  76 2.80  51 2.80
                            79 2.80  62 2.81  71 2.81  69 2.81
  81  0.451  0.536  0.468-  38 1.86  37 1.86  50 1.86
  82  0.533  0.619  0.469-  37 1.84  38 1.84  52 1.88
 
  LATTYP: Found a hexagonal cell.
 ALAT       =    11.2227001190
 C/A-ratio  =     1.9603125600
  
  Lattice vectors:
  
 A1 = (   5.6113500595,  -9.7191434021,   0.0000000000)
 A2 = ( -11.2227001190,   0.0000000000,   0.0000000000)
 A3 = (   0.0000000000,   0.0000000000, -22.0000000000)


Analysis of symmetry for initial positions (statically):
=====================================================================
 Subroutine PRICEL returns:
 Original cell was already a primitive cell.
 

 Routine SETGRP: Setting up the symmetry group for a 
 hexagonal supercell.


 Subroutine GETGRP returns: Found  1 space group operations
 (whereof  1 operations were pure point group operations)
 out of a pool of 24 trial point group operations.


The static configuration has the point symmetry C_1 .


Analysis of symmetry for dynamics (positions and initial velocities):
=====================================================================
 Subroutine PRICEL returns:
 Original cell was already a primitive cell.
 

 Routine SETGRP: Setting up the symmetry group for a 
 hexagonal supercell.


 Subroutine GETGRP returns: Found  1 space group operations
 (whereof  1 operations were pure point group operations)
 out of a pool of 24 trial point group operations.


The dynamic configuration has the point symmetry C_1 .


Analysis of structural, dynamic, and magnetic symmetry:
=====================================================================
 Subroutine PRICEL returns:
 Original cell was already a primitive cell.
 

 Routine SETGRP: Setting up the symmetry group for a 
 hexagonal supercell.


 Subroutine GETGRP returns: Found  1 space group operations
 (whereof  1 operations were pure point group operations)
 out of a pool of 24 trial point group operations.


The magnetic configuration has the point symmetry C_1 .


 Subroutine INISYM returns: Found  1 space group operations
 (whereof  1 operations are pure point group operations),
 and found     1 'primitive' translations

 
 
 KPOINTS: mesh auto                               

Automatic generation of k-mesh.
Space group operators:
 irot       det(A)        alpha          n_x          n_y          n_z        tau_x        tau_y        tau_z
    1     1.000000     0.000000     1.000000     0.000000     0.000000     0.000000     0.000000     0.000000
 
 Subroutine IBZKPT returns following result:
 ===========================================
 
 Found      4 irreducible k-points:
 
 Following reciprocal coordinates:
            Coordinates               Weight
  0.000000  0.000000  0.000000      1.000000
  0.500000  0.000000  0.000000      1.000000
  0.000000  0.500000  0.000000      1.000000
  0.500000  0.500000  0.000000      1.000000
 
 Following cartesian coordinates:
            Coordinates               Weight
  0.000000  0.000000  0.000000      1.000000
  0.044553 -0.025722  0.000000      1.000000
  0.000000  0.051445  0.000000      1.000000
  0.044553  0.025722  0.000000      1.000000
 


--------------------------------------------------------------------------------------------------------




 Dimension of arrays:
   k-points           NKPTS =      4   k-points in BZ     NKDIM =      4   number of bands    NBANDS=    530
   number of dos      NEDOS =    301   number of ions     NIONS =     82
   non local maximal  LDIM  =      6   non local SUM 2l+1 LMDIM =     18
   total plane-waves  NPLWV = ******
   max r-space proj   IRMAX =   7929   max aug-charges    IRDMAX=  34542
   dimension x,y,z NGX =    90 NGY =   90 NGZ =  168
   dimension x,y,z NGXF=   180 NGYF=  180 NGZF=  336
   support grid    NGXF=   180 NGYF=  180 NGZF=  336
   ions per type =              80   2
   NGX,Y,Z   is equivalent  to a cutoff of  13.33, 13.33, 12.70 a.u.
   NGXF,Y,Z  is equivalent  to a cutoff of  26.66, 26.66, 25.39 a.u.

 SYSTEM =  Pt111                                   
 POSCAR =  Pt111                                   

 Startparameter for this run:
   NWRITE =      2    write-flag & timer
   PREC   = accura    normal or accurate (medium, high low for compatibility)
   ISTART =      0    job   : 0-new  1-cont  2-samecut
   ICHARG =      2    charge: 1-file 2-atom 10-const
   ISPIN  =      2    spin polarized calculation?
   LNONCOLLINEAR =      F non collinear calculations
   LSORBIT =      F    spin-orbit coupling
   INIWAV =      1    electr: 0-lowe 1-rand  2-diag
   LASPH  =      F    aspherical Exc in radial PAW
   METAGGA=      F    non-selfconsistent MetaGGA calc.

 Electronic Relaxation 1
   ENCUT  =  550.0 eV  40.42 Ry    6.36 a.u.  21.46 21.46 42.07*2*pi/ulx,y,z
   ENINI  =  550.0     initial cutoff
   ENAUG  =  400.0 eV  augmentation charge cutoff
   NELM   =    200;   NELMIN=  2; NELMDL= -5     # of ELM steps 
   EDIFF  = 0.1E-04   stopping-criterion for ELM
   LREAL  =      T    real-space projection
   NLSPLINE    = F    spline interpolate recip. space projectors
   LCOMPAT=      F    compatible to vasp.4.4
   GGA_COMPAT  = T    GGA compatible to vasp.4.4-vasp.4.6
   LMAXPAW     = -100 max onsite density
   LMAXMIX     =    2 max onsite mixed and CHGCAR
   VOSKOWN=      0    Vosko Wilk Nusair interpolation
   ROPT   =   -0.00025  -0.00025
 Ionic relaxation
   EDIFFG = -.5E-01   stopping-criterion for IOM
   NSW    =    300    number of steps for IOM
   NBLOCK =      1;   KBLOCK =    300    inner block; outer block 
   IBRION =      2    ionic relax: 0-MD 1-quasi-New 2-CG
   NFREE  =      1    steps in history (QN), initial steepest desc. (CG)
   ISIF   =      2    stress and relaxation
   IWAVPR =     11    prediction:  0-non 1-charg 2-wave 3-comb
   ISYM   =      2    0-nonsym 1-usesym 2-fastsym
   LCORR  =      T    Harris-Foulkes like correction to forces

   POTIM  = 0.5000    time-step for ionic-motion
   TEIN   =    0.0    initial temperature
   TEBEG  =    0.0;   TEEND  =   0.0 temperature during run
   SMASS  =  -3.00    Nose mass-parameter (am)
   estimated Nose-frequenzy (Omega)   =  0.10E-29 period in steps =****** mass=  -0.288E-26a.u.
   SCALEE = 1.0000    scale energy and forces
   NPACO  =    256;   APACO  = 16.0  distance and # of slots for P.C.
   PSTRESS=    0.0 pullay stress

  Mass of Ions in am
   POMASS = 195.08  1.00
  Ionic Valenz
   ZVAL   =  10.00  1.00
  Atomic Wigner-Seitz radii
   RWIGS  =  -1.00 -1.00
  virtual crystal weights 
   VCA    =   1.00  1.00
   NELECT =     802.0000    total number of electrons
   NUPDOWN=      -1.0000    fix difference up-down

 DOS related values:
   EMIN   =  10.00;   EMAX   =-10.00  energy-range for DOS
   EFERMI =   0.00
   ISMEAR =     1;   SIGMA  =   0.10  broadening in eV -4-tet -1-fermi 0-gaus

 Electronic relaxation 2 (details)
   IALGO  =     68    algorithm
   LDIAG  =      T    sub-space diagonalisation (order eigenvalues)
   LSUBROT=      F    optimize rotation matrix (better conditioning)
   TURBO    =      0    0=normal 1=particle mesh
   IRESTART =      0    0=no restart 2=restart with 2 vectors
   NREBOOT  =      0    no. of reboots
   NMIN     =      0    reboot dimension
   EREF     =   0.00    reference energy to select bands
   IMIX   =      4    mixing-type and parameters
     AMIX     =   0.40;   BMIX     =  1.00
     AMIX_MAG =   1.60;   BMIX_MAG =  1.00
     AMIN     =   0.10
     WC   =   100.;   INIMIX=   1;  MIXPRE=   1;  MAXMIX= -45

 Intra band minimization:
   WEIMIN = 0.0010     energy-eigenvalue tresh-hold
   EBREAK =  0.47E-08  absolut break condition
   DEPER  =   0.30     relativ break condition  

   TIME   =   0.40     timestep for ELM

  volume/ion in A,a.u.               =      29.26       197.48
  Fermi-wavevector in a.u.,A,eV,Ry     =   1.136101  2.146920 17.561386  1.290725
  Thomas-Fermi vector in A             =   2.272806
 
 Write flags
   LWAVE        =      F    write WAVECAR
   LDOWNSAMPLE  =      F    k-point downsampling of WAVECAR
   LCHARG       =      F    write CHGCAR
   LVTOT        =      F    write LOCPOT, total local potential
   LVHAR        =      F    write LOCPOT, Hartree potential only
   LELF         =      F    write electronic localiz. function (ELF)
   LORBIT       =      0    0 simple, 1 ext, 2 COOP (PROOUT), +10 PAW based schemes


 Dipole corrections
   LMONO  =      F    monopole corrections only (constant potential shift)
   LDIPOL =      F    correct potential (dipole corrections)
   IDIPOL =      0    1-x, 2-y, 3-z, 4-all directions 
   EPSILON=  1.0000000 bulk dielectric constant

 Exchange correlation treatment:
   GGA     =    --    GGA type
   LEXCH   =     8    internal setting for exchange type
   VOSKOWN=      0    Vosko Wilk Nusair interpolation
   LHFCALC =     F    Hartree Fock is set to
   LHFONE  =     F    Hartree Fock one center treatment
   AEXX    =    0.0000 exact exchange contribution

 Linear response parameters
   LEPSILON=     F    determine dielectric tensor
   LRPA    =     F    only Hartree local field effects (RPA)
   LNABLA  =     F    use nabla operator in PAW spheres
   LVEL    =     F    velocity operator in full k-point grid
   LINTERFAST=   F  fast interpolation
   KINTER  =     0    interpolate to denser k-point grid
   CSHIFT  =0.1000    complex shift for real part using Kramers Kronig
   OMEGAMAX=  -1.0    maximum frequency
   DEG_THRESHOLD= 0.2000000E-02 threshold for treating states as degnerate
   RTIME   =   -0.100 relaxation time in fs
  (WPLASMAI=    0.000 imaginary part of plasma frequency in eV, 0.658/RTIME)
   DFIELD  = 0.0000000 0.0000000 0.0000000 field for delta impulse in time
 
 Orbital magnetization related:
   ORBITALMAG=     F  switch on orbital magnetization
   LCHIMAG   =     F  perturbation theory with respect to B field
   DQ        =  0.001000  dq finite difference perturbation B field
   LLRAUG    =     F  two centre corrections for induced B field



--------------------------------------------------------------------------------------------------------


 conjugate gradient relaxation of ions
 charge density and potential will be updated during run
 spin polarized calculation
 RMM-DIIS sequential band-by-band and
  variant of blocked Davidson during initial phase
 perform sub-space diagonalisation
    before iterative eigenvector-optimisation
 modified Broyden-mixing scheme, WC =      100.0
 initial mixing is a Kerker type mixing with AMIX =  0.4000 and BMIX =      1.0000
 Hartree-type preconditioning will be used
 using additional bands          129
 real space projection scheme for non local part
 use partial core corrections
 calculate Harris-corrections to forces 
   (improved forces if not selfconsistent)
 use gradient corrections 
 use of overlap-Matrix (Vanderbilt PP)
 Methfessel and Paxton  Order N= 1 SIGMA  =   0.10


--------------------------------------------------------------------------------------------------------


  energy-cutoff  :      550.00
  volume of cell :     2399.65
      direct lattice vectors                 reciprocal lattice vectors
    11.222700119  0.000000000  0.000000000     0.089105116 -0.051444863  0.000000000
     5.611350060  9.719143402  0.000000000     0.000000000  0.102889726  0.000000000
     0.000000000  0.000000000 22.000000000     0.000000000  0.000000000  0.045454545

  length of vectors
    11.222700119 11.222700119 22.000000000     0.102889726  0.102889726  0.045454545


 
 k-points in units of 2pi/SCALE and weight: mesh auto                               
   0.00000000  0.00000000  0.00000000       0.250
   0.04455256 -0.02572243  0.00000000       0.250
   0.00000000  0.05144486  0.00000000       0.250
   0.04455256  0.02572243  0.00000000       0.250
 
 k-points in reciprocal lattice and weights: mesh auto                               
   0.00000000  0.00000000  0.00000000       0.250
   0.50000000  0.00000000  0.00000000       0.250
   0.00000000  0.50000000  0.00000000       0.250
   0.50000000  0.50000000  0.00000000       0.250
 
 position of ions in fractional coordinates (direct lattice) 
   0.78465080  0.86928350  0.32706597
   0.03474760  0.86944109  0.32676846
   0.03469383  0.61903556  0.32683002
   0.78709045  0.86774010  0.02312041
   0.03664348  0.86815207  0.02299700
   0.03681366  0.61794608  0.02303567
   0.61938695  0.20167576  0.12618101
   0.36959949  0.95146821  0.12604964
   0.03492640  0.36903360  0.32672032
   0.03667898  0.36817193  0.02301070
   0.86903775  0.20189382  0.12598041
   0.95187826  0.53560522  0.22647642
   0.28435062  0.11951552  0.32670451
   0.53439286  0.61910442  0.32786695
   0.28475276  0.36938628  0.32714090
   0.28748810  0.11758738  0.02300985
   0.53676303  0.61780760  0.02307579
   0.28682623  0.36810036  0.02300944
   0.61926991  0.95180929  0.12614141
   0.70169174  0.78547102  0.22658298
   0.86929422  0.70180386  0.12617620
   0.61902474  0.45190431  0.12616121
   0.28472872  0.86915485  0.32708771
   0.28703219  0.86759734  0.02300031
   0.61921222  0.70188733  0.12612540
   0.20186218  0.03574599  0.22619810
   0.86751088  0.95285844  0.43017446
   0.11645137  0.45301730  0.43003551
   0.11621609  0.95392428  0.42993211
   0.86870503  0.45275780  0.42995847
   0.36712433  0.95412327  0.42997818
   0.86850620  0.20198377  0.42995057
   0.11746378  0.20301187  0.43007447
   0.61751888  0.95290324  0.43019065
   0.86713320  0.70305873  0.43025769
   0.36751487  0.20177077  0.42998882
   0.36436837  0.70901047  0.43144539
   0.62336216  0.44980370  0.43137920
   0.11354754  0.70468193  0.42976676
   0.61916692  0.19916266  0.42970585
   0.53437427  0.36973715  0.32786911
   0.53718160  0.36760432  0.02303389
   0.53447315  0.11929472  0.32676343
   0.53714438  0.11771607  0.02299136
   0.86896519  0.45209321  0.12606821
   0.11931945  0.45212167  0.12609900
   0.03485388  0.11947065  0.32673712
   0.03690038  0.11760785  0.02292731
   0.11932424  0.95154613  0.12606607
   0.36433451  0.45002523  0.43152591
   0.45185524  0.53568192  0.22698138
   0.61921806  0.70477304  0.42972848
   0.36959380  0.20192433  0.12606611
   0.11934040  0.20181201  0.12543859
   0.95207522  0.78555325  0.22658640
   0.78477891  0.61903158  0.32682826
   0.28496879  0.61915938  0.32790336
   0.78685015  0.61806335  0.02303022
   0.28690374  0.61782057  0.02305614
   0.36931258  0.70155837  0.12619535
   0.36949737  0.45191401  0.12616328
   0.20193216  0.28562902  0.22621874
   0.78442232  0.36946928  0.32708666
   0.78676516  0.36807204  0.02295502
   0.95186913  0.03580009  0.22644686
   0.45174709  0.78533966  0.22659096
   0.70150330  0.53558018  0.22657683
   0.20233052  0.78530519  0.22659611
   0.45176910  0.03569593  0.22645766
   0.11908677  0.70200622  0.12615827
   0.70179887  0.03585873  0.22658142
   0.78479412  0.11946433  0.32682201
   0.53436745  0.86952838  0.32685132
   0.78695165  0.11771271  0.02295143
   0.53714748  0.86795500  0.02297783
   0.20236292  0.53552277  0.22660659
   0.95198053  0.28560590  0.22619634
   0.86926528  0.95186950  0.12616081
   0.70161006  0.28605082  0.22655824
   0.45171893  0.28613249  0.22659711
   0.45107376  0.53642430  0.46784591
   0.53346000  0.61900000  0.46900000
 
 position of ions in cartesian coordinates  (Angst):
  13.68375466  8.44869099  7.19545125
   5.26870024  8.45022262  7.18890609
   3.86298372  6.01649541  7.19026053
  13.70247354  8.43369050  0.50864893
   5.28274393  8.43769442  0.50593407
   3.88066040  6.00590653  0.50678471
   8.08286730  1.96011559  2.77598224
   9.48692538  9.24745595  2.77309209
   2.46274525  3.58669047  7.18784700
   2.47757879  3.57831581  0.50623550
  10.88584697  1.96223497  2.77156908
  13.68811262  5.20562393  4.98248133
   3.86182513  1.16158844  7.18749929
   9.47134241  6.01716465  7.21307280
   5.26845059  3.59011819  7.19709983
   3.88621665  1.14284860  0.50621670
   9.49066529  6.00456069  0.50766749
   5.28450476  3.57762014  0.50620760
  12.29081561  9.25077095  2.77511094
  12.28242875  7.63410543  4.98482560
  13.69389550  6.82093236  2.77587634
   9.48292223  4.39212275  2.77554669
   8.07255717  8.44744065  7.19592966
   8.08966856  8.43230300  0.50600690
  10.88776853  6.82174364  2.77475879
   2.46602199  0.34742036  4.97635816
  15.08263667  9.26096782  9.46383819
   3.84893742  4.40294007  9.46078119
   6.65706142  9.27132687  9.45850653
  12.28979858  4.40041801  9.45908633
   9.47404597  9.27326092  9.45952002
  10.88038622  1.96310922  9.45891246
   2.45743143  1.97310147  9.46163825
  12.27730291  9.26140326  9.46419421
  13.67668448  6.83312865  9.46566925
   5.25671556  1.96103907  9.45975403
   8.06770288  6.89097444  9.49179861
   9.51981261  4.37170668  9.49034230
   5.22852701  6.84890470  9.45486873
   8.06629614  1.93569049  9.45352875
   8.07184674  3.59352836  7.21312051
   8.09138452  3.57279912  0.50674559
   6.66763625  1.15944244  7.18879549
   6.68875641  1.14409934  0.50580997
  12.28898908  4.39395878  2.77350066
   3.87609940  4.39423539  2.77417808
   1.06154624  1.16115237  7.18821663
   1.07406072  1.14304757  0.50440083
   6.67859864  9.24821334  2.77345349
   6.61406611  4.37385977  9.49357013
   8.07693468  5.20636945  4.99359025
  10.90402688  6.84979022  9.45402658
   5.28090853  1.96253153  2.77345435
   2.47175937  1.96143982  2.75964902
  15.09286889  7.63490464  4.98490090
  12.28094121  6.01645669  7.19022170
   6.67243930  6.01769880  7.21387391
  12.29875312  6.00704634  0.50666476
   6.68664210  6.00468671  0.50723504
   8.08137391  6.81854642  2.77629765
   6.68260587  4.39221703  2.77559222
   3.86898849  2.77606943  4.97681235
  10.87655790  3.59092490  7.19590658
  10.89501058  3.57734498  0.50501036
  10.88342866  0.34794618  4.98183086
   9.47663791  7.63282879  4.98500107
  10.87808904  5.20538057  4.98469034
   6.67731715  7.63249380  4.98511451
   5.27037151  0.34693390  4.98206857
   5.27567778  6.82289913  2.77548185
   8.07729411  0.34851615  4.98479122
   9.47786528  1.16109098  7.19008419
  10.87627371  8.45107101  7.19072900
   9.49224953  1.14406667  0.50493154
  10.89864443  8.43577911  0.50551217
   5.27606412  5.20482261  4.98534497
  12.28642673  2.77584474  4.97631952
  15.09677654  9.25135616  2.77553785
   9.47909062  2.78016897  4.98428125
   6.67509563  2.78096273  4.98513653
   8.07233007  5.21358470 10.29261009
   9.46028729  6.01614977 10.31800000
 


--------------------------------------------------------------------------------------------------------


 k-point  1 :   0.0000 0.0000 0.0000  plane waves:   70321
 k-point  2 :   0.5000 0.0000 0.0000  plane waves:   70264
 k-point  3 :   0.0000 0.5000 0.0000  plane waves:   70264
 k-point  4 :   0.5000 0.5000 0.0000  plane waves:   70264

 maximum and minimum number of plane-waves per node :     17611    17530

 maximum number of plane-waves:     70321
 maximum index in each direction: 
   IXMAX=   21   IYMAX=   21   IZMAX=   42
   IXMIN=  -21   IYMIN=  -21   IZMIN=  -42


 real space projection operators:
  total allocation   :      86320.60 KBytes
  max/ min on nodes  :      22065.70      21095.61


 parallel 3D FFT for wavefunctions:
    minimum data exchange during FFTs selected (reduces bandwidth)
 parallel 3D FFT for charge:
    minimum data exchange during FFTs selected (reduces bandwidth)


 total amount of memory used by VASP MPI-rank0   262984. kBytes
=======================================================================

   base      :      30000. kBytes
   nonlr-proj:      38146. kBytes
   fftplans  :      20287. kBytes
   grid      :      52194. kBytes
   one-center:        653. kBytes
   wavefun   :     121704. kBytes
 
     INWAV:  cpu time    0.0000: real time    0.0000
 Broyden mixing: mesh for mixing (old mesh)
   NGX = 43   NGY = 43   NGZ = 85
  (NGX  =180   NGY  =180   NGZ  =336)
  gives a total of 157165 points

 initial charge density was supplied:
 charge density of overlapping atoms calculated
 number of electron     802.0000000 magnetization      82.0000000
 keeping initial charge density in first step


--------------------------------------------------------------------------------------------------------


 Maximum index for non-local projection operator         2104
 Maximum index for augmentation-charges         1773 (set IRDMAX)


--------------------------------------------------------------------------------------------------------


 First call to EWALD:  gamma=   0.132
 Maximum number of real-space cells 4x 4x 2
 Maximum number of reciprocal cells 2x 2x 4

    FEWALD:  cpu time    0.0035: real time    0.0035


--------------------------------------- Iteration      1(   1)  ---------------------------------------


    POTLOK:  cpu time    0.4879: real time    0.5052
    SETDIJ:  cpu time    0.0405: real time    0.0409
     EDDAV:  cpu time   68.5925: real time   68.7821
       DOS:  cpu time    0.0024: real time    0.0024
    --------------------------------------------
      LOOP:  cpu time   69.1232: real time   69.3305

 eigenvalue-minimisations  :  8480
 total energy-change (2. order) : 0.5506113E+04  (-0.3893927E+05)
 number of electron     802.0000000 magnetization      82.0000000
 augmentation part      802.0000000 magnetization      82.0000000

 Free energy of the ion-electron system (eV)
  ---------------------------------------------------
  alpha Z        PSCENC =      2543.22265468
  Ewald energy   TEWEN  =    178632.40053156
  -Hartree energ DENC   =   -242726.11259856
  -exchange      EXHF   =         0.00000000
  -V(xc)+E(xc)   XCENC  =       292.95986963
  PAW double counting   =     55687.29074418   -53424.98231869
  entropy T*S    EENTRO =         0.00105507
  eigenvalues    EBANDS =      6147.11440060
  atomic energy  EATOM  =     58354.21911236
  Solvation  Ediel_sol  =         0.00000000
  ---------------------------------------------------
  free energy    TOTEN  =      5506.11345082 eV

  energy without entropy =     5506.11239575  energy(sigma->0) =     5506.11309913


--------------------------------------------------------------------------------------------------------




--------------------------------------- Iteration      1(   2)  ---------------------------------------


     EDDAV:  cpu time   74.8870: real time   75.1249
       DOS:  cpu time    0.0020: real time    0.0020
    --------------------------------------------
      LOOP:  cpu time   74.8891: real time   75.1270

 eigenvalue-minimisations  :  9520
 total energy-change (2. order) :-0.5695742E+04  (-0.5219313E+04)
 number of electron     802.0000000 magnetization      82.0000000
 augmentation part      802.0000000 magnetization      82.0000000

 Free energy of the ion-electron system (eV)
  ---------------------------------------------------
  alpha Z        PSCENC =      2543.22265468
  Ewald energy   TEWEN  =    178632.40053156
  -Hartree energ DENC   =   -242726.11259856
  -exchange      EXHF   =         0.00000000
  -V(xc)+E(xc)   XCENC  =       292.95986963
  PAW double counting   =     55687.29074418   -53424.98231869
  entropy T*S    EENTRO =        -0.00528594
  eigenvalues    EBANDS =       451.37898869
  atomic energy  EATOM  =     58354.21911236
  Solvation  Ediel_sol  =         0.00000000
  ---------------------------------------------------
  free energy    TOTEN  =      -189.62830209 eV

  energy without entropy =     -189.62301616  energy(sigma->0) =     -189.62654011


--------------------------------------------------------------------------------------------------------




--------------------------------------- Iteration      1(   3)  ---------------------------------------


     EDDAV:  cpu time   75.1986: real time   75.3781
       DOS:  cpu time    0.0022: real time    0.0022
    --------------------------------------------
      LOOP:  cpu time   75.2008: real time   75.3803

 eigenvalue-minimisations  :  9580
 total energy-change (2. order) :-0.2986804E+03  (-0.2750680E+03)
 number of electron     802.0000000 magnetization      82.0000000
 augmentation part      802.0000000 magnetization      82.0000000

 Free energy of the ion-electron system (eV)
  ---------------------------------------------------
  alpha Z        PSCENC =      2543.22265468
  Ewald energy   TEWEN  =    178632.40053156
  -Hartree energ DENC   =   -242726.11259856
  -exchange      EXHF   =         0.00000000
  -V(xc)+E(xc)   XCENC  =       292.95986963
  PAW double counting   =     55687.29074418   -53424.98231869
  entropy T*S    EENTRO =         0.06974390
  eigenvalues    EBANDS =       152.62359013
  atomic energy  EATOM  =     58354.21911236
  Solvation  Ediel_sol  =         0.00000000
  ---------------------------------------------------
  free energy    TOTEN  =      -488.30867082 eV

  energy without entropy =     -488.37841472  energy(sigma->0) =     -488.33191879


--------------------------------------------------------------------------------------------------------




--------------------------------------- Iteration      1(   4)  ---------------------------------------


     EDDAV:  cpu time   78.2957: real time   78.4840
       DOS:  cpu time    0.0022: real time    0.0022
    --------------------------------------------
      LOOP:  cpu time   78.2978: real time   78.4862

 eigenvalue-minimisations  : 10060
 total energy-change (2. order) :-0.8000100E+01  (-0.7913435E+01)
 number of electron     802.0000000 magnetization      82.0000000
 augmentation part      802.0000000 magnetization      82.0000000

 Free energy of the ion-electron system (eV)
  ---------------------------------------------------
  alpha Z        PSCENC =      2543.22265468
  Ewald energy   TEWEN  =    178632.40053156
  -Hartree energ DENC   =   -242726.11259856
  -exchange      EXHF   =         0.00000000
  -V(xc)+E(xc)   XCENC  =       292.95986963
  PAW double counting   =     55687.29074418   -53424.98231869
  entropy T*S    EENTRO =         0.07033697
  eigenvalues    EBANDS =       144.62289670
  atomic energy  EATOM  =     58354.21911236
  Solvation  Ediel_sol  =         0.00000000
  ---------------------------------------------------
  free energy    TOTEN  =      -496.30877118 eV

  energy without entropy =     -496.37910815  energy(sigma->0) =     -496.33221683


--------------------------------------------------------------------------------------------------------




--------------------------------------- Iteration      1(   5)  ---------------------------------------


     EDDAV:  cpu time   76.8206: real time   77.0039
       DOS:  cpu time    0.0021: real time    0.0021
    CHARGE:  cpu time    5.1250: real time    5.1373
    MIXING:  cpu time    0.0109: real time    0.0115
    --------------------------------------------
      LOOP:  cpu time   81.9586: real time   82.1549

 eigenvalue-minimisations  :  9840
 total energy-change (2. order) :-0.2649272E+00  (-0.2641649E+00)
 number of electron     801.9999988 magnetization      76.7088059
 augmentation part      233.1623211 magnetization      55.5751564

 Broyden mixing:
  rms(total) = 0.10343E+02    rms(broyden)= 0.10343E+02
  rms(prec ) = 0.10471E+02
  weight for this iteration     100.00

 Free energy of the ion-electron system (eV)
  ---------------------------------------------------
  alpha Z        PSCENC =      2543.22265468
  Ewald energy   TEWEN  =    178632.40053156
  -Hartree energ DENC   =   -242726.11259856
  -exchange      EXHF   =         0.00000000
  -V(xc)+E(xc)   XCENC  =       292.95986963
  PAW double counting   =     55687.29074418   -53424.98231869
  entropy T*S    EENTRO =         0.06975800
  eigenvalues    EBANDS =       144.35854848
  atomic energy  EATOM  =     58354.21911236
  Solvation  Ediel_sol  =         0.00000000
  ---------------------------------------------------
  free energy    TOTEN  =      -496.57369837 eV

  energy without entropy =     -496.64345637  energy(sigma->0) =     -496.59695104


--------------------------------------------------------------------------------------------------------




--------------------------------------- Iteration      1(   6)  ---------------------------------------


    POTLOK:  cpu time    0.4762: real time    0.4773
    SETDIJ:  cpu time    0.0403: real time    0.0404
    EDDIAG:  cpu time   12.2842: real time   12.3140
  RMM-DIIS:  cpu time   43.1762: real time   43.2794
    ORTHCH:  cpu time    1.2267: real time    1.2296
       DOS:  cpu time    0.0021: real time    0.0021
    CHARGE:  cpu time    5.1099: real time    5.1221
    MIXING:  cpu time    0.0109: real time    0.0110
    --------------------------------------------
      LOOP:  cpu time   62.3265: real time   62.4759

 eigenvalue-minimisations  :  8534
 total energy-change (2. order) : 0.1718061E+02  (-0.8543971E+01)
 number of electron     801.9999986 magnetization      72.6305736
 augmentation part      246.0713019 magnetization      52.7238330

 Broyden mixing:
  rms(total) = 0.80078E+01    rms(broyden)= 0.80078E+01
  rms(prec ) = 0.87901E+01
  weight for this iteration     100.00

 eigenvalues of (default mixing * dielectric matrix)
  average eigenvalue GAMMA=   0.8399
  0.8399

 Free energy of the ion-electron system (eV)
  ---------------------------------------------------
  alpha Z        PSCENC =      2543.22265468
  Ewald energy   TEWEN  =    178632.40053156
  -Hartree energ DENC   =   -241758.21626969
  -exchange      EXHF   =         0.00000000
  -V(xc)+E(xc)   XCENC  =       276.51558148
  PAW double counting   =     62087.15343301   -59945.27556104
  entropy T*S    EENTRO =        -0.02580447
  eigenvalues    EBANDS =      -669.38676197
  atomic energy  EATOM  =     58354.21911236
  Solvation  Ediel_sol  =         0.00000000
  ---------------------------------------------------
  free energy    TOTEN  =      -479.39308408 eV

  energy without entropy =     -479.36727961  energy(sigma->0) =     -479.38448259


--------------------------------------------------------------------------------------------------------




--------------------------------------- Iteration      1(   7)  ---------------------------------------


    POTLOK:  cpu time    0.4758: real time    0.4769
    SETDIJ:  cpu time    0.0407: real time    0.0408
    EDDIAG:  cpu time   12.2927: real time   12.3219
  RMM-DIIS:  cpu time   42.5484: real time   42.6489
    ORTHCH:  cpu time    1.2328: real time    1.2357
       DOS:  cpu time    0.0021: real time    0.0021
    CHARGE:  cpu time    5.1918: real time    5.2041
    MIXING:  cpu time    0.0112: real time    0.0112
    --------------------------------------------
      LOOP:  cpu time   61.7954: real time   61.9416

 eigenvalue-minimisations  :  8514
 total energy-change (2. order) :-0.1100557E+03  (-0.1335162E+02)
 number of electron     801.9999990 magnetization      64.8193487
 augmentation part      239.7478150 magnetization      53.8514194

 Broyden mixing:
  rms(total) = 0.96807E+01    rms(broyden)= 0.96807E+01
  rms(prec ) = 0.12342E+02
  weight for this iteration     100.00

 eigenvalues of (default mixing * dielectric matrix)
  average eigenvalue GAMMA=   0.8035
  1.3168  0.2902

 Free energy of the ion-electron system (eV)
  ---------------------------------------------------
  alpha Z        PSCENC =      2543.22265468
  Ewald energy   TEWEN  =    178632.40053156
  -Hartree energ DENC   =   -242729.13799876
  -exchange      EXHF   =         0.00000000
  -V(xc)+E(xc)   XCENC  =       269.83353072
  PAW double counting   =     65544.21035981   -63440.04686927
  entropy T*S    EENTRO =        -0.07901025
  eigenvalues    EBANDS =       235.92894686
  atomic energy  EATOM  =     58354.21911236
  Solvation  Ediel_sol  =         0.00000000
  ---------------------------------------------------
  free energy    TOTEN  =      -589.44874228 eV

  energy without entropy =     -589.36973204  energy(sigma->0) =     -589.42240553


--------------------------------------------------------------------------------------------------------




--------------------------------------- Iteration      1(   8)  ---------------------------------------


    POTLOK:  cpu time    0.4750: real time    0.4761
    SETDIJ:  cpu time    0.0409: real time    0.0410
    EDDIAG:  cpu time   12.2964: real time   12.3256
  RMM-DIIS:  cpu time   42.8489: real time   42.9503
    ORTHCH:  cpu time    1.2267: real time    1.2297
       DOS:  cpu time    0.0021: real time    0.0021
    CHARGE:  cpu time    5.1229: real time    5.1351
    MIXING:  cpu time    0.0115: real time    0.0116
    --------------------------------------------
      LOOP:  cpu time   62.0244: real time   62.1715

 eigenvalue-minimisations  :  8526
 total energy-change (2. order) : 0.1179281E+03  (-0.6375195E+01)
 number of electron     801.9999990 magnetization      61.0229008
 augmentation part      249.6815437 magnetization      47.1362071

 Broyden mixing:
  rms(total) = 0.45663E+01    rms(broyden)= 0.45663E+01
  rms(prec ) = 0.51340E+01
  weight for this iteration     100.00

 eigenvalues of (default mixing * dielectric matrix)
  average eigenvalue GAMMA=   0.9269
  1.9676  0.5544  0.2586

 Free energy of the ion-electron system (eV)
  ---------------------------------------------------
  alpha Z        PSCENC =      2543.22265468
  Ewald energy   TEWEN  =    178632.40053156
  -Hartree energ DENC   =   -241906.45443937
  -exchange      EXHF   =         0.00000000
  -V(xc)+E(xc)   XCENC  =       269.41331766
  PAW double counting   =     70390.68545151   -68352.45277733
  entropy T*S    EENTRO =        -0.03989873
  eigenvalues    EBANDS =      -402.51463319
  atomic energy  EATOM  =     58354.21911236
  Solvation  Ediel_sol  =         0.00000000
  ---------------------------------------------------
  free energy    TOTEN  =      -471.52068084 eV

  energy without entropy =     -471.48078211  energy(sigma->0) =     -471.50738126


--------------------------------------------------------------------------------------------------------




--------------------------------------- Iteration      1(   9)  ---------------------------------------


    POTLOK:  cpu time    0.4757: real time    0.4768
    SETDIJ:  cpu time    0.0411: real time    0.0412
    EDDIAG:  cpu time   12.2922: real time   12.3216
  RMM-DIIS:  cpu time   42.6166: real time   42.7177
    ORTHCH:  cpu time    1.2295: real time    1.2324
       DOS:  cpu time    0.0021: real time    0.0021
    CHARGE:  cpu time    5.1177: real time    5.1298
    MIXING:  cpu time    0.0122: real time    0.0122
    --------------------------------------------
      LOOP:  cpu time   61.7870: real time   61.9338

 eigenvalue-minimisations  :  8506
 total energy-change (2. order) : 0.5101058E+01  (-0.5242176E+01)
 number of electron     801.9999987 magnetization      58.2371812
 augmentation part      249.7526088 magnetization      42.7488676

 Broyden mixing:
  rms(total) = 0.44381E+01    rms(broyden)= 0.44381E+01
  rms(prec ) = 0.58675E+01
  weight for this iteration     100.00

 eigenvalues of (default mixing * dielectric matrix)
  average eigenvalue GAMMA=   0.8280
  2.1872  0.5721  0.2399  0.3130

 Free energy of the ion-electron system (eV)
  ---------------------------------------------------
  alpha Z        PSCENC =      2543.22265468
  Ewald energy   TEWEN  =    178632.40053156
  -Hartree energ DENC   =   -241857.47854924
  -exchange      EXHF   =         0.00000000
  -V(xc)+E(xc)   XCENC  =       271.09839170
  PAW double counting   =     71567.91318586   -69537.39665667
  entropy T*S    EENTRO =        -0.09096883
  eigenvalues    EBANDS =      -440.30732412
  atomic energy  EATOM  =     58354.21911236
  Solvation  Ediel_sol  =         0.00000000
  ---------------------------------------------------
  free energy    TOTEN  =      -466.41962270 eV

  energy without entropy =     -466.32865387  energy(sigma->0) =     -466.38929976


--------------------------------------------------------------------------------------------------------




--------------------------------------- Iteration      1(  10)  ---------------------------------------


    POTLOK:  cpu time    0.4748: real time    0.4759
    SETDIJ:  cpu time    0.0408: real time    0.0409
    EDDIAG:  cpu time   12.3048: real time   12.3342
  RMM-DIIS:  cpu time   42.7538: real time   42.8556
    ORTHCH:  cpu time    1.2285: real time    1.2314
       DOS:  cpu time    0.0022: real time    0.0022
    CHARGE:  cpu time    5.1789: real time    5.1912
    MIXING:  cpu time    0.0124: real time    0.0124
    --------------------------------------------
      LOOP:  cpu time   61.9962: real time   62.1439

 eigenvalue-minimisations  :  8515
 total energy-change (2. order) :-0.4176478E+02  (-0.1329849E+01)
 number of electron     801.9999985 magnetization      55.9014088
 augmentation part      248.5675305 magnetization      42.1175754

 Broyden mixing:
  rms(total) = 0.61542E+01    rms(broyden)= 0.61542E+01
  rms(prec ) = 0.10197E+02
  weight for this iteration     100.00

 eigenvalues of (default mixing * dielectric matrix)
  average eigenvalue GAMMA=   0.7299
  2.2935  0.6191  0.3415  0.2661  0.1292

 Free energy of the ion-electron system (eV)
  ---------------------------------------------------
  alpha Z        PSCENC =      2543.22265468
  Ewald energy   TEWEN  =    178632.40053156
  -Hartree energ DENC   =   -241897.74549105
  -exchange      EXHF   =         0.00000000
  -V(xc)+E(xc)   XCENC  =       271.54868773
  PAW double counting   =     72191.08754205   -70163.36642533
  entropy T*S    EENTRO =         0.06481745
  eigenvalues    EBANDS =      -439.61583391
  atomic energy  EATOM  =     58354.21911236
  Solvation  Ediel_sol  =         0.00000000
  ---------------------------------------------------
  free energy    TOTEN  =      -508.18440447 eV

  energy without entropy =     -508.24922192  energy(sigma->0) =     -508.20601029


--------------------------------------------------------------------------------------------------------




--------------------------------------- Iteration      1(  11)  ---------------------------------------


    POTLOK:  cpu time    0.4774: real time    0.4786
    SETDIJ:  cpu time    0.0395: real time    0.0396
    EDDIAG:  cpu time   12.3112: real time   12.3411
  RMM-DIIS:  cpu time   42.8747: real time   42.9810
    ORTHCH:  cpu time    1.2336: real time    1.2366
       DOS:  cpu time    0.0022: real time    0.0023
    CHARGE:  cpu time    5.1298: real time    5.1419
    MIXING:  cpu time    0.0128: real time    0.0129
    --------------------------------------------
      LOOP:  cpu time   62.0813: real time   62.2339

 eigenvalue-minimisations  :  8544
 total energy-change (2. order) : 0.5494112E+02  (-0.7387706E+00)
 number of electron     801.9999987 magnetization      54.5956833
 augmentation part      248.9991718 magnetization      34.7486672

 Broyden mixing:
  rms(total) = 0.16897E+01    rms(broyden)= 0.16897E+01
  rms(prec ) = 0.19477E+01
  weight for this iteration     100.00

 eigenvalues of (default mixing * dielectric matrix)
  average eigenvalue GAMMA=   0.6983
  2.1571  0.6856  0.6856  0.2791  0.2791  0.1032

 Free energy of the ion-electron system (eV)
  ---------------------------------------------------
  alpha Z        PSCENC =      2543.22265468
  Ewald energy   TEWEN  =    178632.40053156
  -Hartree energ DENC   =   -241969.40687287
  -exchange      EXHF   =         0.00000000
  -V(xc)+E(xc)   XCENC  =       271.36849967
  PAW double counting   =     72633.20153993   -70608.63270032
  entropy T*S    EENTRO =         0.07773524
  eigenvalues    EBANDS =      -309.69378807
  atomic energy  EATOM  =     58354.21911236
  Solvation  Ediel_sol  =         0.00000000
  ---------------------------------------------------
  free energy    TOTEN  =      -453.24328783 eV

  energy without entropy =     -453.32102306  energy(sigma->0) =     -453.26919957


--------------------------------------------------------------------------------------------------------




--------------------------------------- Iteration      1(  12)  ---------------------------------------


    POTLOK:  cpu time    0.4786: real time    0.4797
    SETDIJ:  cpu time    0.0404: real time    0.0405
    EDDIAG:  cpu time   12.2883: real time   12.3177
  RMM-DIIS:  cpu time   42.9812: real time   43.0827
    ORTHCH:  cpu time    1.2296: real time    1.2325
       DOS:  cpu time    0.0021: real time    0.0021
    CHARGE:  cpu time    5.1730: real time    5.1853
    MIXING:  cpu time    0.0134: real time    0.0134
    --------------------------------------------
      LOOP:  cpu time   62.2064: real time   62.3538

 eigenvalue-minimisations  :  8536
 total energy-change (2. order) :-0.6317139E+01  (-0.4303346E+00)
 number of electron     801.9999987 magnetization      53.1535190
 augmentation part      248.5464568 magnetization      34.1747116

 Broyden mixing:
  rms(total) = 0.13388E+01    rms(broyden)= 0.13388E+01
  rms(prec ) = 0.15329E+01
  weight for this iteration     100.00

 eigenvalues of (default mixing * dielectric matrix)
  average eigenvalue GAMMA=   0.7102
  2.0040  0.9182  0.9182  0.4581  0.2842  0.2842  0.1045

 Free energy of the ion-electron system (eV)
  ---------------------------------------------------
  alpha Z        PSCENC =      2543.22265468
  Ewald energy   TEWEN  =    178632.40053156
  -Hartree energ DENC   =   -241987.79842190
  -exchange      EXHF   =         0.00000000
  -V(xc)+E(xc)   XCENC  =       269.29380108
  PAW double counting   =     72178.58411000   -70147.92736220
  entropy T*S    EENTRO =         0.11302494
  eigenvalues    EBANDS =      -301.66787754
  atomic energy  EATOM  =     58354.21911236
  Solvation  Ediel_sol  =         0.00000000
  ---------------------------------------------------
  free energy    TOTEN  =      -459.56042702 eV

  energy without entropy =     -459.67345196  energy(sigma->0) =     -459.59810200


--------------------------------------------------------------------------------------------------------




--------------------------------------- Iteration      1(  13)  ---------------------------------------


    POTLOK:  cpu time    0.4790: real time    0.4802
    SETDIJ:  cpu time    0.0393: real time    0.0394
    EDDIAG:  cpu time   12.2844: real time   12.3138
  RMM-DIIS:  cpu time   42.8742: real time   42.9785
    ORTHCH:  cpu time    1.2441: real time    1.2470
       DOS:  cpu time    0.0021: real time    0.0021
    CHARGE:  cpu time    5.1309: real time    5.1570
    MIXING:  cpu time    0.0141: real time    0.0141
    --------------------------------------------
      LOOP:  cpu time   62.0681: real time   62.2320

 eigenvalue-minimisations  :  8534
 total energy-change (2. order) :-0.2644124E+01  (-0.2372260E+00)
 number of electron     801.9999987 magnetization      51.1992546
 augmentation part      248.3795808 magnetization      32.7061482

 Broyden mixing:
  rms(total) = 0.11238E+01    rms(broyden)= 0.11238E+01
  rms(prec ) = 0.12798E+01
  weight for this iteration     100.00

 eigenvalues of (default mixing * dielectric matrix)
  average eigenvalue GAMMA=   0.6979
  1.8743  1.0580  1.0580  0.6726  0.2868  0.2868  0.2423  0.1044

 Free energy of the ion-electron system (eV)
  ---------------------------------------------------
  alpha Z        PSCENC =      2543.22265468
  Ewald energy   TEWEN  =    178632.40053156
  -Hartree energ DENC   =   -241992.47600163
  -exchange      EXHF   =         0.00000000
  -V(xc)+E(xc)   XCENC  =       268.16985749
  PAW double counting   =     72018.07371434   -69985.06376132
  entropy T*S    EENTRO =         0.14679718
  eigenvalues    EBANDS =      -300.89745607
  atomic energy  EATOM  =     58354.21911236
  Solvation  Ediel_sol  =         0.00000000
  ---------------------------------------------------
  free energy    TOTEN  =      -462.20455140 eV

  energy without entropy =     -462.35134859  energy(sigma->0) =     -462.25348380


--------------------------------------------------------------------------------------------------------




--------------------------------------- Iteration      1(  14)  ---------------------------------------


    POTLOK:  cpu time    0.4804: real time    0.4815
    SETDIJ:  cpu time    0.0391: real time    0.0392
    EDDIAG:  cpu time   12.3098: real time   12.3392
  RMM-DIIS:  cpu time   42.9916: real time   43.0929
    ORTHCH:  cpu time    1.2300: real time    1.2329
       DOS:  cpu time    0.0021: real time    0.0021
    CHARGE:  cpu time    5.1056: real time    5.1178
    MIXING:  cpu time    0.0144: real time    0.0144
    --------------------------------------------
      LOOP:  cpu time   62.1729: real time   62.3200

 eigenvalue-minimisations  :  8517
 total energy-change (2. order) :-0.1946546E+01  (-0.1070849E+00)
 number of electron     801.9999987 magnetization      48.9181623
 augmentation part      248.2970423 magnetization      30.5187168

 Broyden mixing:
  rms(total) = 0.80227E+00    rms(broyden)= 0.80227E+00
  rms(prec ) = 0.90412E+00
  weight for this iteration     100.00

 eigenvalues of (default mixing * dielectric matrix)
  average eigenvalue GAMMA=   0.6940
  1.8534  1.1970  0.9237  0.9237  0.4300  0.1044  0.2946  0.2946  0.2246

 Free energy of the ion-electron system (eV)
  ---------------------------------------------------
  alpha Z        PSCENC =      2543.22265468
  Ewald energy   TEWEN  =    178632.40053156
  -Hartree energ DENC   =   -241999.56162539
  -exchange      EXHF   =         0.00000000
  -V(xc)+E(xc)   XCENC  =       266.86215735
  PAW double counting   =     72054.51324413   -70021.52081530
  entropy T*S    EENTRO =         0.16105976
  eigenvalues    EBANDS =      -294.44741633
  atomic energy  EATOM  =     58354.21911236
  Solvation  Ediel_sol  =         0.00000000
  ---------------------------------------------------
  free energy    TOTEN  =      -464.15109718 eV

  energy without entropy =     -464.31215694  energy(sigma->0) =     -464.20478377


--------------------------------------------------------------------------------------------------------




--------------------------------------- Iteration      1(  15)  ---------------------------------------


    POTLOK:  cpu time    0.4806: real time    0.4818
    SETDIJ:  cpu time    0.0390: real time    0.0390
    EDDIAG:  cpu time   12.2824: real time   12.3116
  RMM-DIIS:  cpu time   42.9450: real time   43.0464
    ORTHCH:  cpu time    1.2272: real time    1.2300
       DOS:  cpu time    0.0021: real time    0.0021
    CHARGE:  cpu time    5.1521: real time    5.1644
    MIXING:  cpu time    0.0152: real time    0.0152
    --------------------------------------------
      LOOP:  cpu time   62.1435: real time   62.2906

 eigenvalue-minimisations  :  8524
 total energy-change (2. order) :-0.2113703E+01  (-0.9335261E-01)
 number of electron     801.9999987 magnetization      45.8805183
 augmentation part      248.2116249 magnetization      27.9147463

 Broyden mixing:
  rms(total) = 0.61403E+00    rms(broyden)= 0.61403E+00
  rms(prec ) = 0.66929E+00
  weight for this iteration     100.00

 eigenvalues of (default mixing * dielectric matrix)
  average eigenvalue GAMMA=   0.7234
  1.9470  1.5837  0.9158  0.9158  0.6630  0.1044  0.3276  0.2814  0.2814  0.2142

 Free energy of the ion-electron system (eV)
  ---------------------------------------------------
  alpha Z        PSCENC =      2543.22265468
  Ewald energy   TEWEN  =    178632.40053156
  -Hartree energ DENC   =   -242015.01999631
  -exchange      EXHF   =         0.00000000
  -V(xc)+E(xc)   XCENC  =       265.35453514
  PAW double counting   =     72147.62741688   -70115.45511067
  entropy T*S    EENTRO =         0.17154208
  eigenvalues    EBANDS =      -278.78548614
  atomic energy  EATOM  =     58354.21911236
  Solvation  Ediel_sol  =         0.00000000
  ---------------------------------------------------
  free energy    TOTEN  =      -466.26480043 eV

  energy without entropy =     -466.43634251  energy(sigma->0) =     -466.32198112


--------------------------------------------------------------------------------------------------------




--------------------------------------- Iteration      1(  16)  ---------------------------------------


    POTLOK:  cpu time    0.4860: real time    0.4871
    SETDIJ:  cpu time    0.0392: real time    0.0393
    EDDIAG:  cpu time   12.2862: real time   12.3154
  RMM-DIIS:  cpu time   43.1061: real time   43.2078
    ORTHCH:  cpu time    1.2311: real time    1.2340
       DOS:  cpu time    0.0021: real time    0.0021
    CHARGE:  cpu time    5.1470: real time    5.1591
    MIXING:  cpu time    0.0151: real time    0.0152
    --------------------------------------------
      LOOP:  cpu time   62.3129: real time   62.4600

 eigenvalue-minimisations  :  8516
 total energy-change (2. order) :-0.2465124E+01  (-0.1033804E+00)
 number of electron     801.9999987 magnetization      43.6052895
 augmentation part      248.1532919 magnetization      26.3332450

 Broyden mixing:
  rms(total) = 0.47716E+00    rms(broyden)= 0.47716E+00
  rms(prec ) = 0.51107E+00
  weight for this iteration     100.00

 eigenvalues of (default mixing * dielectric matrix)
  average eigenvalue GAMMA=   0.7342
  1.9703  1.9703  0.8857  0.8857  0.7016  0.4905  0.1044  0.2887  0.2887  0.2768
  0.2131

 Free energy of the ion-electron system (eV)
  ---------------------------------------------------
  alpha Z        PSCENC =      2543.22265468
  Ewald energy   TEWEN  =    178632.40053156
  -Hartree energ DENC   =   -242031.82136881
  -exchange      EXHF   =         0.00000000
  -V(xc)+E(xc)   XCENC  =       263.66443317
  PAW double counting   =     72205.41882672   -70173.66162575
  entropy T*S    EENTRO =         0.17479072
  eigenvalues    EBANDS =      -262.34727899
  atomic energy  EATOM  =     58354.21911236
  Solvation  Ediel_sol  =         0.00000000
  ---------------------------------------------------
  free energy    TOTEN  =      -468.72992434 eV

  energy without entropy =     -468.90471506  energy(sigma->0) =     -468.78818791


--------------------------------------------------------------------------------------------------------




--------------------------------------- Iteration      1(  17)  ---------------------------------------


    POTLOK:  cpu time    0.4873: real time    0.4884
    SETDIJ:  cpu time    0.0390: real time    0.0391
    EDDIAG:  cpu time   12.2917: real time   12.3208
  RMM-DIIS:  cpu time   43.1106: real time   43.2122
    ORTHCH:  cpu time    1.2306: real time    1.2335
       DOS:  cpu time    0.0021: real time    0.0021
    CHARGE:  cpu time    5.1431: real time    5.1553
    MIXING:  cpu time    0.0162: real time    0.0163
    --------------------------------------------
      LOOP:  cpu time   62.3205: real time   62.4677

 eigenvalue-minimisations  :  8523
 total energy-change (2. order) :-0.1375530E+01  (-0.5698089E-01)
 number of electron     801.9999987 magnetization      39.6066205
 augmentation part      248.0885688 magnetization      22.6624208

 Broyden mixing:
  rms(total) = 0.40255E+00    rms(broyden)= 0.40255E+00
  rms(prec ) = 0.43108E+00
  weight for this iteration     100.00

 eigenvalues of (default mixing * dielectric matrix)
  average eigenvalue GAMMA=   0.8189
  2.4584  2.4584  1.0054  1.0054  0.7233  0.6831  0.1044  0.3333  0.2924  0.2924
  0.2578  0.2129

 Free energy of the ion-electron system (eV)
  ---------------------------------------------------
  alpha Z        PSCENC =      2543.22265468
  Ewald energy   TEWEN  =    178632.40053156
  -Hartree energ DENC   =   -242035.02100402
  -exchange      EXHF   =         0.00000000
  -V(xc)+E(xc)   XCENC  =       262.73218108
  PAW double counting   =     72193.44362843   -70161.21337972
  entropy T*S    EENTRO =         0.17922985
  eigenvalues    EBANDS =      -260.06840883
  atomic energy  EATOM  =     58354.21911236
  Solvation  Ediel_sol  =         0.00000000
  ---------------------------------------------------
  free energy    TOTEN  =      -470.10545461 eV

  energy without entropy =     -470.28468446  energy(sigma->0) =     -470.16519789


--------------------------------------------------------------------------------------------------------




--------------------------------------- Iteration      1(  18)  ---------------------------------------


    POTLOK:  cpu time    0.4878: real time    0.4890
    SETDIJ:  cpu time    0.0390: real time    0.0391
    EDDIAG:  cpu time   12.2907: real time   12.3201
  RMM-DIIS:  cpu time   42.9505: real time   43.0531
    ORTHCH:  cpu time    1.2291: real time    1.2320
       DOS:  cpu time    0.0021: real time    0.0021
    CHARGE:  cpu time    5.1694: real time    5.1817
    MIXING:  cpu time    0.0161: real time    0.0161
    --------------------------------------------
      LOOP:  cpu time   62.1848: real time   62.3331

 eigenvalue-minimisations  :  8514
 total energy-change (2. order) :-0.1625955E+01  (-0.7529748E-01)
 number of electron     801.9999987 magnetization      36.6621235
 augmentation part      248.0186314 magnetization      20.4144903

 Broyden mixing:
  rms(total) = 0.40427E+00    rms(broyden)= 0.40427E+00
  rms(prec ) = 0.44602E+00
  weight for this iteration     100.00

 eigenvalues of (default mixing * dielectric matrix)
  average eigenvalue GAMMA=   0.9043
  4.0253  2.2043  1.1128  1.1128  0.6935  0.6935  0.4688  0.1044  0.2864  0.2864
  0.3101  0.2122  0.2450

 Free energy of the ion-electron system (eV)
  ---------------------------------------------------
  alpha Z        PSCENC =      2543.22265468
  Ewald energy   TEWEN  =    178632.40053156
  -Hartree energ DENC   =   -242030.10262417
  -exchange      EXHF   =         0.00000000
  -V(xc)+E(xc)   XCENC  =       261.58425179
  PAW double counting   =     72146.33079282   -70113.07273115
  entropy T*S    EENTRO =         0.18748005
  eigenvalues    EBANDS =      -266.50087805
  atomic energy  EATOM  =     58354.21911236
  Solvation  Ediel_sol  =         0.00000000
  ---------------------------------------------------
  free energy    TOTEN  =      -471.73141010 eV

  energy without entropy =     -471.91889015  energy(sigma->0) =     -471.79390345


--------------------------------------------------------------------------------------------------------




--------------------------------------- Iteration      1(  19)  ---------------------------------------


    POTLOK:  cpu time    0.4830: real time    0.4841
    SETDIJ:  cpu time    0.0397: real time    0.0398
    EDDIAG:  cpu time   12.2860: real time   12.3150
  RMM-DIIS:  cpu time   43.1435: real time   43.2455
    ORTHCH:  cpu time    1.2263: real time    1.2292
       DOS:  cpu time    0.0021: real time    0.0021
    CHARGE:  cpu time    5.1654: real time    5.1776
    MIXING:  cpu time    0.0165: real time    0.0166
    --------------------------------------------
      LOOP:  cpu time   62.3625: real time   62.5099

 eigenvalue-minimisations  :  8521
 total energy-change (2. order) :-0.5353252E+00  (-0.3017601E-01)
 number of electron     801.9999987 magnetization      34.8275113
 augmentation part      248.0179036 magnetization      19.0887068

 Broyden mixing:
  rms(total) = 0.31120E+00    rms(broyden)= 0.31120E+00
  rms(prec ) = 0.33977E+00
  weight for this iteration     100.00

 eigenvalues of (default mixing * dielectric matrix)
  average eigenvalue GAMMA=   0.9307
  4.8270  2.1344  1.1878  1.1878  0.6751  0.6751  0.5781  0.1044  0.3577  0.2877
  0.2877  0.2822  0.2124  0.2317

 Free energy of the ion-electron system (eV)
  ---------------------------------------------------
  alpha Z        PSCENC =      2543.22265468
  Ewald energy   TEWEN  =    178632.40053156
  -Hartree energ DENC   =   -242023.87928948
  -exchange      EXHF   =         0.00000000
  -V(xc)+E(xc)   XCENC  =       260.97433058
  PAW double counting   =     72159.04651950   -70125.87679109
  entropy T*S    EENTRO =         0.17753600
  eigenvalues    EBANDS =      -272.55133944
  atomic energy  EATOM  =     58354.21911236
  Solvation  Ediel_sol  =         0.00000000
  ---------------------------------------------------
  free energy    TOTEN  =      -472.26673533 eV

  energy without entropy =     -472.44427133  energy(sigma->0) =     -472.32591400


--------------------------------------------------------------------------------------------------------




--------------------------------------- Iteration      1(  20)  ---------------------------------------


    POTLOK:  cpu time    0.4842: real time    0.4854
    SETDIJ:  cpu time    0.0397: real time    0.0398
    EDDIAG:  cpu time   12.2821: real time   12.3112
  RMM-DIIS:  cpu time   43.0957: real time   43.1981
    ORTHCH:  cpu time    1.2321: real time    1.2350
       DOS:  cpu time    0.0022: real time    0.0022
    CHARGE:  cpu time    5.1744: real time    5.1866
    MIXING:  cpu time    0.0172: real time    0.0172
    --------------------------------------------
      LOOP:  cpu time   62.3277: real time   62.4754

 eigenvalue-minimisations  :  8520
 total energy-change (2. order) :-0.2010593E+00  (-0.1040223E-01)
 number of electron     801.9999987 magnetization      32.9511449
 augmentation part      248.0515236 magnetization      17.5056338

 Broyden mixing:
  rms(total) = 0.24092E+00    rms(broyden)= 0.24092E+00
  rms(prec ) = 0.25640E+00
  weight for this iteration     100.00

 eigenvalues of (default mixing * dielectric matrix)
[...]
   -.173E+00 0.417E+00 0.260E+04   0.172E+00 -.433E+00 -.260E+04   -.190E-01 0.893E-02 -.141E+01   0.143E-01 0.630E-02 0.201E-01
   0.198E-01 -.451E+00 0.132E+04   -.880E-02 0.454E+00 -.132E+04   0.837E-02 0.711E-02 -.760E+00   -.219E-01 -.133E-01 -.145E-01
   0.646E-01 -.114E+01 0.132E+04   -.790E-01 0.106E+01 -.132E+04   0.767E-02 0.513E-01 -.731E+00   0.510E-02 0.364E-01 -.789E-02
   0.141E+01 0.289E+00 -.130E+04   -.143E+01 -.271E+00 0.130E+04   0.548E-02 -.249E-01 0.732E+00   -.444E-03 0.653E-02 -.507E-01
   -.127E+00 0.708E+00 0.260E+04   0.114E+00 -.704E+00 -.260E+04   -.134E-01 0.857E-03 -.146E+01   0.226E-01 -.141E-02 0.813E-02
   -.187E+00 -.105E+00 0.132E+04   0.198E+00 0.130E+00 -.132E+04   -.864E-02 -.218E-02 -.743E+00   -.961E-03 -.236E-01 -.232E-01
   0.143E+01 -.289E+00 0.123E+02   -.140E+01 0.260E+00 -.124E+02   -.322E-01 0.301E-01 0.484E-01   0.616E-02 -.238E-02 -.954E-02
   0.772E+00 0.975E+00 -.130E+04   -.771E+00 -.100E+01 0.130E+04   -.120E-01 0.117E-01 0.726E+00   0.723E-02 -.157E-02 -.511E-01
   0.261E+01 0.138E+01 -.134E+04   -.266E+01 -.141E+01 0.134E+04   0.664E-01 0.323E-01 0.971E+00   -.575E-02 0.235E-02 -.349E-01
   -.228E+01 -.112E+01 -.130E+04   0.245E+01 0.123E+01 0.130E+04   -.166E+00 -.103E+00 0.577E+00   0.326E-02 0.407E-04 -.801E-01
   0.440E+00 -.653E+00 0.260E+04   -.442E+00 0.638E+00 -.260E+04   -.119E-01 0.332E-02 -.146E+01   0.121E-01 0.117E-01 0.739E-02
   0.577E+00 0.687E-01 0.260E+04   -.556E+00 -.659E-01 -.260E+04   -.129E-01 0.760E-02 -.145E+01   -.101E-01 -.671E-02 -.172E-01
   -.211E-01 0.143E+00 0.260E+04   0.217E-01 -.143E+00 -.260E+04   -.111E-01 0.179E-02 -.148E+01   0.504E-02 -.871E-03 0.198E-01
   0.256E+00 -.178E+00 0.132E+04   -.281E+00 0.155E+00 -.132E+04   0.675E-02 0.438E-02 -.764E+00   0.185E-01 0.289E-01 -.167E-01
   0.117E+01 0.545E+00 0.700E+01   -.120E+01 -.561E+00 -.696E+01   0.333E-01 0.167E-01 -.349E-01   -.718E-02 -.158E-02 -.589E-02
   0.185E+00 0.357E+00 0.132E+04   -.216E+00 -.368E+00 -.132E+04   0.186E-02 0.934E-02 -.759E+00   0.357E-01 -.779E-04 -.179E-01
   0.204E+00 0.428E+00 0.132E+04   -.190E+00 -.387E+00 -.132E+04   -.147E-02 -.215E-01 -.719E+00   -.203E-01 -.260E-01 -.368E-02
   -.196E+01 0.452E+01 -.131E+04   0.196E+01 -.476E+01 0.131E+04   -.149E-01 0.225E+00 0.560E+00   0.248E-01 0.180E-04 -.548E-01
   -.242E+00 0.214E+00 0.260E+04   0.266E+00 -.238E+00 -.260E+04   -.906E-02 0.242E-01 -.144E+01   -.196E-01 0.483E-02 -.660E-02
   -.926E-01 0.452E-01 0.132E+04   0.800E-01 -.534E-01 -.132E+04   -.212E-02 0.136E-02 -.717E+00   0.179E-01 0.112E-01 -.218E-02
   -.284E-01 0.265E+01 0.104E+02   0.267E-01 -.262E+01 -.104E+02   -.103E-01 -.360E-01 0.399E-01   0.148E-01 0.417E-02 -.771E-02
   0.854E+00 0.432E+00 -.259E+04   -.805E+00 -.406E+00 0.259E+04   -.253E-01 -.203E-01 0.133E+01   -.137E-01 -.309E-02 0.329E-02
   0.235E+01 0.148E+01 -.259E+04   -.234E+01 -.146E+01 0.259E+04   0.153E-01 -.291E-01 0.133E+01   -.120E-01 -.255E-02 0.536E-04
   0.110E+01 -.296E+01 -.259E+04   -.110E+01 0.295E+01 0.259E+04   -.181E-01 -.108E-01 0.136E+01   0.134E-01 0.166E-01 -.114E-01
   0.170E+01 -.262E+01 -.258E+04   -.141E+01 0.237E+01 0.258E+04   -.289E+00 0.265E+00 0.150E+01   0.515E-02 -.387E-02 -.286E-01
   -.157E+01 0.289E+01 -.258E+04   0.149E+01 -.251E+01 0.258E+04   0.990E-01 -.402E+00 0.150E+01   -.270E-02 0.113E-01 -.306E-01
   -.187E+01 0.250E+01 -.259E+04   0.186E+01 -.248E+01 0.259E+04   -.114E-01 -.236E-01 0.136E+01   0.175E-01 0.500E-02 -.132E-01
   -.184E+01 -.913E+00 -.259E+04   0.175E+01 0.868E+00 0.259E+04   0.615E-01 0.233E-01 0.132E+01   0.170E-01 0.111E-01 -.109E-01
   -.882E+00 -.695E+00 -.259E+04   0.920E+00 0.753E+00 0.259E+04   0.383E-02 -.598E-01 0.137E+01   -.380E-01 -.175E-01 -.860E-02
   -.122E+01 -.327E+00 -.259E+04   0.128E+01 0.331E+00 0.259E+04   -.395E-01 0.197E-01 0.136E+01   -.372E-01 -.158E-01 -.684E-02
   0.259E+01 0.137E+01 -.259E+04   -.256E+01 -.137E+01 0.259E+04   -.158E-01 0.152E-01 0.133E+01   -.977E-02 -.612E-02 -.248E-02
   0.924E+01 -.147E+02 -.258E+04   -.998E+01 0.160E+02 0.258E+04   0.749E+00 -.134E+01 0.981E+00   -.533E-02 0.211E-01 -.488E-01
   -.790E+01 0.154E+02 -.258E+04   0.867E+01 -.167E+02 0.258E+04   -.792E+00 0.133E+01 0.101E+01   0.100E-01 -.104E-01 -.491E-01
   -.323E+01 0.370E+01 -.258E+04   0.291E+01 -.342E+01 0.258E+04   0.337E+00 -.297E+00 0.151E+01   0.381E-02 0.324E-02 -.110E-01
   0.123E+01 -.467E+01 -.258E+04   -.115E+01 0.426E+01 0.258E+04   -.772E-01 0.425E+00 0.151E+01   -.101E-03 0.485E-02 -.117E-01
   -.179E+01 -.660E+01 -.133E+04   0.184E+01 0.668E+01 0.132E+04   -.476E-01 -.103E+00 0.674E+00   0.704E-02 0.261E-01 -.612E-01
   0.334E+00 -.105E+01 0.260E+04   -.300E+00 0.103E+01 -.260E+04   -.224E-01 0.373E-01 -.146E+01   -.141E-01 -.206E-01 -.182E-03
   -.964E-01 -.172E+01 -.130E+04   0.143E+00 0.174E+01 0.130E+04   -.243E-01 -.270E-01 0.746E+00   -.251E-01 0.120E-02 -.643E-01
   0.401E+00 -.779E+00 0.260E+04   -.411E+00 0.776E+00 -.260E+04   -.984E-02 0.149E-02 -.141E+01   0.140E-01 0.286E-02 0.181E-01
   -.906E+00 0.523E+00 0.132E+04   0.833E+00 -.501E+00 -.132E+04   0.464E-01 -.149E-01 -.733E+00   0.392E-01 -.139E-01 -.884E-02
   -.350E+00 0.762E+00 0.133E+04   0.334E+00 -.773E+00 -.133E+04   -.102E-01 0.619E-02 -.728E+00   0.254E-01 0.985E-03 -.960E-02
   -.189E+00 -.303E+00 -.130E+04   0.147E+00 0.280E+00 0.130E+04   0.991E-02 0.277E-02 0.744E+00   0.250E-01 0.151E-01 -.565E-01
   -.337E+00 -.474E+00 0.260E+04   0.359E+00 0.485E+00 -.260E+04   -.202E-01 0.171E-02 -.145E+01   -.679E-02 -.114E-01 0.766E-02
   -.338E+00 -.287E+00 0.132E+04   0.360E+00 0.286E+00 -.132E+04   -.820E-02 0.263E-02 -.745E+00   -.150E-01 0.448E-02 -.240E-01
   0.676E+01 0.399E+01 -.257E+04   -.712E+01 -.420E+01 0.257E+04   0.381E+00 0.212E+00 0.325E+00   0.104E-01 0.787E-02 -.301E-01
   -.109E+01 -.430E+00 -.735E+01   0.104E+01 0.398E+00 0.744E+01   0.475E-01 0.252E-01 -.775E-01   -.205E-02 0.659E-03 -.118E-01
   -.968E+01 -.560E+01 -.257E+04   0.978E+01 0.565E+01 0.257E+04   -.111E+00 -.704E-01 0.228E-01   -.885E-02 0.968E-03 -.475E-01
   0.453E+00 -.664E+00 0.133E+04   -.472E+00 0.658E+00 -.133E+04   0.254E-02 -.508E-02 -.722E+00   0.133E-01 0.163E-01 -.788E-02
   -.428E+00 -.169E+00 0.133E+04   0.403E+00 0.158E+00 -.133E+04   0.561E-02 0.644E-02 -.597E+00   0.176E-01 0.527E-02 -.119E-01
   -.456E+00 0.187E+00 0.944E+01   0.457E+00 -.171E+00 -.940E+01   -.238E-02 0.102E-01 -.140E-01   0.226E-02 -.238E-01 -.373E-01
   0.467E+01 0.838E+00 -.131E+04   -.478E+01 -.761E+00 0.131E+04   0.140E+00 -.504E-01 0.686E+00   -.264E-01 -.146E-01 -.462E-01
   -.663E+01 0.174E+01 -.133E+04   0.673E+01 -.174E+01 0.132E+04   -.113E+00 0.279E-02 0.677E+00   0.271E-01 -.382E-02 -.619E-01
   0.717E+00 0.323E-01 0.260E+04   -.735E+00 -.452E-01 -.260E+04   -.104E-01 0.108E-01 -.145E+01   0.288E-01 0.484E-02 -.666E-02
   -.871E+00 0.630E+00 0.260E+04   0.881E+00 -.605E+00 -.260E+04   0.131E-01 -.177E-01 -.145E+01   -.229E-01 -.400E-02 0.213E-02
   0.496E+00 0.674E-01 0.132E+04   -.452E+00 -.770E-01 -.132E+04   -.197E-01 0.122E-01 -.716E+00   -.336E-01 -.288E-02 -.619E-02
   0.960E+00 0.424E+00 0.132E+04   -.883E+00 -.384E+00 -.132E+04   -.525E-01 -.265E-01 -.734E+00   -.359E-01 -.185E-01 -.427E-02
   -.197E+01 -.128E+01 0.168E+02   0.189E+01 0.124E+01 -.168E+02   0.687E-01 0.375E-01 0.140E-01   0.178E-01 0.758E-02 -.146E-01
   0.285E+01 -.373E+01 -.131E+04   -.306E+01 0.384E+01 0.131E+04   0.193E+00 -.130E+00 0.561E+00   0.823E-02 0.237E-01 -.537E-01
   -.517E-01 -.149E+00 0.260E+04   0.404E-01 0.179E+00 -.260E+04   0.102E-01 -.522E-02 -.144E+01   -.393E-03 -.250E-01 -.975E-02
   -.397E-01 0.292E-01 0.988E+01   0.452E-01 -.242E-01 -.981E+01   -.213E-01 -.121E-01 -.428E-01   0.744E-02 0.363E-02 -.343E-01
   0.580E-01 0.198E+01 -.658E+00   -.920E-01 -.192E+01 0.640E+00   0.384E-01 -.457E-01 0.910E-02   0.835E-03 -.302E-02 0.120E-01
   0.183E+01 -.824E+00 -.450E+00   -.180E+01 0.760E+00 0.428E+00   -.165E-01 0.517E-01 0.132E-01   -.491E-02 0.721E-02 0.126E-01
   -.762E+00 0.171E+01 0.262E+01   0.816E+00 -.166E+01 -.259E+01   -.607E-01 -.401E-01 0.480E-02   0.215E-02 -.141E-01 -.260E-01
   0.289E+00 0.161E+01 0.123E+02   -.302E+00 -.158E+01 -.124E+02   0.141E-01 -.460E-01 0.490E-01   -.922E-03 0.704E-02 -.750E-02
   -.528E+00 0.594E+00 0.132E+04   0.534E+00 -.582E+00 -.132E+04   0.575E-02 0.355E-02 -.760E+00   -.174E-01 -.165E-01 -.172E-01
   -.701E-01 -.459E+00 0.957E+01   0.848E-01 0.452E+00 -.952E+01   0.140E-01 -.103E-01 -.130E-01   -.220E-01 0.155E-01 -.367E-01
   -.217E-01 -.236E+01 -.130E+04   0.187E-01 0.238E+01 0.130E+04   0.415E-03 -.408E-01 0.761E+00   -.409E-02 0.250E-01 -.552E-01
   0.318E+01 0.380E+01 -.131E+04   -.317E+01 -.394E+01 0.131E+04   0.301E-01 0.131E+00 0.690E+00   -.298E-01 -.876E-02 -.465E-01
   -.515E-01 0.978E-01 0.260E+04   0.575E-01 -.457E-01 -.260E+04   -.271E-02 -.280E-01 -.146E+01   -.407E-02 -.230E-01 0.138E-01
   0.593E+00 0.517E+00 0.260E+04   -.607E+00 -.531E+00 -.260E+04   -.826E-02 0.195E-03 -.145E+01   0.206E-01 0.164E-01 -.556E-02
   -.232E+01 -.283E+00 0.763E+01   0.229E+01 0.243E+00 -.764E+01   0.207E-01 0.374E-01 0.416E-01   0.371E-02 -.110E-01 -.293E-01
   0.216E+01 -.139E+01 0.102E+02   -.214E+01 0.138E+01 -.103E+02   -.347E-01 0.467E-02 0.372E-01   0.116E-01 0.805E-02 -.547E-02
   0.747E-01 -.254E+00 0.132E+04   -.531E-01 0.268E+00 -.132E+04   -.219E-01 -.667E-02 -.752E+00   -.260E-02 -.400E-02 -.461E-01
   0.123E+01 -.164E+01 0.272E+01   -.115E+01 0.167E+01 -.270E+01   -.614E-01 -.384E-01 0.683E-02   -.153E-01 0.731E-02 -.239E-01
   -.159E+01 -.194E+01 0.734E+01   0.154E+01 0.194E+01 -.734E+01   0.451E-01 -.250E-02 0.336E-01   -.907E-02 0.741E-02 -.275E-01
   -.120E+01 -.596E+00 -.302E+03   0.159E+01 0.814E+00 0.303E+03   -.396E+00 -.221E+00 -.134E+01   -.259E-03 -.107E-03 0.361E-03
   0.233E+01 0.142E+01 -.303E+03   -.286E+01 -.174E+01 0.304E+03   0.545E+00 0.323E+00 -.138E+01   0.164E-02 0.114E-02 0.590E-04
 -----------------------------------------------------------------------------------------------
   -.261E+00 -.195E+00 0.856E+01   0.146E-12 0.213E-12 -.466E-11   0.264E+00 0.161E+00 -.699E+01   0.211E-01 0.149E-01 -.159E+01
 
 
 POSITION                                       TOTAL-FORCE (eV/Angst)
 -----------------------------------------------------------------------------------
     13.68746      8.44850      7.18799         0.003347      0.000216     -0.004254
      5.27175      8.44802      7.18560         0.001866     -0.011719     -0.001198
      3.86796      6.01657      7.18196        -0.005004      0.000359     -0.009132
     13.69572      8.43829      0.50580        -0.005660      0.002100      0.000713
      5.28026      8.43805      0.50431        -0.003833      0.004185     -0.001036
      3.87721      6.01071      0.50257        -0.006792     -0.000560      0.003416
      8.08147      1.96257      2.77358        -0.002460     -0.002240     -0.004670
      9.48300      9.24441      2.77255        -0.001976      0.013786     -0.004335
      2.46158      3.58669      7.17913        -0.012725     -0.000621     -0.004014
      2.47294      3.58220      0.50393        -0.004661      0.004072      0.012647
     10.88302      1.96384      2.77245         0.001395     -0.000202     -0.008521
     13.69049      5.20447      4.97360        -0.002256     -0.003408      0.001196
      3.86384      1.15700      7.17970        -0.003068     -0.014553     -0.005044
      9.47734      6.01727      7.22599         0.002986     -0.001120      0.006235
      5.26471      3.58571      7.17957         0.013645      0.003918      0.000323
      3.87849      1.14722      0.50447        -0.001823     -0.000239      0.012720
      9.48797      6.00854      0.51078        -0.002862      0.003845     -0.001927
      5.28120      3.58044      0.50666        -0.005416      0.002000      0.012064
     12.28994      9.25052      2.77200        -0.000051      0.009648     -0.011381
     12.28406      7.63351      4.98245        -0.002057     -0.002081      0.003069
     13.69197      6.82316      2.77149         0.005881     -0.001894     -0.009836
      9.48202      4.39535      2.77908        -0.008297     -0.005543      0.004786
      8.07413      8.43663      7.20524         0.011246     -0.020091      0.001032
      8.08463      8.43727      0.50556        -0.005541      0.004654      0.001180
     10.88578      6.82199      2.77486         0.001711      0.004315      0.004599
      2.46556      0.34449      4.97583         0.003307      0.001091      0.001530
     15.09155      9.26242      9.45622         0.011309      0.002666      0.006568
      3.84292      4.39804      9.44728         0.016404     -0.009059      0.003083
      6.66185      9.26942      9.45787         0.003186     -0.010398      0.004791
     12.30393      4.38304      9.45066         0.008306      0.004080     -0.015216
      9.47124      9.28862      9.45127         0.015018     -0.002242     -0.016335
     10.88274      1.95945      9.45825        -0.004188      0.001631      0.004519
      2.45247      1.96613      9.44875        -0.010543     -0.010912      0.004471
     12.28985      9.27552      9.45496         0.001497     -0.017782     -0.004805
     13.70185      6.82996      9.45513        -0.009643      0.005243     -0.008398
      5.25475      1.95322      9.44747         0.003064      0.012297      0.000535
      8.04462      6.87425      9.54200        -0.009029      0.012304      0.007818
      9.50009      4.35498      9.54108         0.008071     -0.017822      0.007257
      5.23711      6.84867      9.45278         0.018020     -0.012339     -0.000282
      8.07328      1.93551      9.45320         0.002264      0.014305     -0.000596
      8.07365      3.59290      7.21583         0.008596      0.016834      0.001014
      8.08543      3.57781      0.50862        -0.003191      0.004420     -0.001347
      6.67221      1.15952      7.18196        -0.002457     -0.005856     -0.009315
      6.68412      1.14797      0.50295        -0.005862      0.001632      0.003008
     12.28267      4.39528      2.77259         0.010479     -0.005655     -0.006628
      3.87360      4.39473      2.76794        -0.001361     -0.003201     -0.024717
      1.06003      1.15720      7.18314        -0.007557     -0.006043     -0.007368
      1.06870      1.14778      0.50495        -0.004760      0.001888      0.004801
      6.67716      9.24805      2.77264        -0.000716      0.006480     -0.007991
      6.57986      4.34830      9.48746         0.011857      0.001347      0.010534
      8.07780      5.20569      4.99921        -0.010847     -0.006766     -0.003009
     10.95866      6.87648      9.48662         0.004832     -0.000111      0.010306
      5.27763      1.96228      2.76769        -0.003010      0.005114     -0.023051
      2.46618      1.96107      2.75904        -0.002448      0.001142     -0.016697
     15.09252      7.63514      4.97968         0.001808      0.001683     -0.000148
     12.28373      6.01557      7.18885        -0.006960      0.010638      0.012288
      6.67596      6.01412      7.21566         0.018829     -0.003364      0.002726
     12.29403      6.00888      0.50492         0.000305      0.002678     -0.000058
      6.68155      6.00950      0.50875        -0.000790      0.003926     -0.000601
      8.08275      6.81953      2.77890        -0.009601     -0.000130      0.005316
      6.68464      4.39569      2.77701        -0.010979     -0.004018     -0.006073
      3.86141      2.77083      4.96792         0.000886      0.000280      0.003508
     10.87085      3.59269      7.20506        -0.007348      0.018244      0.000165
     10.88870      3.57976      0.50575        -0.002886      0.000551     -0.000350
     10.88425      0.34665      4.98015        -0.006178     -0.001779     -0.000975
      9.47810      7.63121      4.98972         0.003700      0.014295     -0.000655
     10.87894      5.20530      4.98939         0.016522     -0.005840      0.000263
      6.67943      7.63195      4.98654        -0.002615     -0.005229      0.001362
      5.27140      0.34797      4.97372        -0.002101     -0.001562      0.001122
      5.27561      6.82348      2.77346        -0.005418     -0.000648     -0.005583
      8.07798      0.34644      4.97986         0.005939      0.000601     -0.000115
      9.47922      1.16037      7.18626        -0.006026      0.004919     -0.001527
     10.87876      8.44961      7.18858         0.006117     -0.017684      0.014321
      9.48776      1.14989      0.50473        -0.001043      0.002124      0.001254
     10.89125      8.43894      0.50455        -0.001893      0.003389      0.000736
      5.27512      5.20576      4.97927        -0.001691     -0.015458      0.004320
     12.28445      2.77546      4.97593         0.001446      0.001582      0.002763
     15.09614      9.25208      2.77232        -0.002640      0.003515     -0.014605
      9.48012      2.78076      4.98637        -0.004987     -0.001861      0.002437
      6.67618      2.77775      4.97976        -0.012852      0.007515      0.000388
      7.91110      5.12015     10.32804        -0.007933     -0.005629      0.019500
      9.65815      6.13090     10.34442         0.020199      0.014148      0.035114
 -----------------------------------------------------------------------------------
    total drift:                                0.023658     -0.018869     -0.018284


--------------------------------------------------------------------------------------------------------



  FREE ENERGIE OF THE ION-ELECTRON SYSTEM (eV)
  ---------------------------------------------------
  free  energy   TOTEN  =      -520.84801973 eV

  energy  without entropy=     -520.99042568  energy(sigma->0) =     -520.89548838
 
 d Force = 0.2168234E-02[ 0.895E-03, 0.344E-02]  d Energy = 0.2187219E-02-0.190E-04
 d Force =-0.1230142E+01[-0.125E+01,-0.121E+01]  d Ewald  =-0.1230131E+01-0.110E-04


--------------------------------------------------------------------------------------------------------


    POTLOK:  cpu time    0.5243: real time    0.5256


--------------------------------------------------------------------------------------------------------


 Conjugate gradient step on ions:
 trial-energy change:   -0.002187  1 .order   -0.002168   -0.003441   -0.000895
  (g-gl).g = 0.201E-02      g.g   = 0.199E-02  gl.gl    = 0.310E-02
 g(Force)  = 0.199E-02   g(Stress)= 0.000E+00 ortho     = 0.691E-04
 gamma     =   0.64834
 trial     =   1.69503
 opt step  =   2.29121  (harmonic =   2.29121) maximal distance =0.01214030
 next E    =  -520.848158   (d E  =  -0.00233)


--------------------------------------------------------------------------------------------------------


  
 reached required accuracy - stopping structural energy minimisation
     LOOP+:  cpu time  626.5466: real time  628.0362
    4ORBIT:  cpu time    0.0000: real time    0.0000

 total amount of memory used by VASP MPI-rank0   262984. kBytes
=======================================================================

   base      :      30000. kBytes
   nonlr-proj:      38146. kBytes
   fftplans  :      20287. kBytes
   grid      :      52194. kBytes
   one-center:        653. kBytes
   wavefun   :     121704. kBytes
 
  
  
 General timing and accounting informations for this job:
 ========================================================
  
                  Total CPU time used (sec):    10355.450
                            User time (sec):    10342.695
                          System time (sec):       12.756
                         Elapsed time (sec):    10380.846
  
                   Maximum memory used (kb):      843616.
                   Average memory used (kb):           0.
  
                          Minor page faults:      2371388
                          Major page faults:            0
                 Voluntary context switches:         3321
