 vasp.5.4.4.18Apr17-6-g9f103f2a35 (build Oct 25 2019 11:13:22) complex          
  
 executed on             LinuxIFC date 2022.02.04  18:45:15
 running on   48 total cores
 distrk:  each k-point on   48 cores,    1 groups
 distr:  one band on NCORES_PER_BAND=   1 cores,   48 groups


--------------------------------------------------------------------------------------------------------


 INCAR:
 POTCAR:    PAW_PBE Pt 04Feb2005                  
 POTCAR:    PAW_PBE Fe 06Sep2000                  
 POTCAR:    PAW_PBE Co 02Aug2007                  
 POTCAR:    PAW_PBE Cu 22Jun2005                  
 POTCAR:    PAW_PBE Ni 02Aug2007                  
 POTCAR:    PAW_PBE H 15Jun2001                   

 ----------------------------------------------------------------------------- 
|                                                                             |
|           W    W    AA    RRRRR   N    N  II  N    N   GGGG   !!!           |
|           W    W   A  A   R    R  NN   N  II  NN   N  G    G  !!!           |
|           W    W  A    A  R    R  N N  N  II  N N  N  G       !!!           |
|           W WW W  AAAAAA  RRRRR   N  N N  II  N  N N  G  GGG   !            |
|           WW  WW  A    A  R   R   N   NN  II  N   NN  G    G                |
|           W    W  A    A  R    R  N    N  II  N    N   GGGG   !!!           |
|                                                                             |
|      For optimal performance we recommend to set                            |
|        NCORE= 4 - approx SQRT( number of cores)                             |
|      NCORE specifies how many cores store one orbital (NPAR=cpu/NCORE).     |
|      This setting can  greatly improve the performance of VASP for DFT.     |
|      The default,   NCORE=1            might be grossly inefficient         |
|      on modern multi-core architectures or massively parallel machines.     |
|      Do your own testing !!!!                                               |
|      Unfortunately you need to use the default for GW and RPA calculations. |
|      (for HF NCORE is supported but not extensively tested yet)             |
|                                                                             |
 ----------------------------------------------------------------------------- 

 POTCAR:    PAW_PBE Pt 04Feb2005                  
   VRHFIN =Pt: s1d9                                                             
   LEXCH  = PE                                                                  
   EATOM  =   729.1176 eV,   53.5886 Ry                                         
                                                                                
   TITEL  = PAW_PBE Pt 04Feb2005                                                
   LULTRA =        F    use ultrasoft PP ?                                      
   IUNSCR =        1    unscreen: 0-lin 1-nonlin 2-no                           
   RPACOR =    2.330    partial core radius                                     
   POMASS =  195.080; ZVAL   =   10.000    mass and valenz                      
   RCORE  =    2.600    outmost cutoff radius                                   
   RWIGS  =    2.750; RWIGS  =    1.455    wigner-seitz radius (au A)           
   ENMAX  =  230.283; ENMIN  =  172.712 eV                                      
   ICORE  =        3    local potential                                         
   LCOR   =        T    correct aug charges                                     
   LPAW   =        T    paw PP                                                  
   EAUG   =  358.966                                                            
   DEXC   =    0.000                                                            
   RMAX   =    2.658    core radius for proj-oper                               
   RAUG   =    1.300    factor for augmentation sphere                          
   RDEP   =    2.761    radius for radial grids                                 
   RDEPT  =    2.203    core radius for aug-charge                              
                                                                                
   Atomic configuration                                                         
   16 entries                                                                   
     n  l   j            E        occ.                                          
     1  0  0.50    -78401.1885   2.0000                                         
     2  0  0.50    -13770.7750   2.0000                                         
     2  1  1.50    -11931.0468   6.0000                                         
     3  0  0.50     -3234.7234   2.0000                                         
     3  1  1.50     -2699.2216   6.0000                                         
     3  2  2.50     -2119.5714  10.0000                                         
     4  0  0.50      -695.1528   2.0000                                         
     4  1  1.50      -519.6034   6.0000                                         
     4  2  2.50      -306.6786  10.0000                                         
     4  3  3.50       -70.1041  14.0000                                         
     5  0  0.50      -101.7747   2.0000                                         
     5  1  1.50       -55.9873   6.0000                                         
     5  2  2.50        -6.1423   9.0000                                         
     6  0  0.50        -5.6573   1.0000                                         
     6  1  1.50        -6.8029   0.0000                                         
     5  3  2.50        -1.3606   0.0000                                         
   Description                                                                  
     l       E           TYP  RCUT    TYP  RCUT                                 
     2     -6.1423404     23  2.500                                             
     2     -7.5029230     23  2.500                                             
     0     -5.6573207     23  2.500                                             
     0      0.7416693     23  2.500                                             
     1     -2.7211652     23  2.600                                             
     1     20.4087390     23  2.600                                             
     3     -1.3605826     23  2.500                                             
  local pseudopotential read in
  partial core-charges read in
  partial kinetic energy density read in
  atomic valenz-charges read in
  non local Contribution for L=           2  read in
    real space projection operators read in
  non local Contribution for L=           2  read in
    real space projection operators read in
  non local Contribution for L=           0  read in
    real space projection operators read in
  non local Contribution for L=           0  read in
    real space projection operators read in
  non local Contribution for L=           1  read in
    real space projection operators read in
  non local Contribution for L=           1  read in
    real space projection operators read in
    PAW grid and wavefunctions read in
 
   number of l-projection  operators is LMAX  =           6
   number of lm-projection operators is LMMAX =          18
 
 POTCAR:    PAW_PBE Fe 06Sep2000                  
   VRHFIN =Fe:  d7 s1                                                           
   LEXCH  = PE                                                                  
   EATOM  =   594.3153 eV,   43.6809 Ry                                         
                                                                                
   TITEL  = PAW_PBE Fe 06Sep2000                                                
   LULTRA =        F    use ultrasoft PP ?                                      
   IUNSCR =        1    unscreen: 0-lin 1-nonlin 2-no                           
   RPACOR =    2.000    partial core radius                                     
   POMASS =   55.847; ZVAL   =    8.000    mass and valenz                      
   RCORE  =    2.300    outmost cutoff radius                                   
   RWIGS  =    2.460; RWIGS  =    1.302    wigner-seitz radius (au A)           
   ENMAX  =  267.882; ENMIN  =  200.911 eV                                      
   RCLOC  =    1.701    cutoff for local pot                                    
   LCOR   =        T    correct aug charges                                     
   LPAW   =        T    paw PP                                                  
   EAUG   =  511.368                                                            
   DEXC   =    0.000                                                            
   RMAX   =    2.356    core radius for proj-oper                               
   RAUG   =    1.300    factor for augmentation sphere                          
   RDEP   =    2.442    radius for radial grids                                 
   RDEPT  =    1.890    core radius for aug-charge                              
                                                                                
   Atomic configuration                                                         
    9 entries                                                                   
     n  l   j            E        occ.                                          
     1  0  0.50     -6993.8440   2.0000                                         
     2  0  0.50      -814.6047   2.0000                                         
     2  1  1.50      -693.3689   6.0000                                         
     3  0  0.50       -89.4732   2.0000                                         
     3  1  1.50       -55.6373   6.0000                                         
     3  2  2.50        -3.8151   7.0000                                         
     4  0  0.50        -4.2551   1.0000                                         
     4  1  1.50        -3.4015   0.0000                                         
     4  3  2.50        -1.3606   0.0000                                         
   Description                                                                  
     l       E           TYP  RCUT    TYP  RCUT                                 
     2     -3.8151135     23  2.300                                             
     2     -5.1756961     23  2.300                                             
     0     -4.2550963     23  2.300                                             
     0      7.2035603     23  2.300                                             
     1     -2.7211652     23  2.300                                             
     1     18.4316424     23  2.300                                             
  local pseudopotential read in
  partial core-charges read in
  partial kinetic energy density read in
  atomic valenz-charges read in
  non local Contribution for L=           2  read in
    real space projection operators read in
  non local Contribution for L=           2  read in
    real space projection operators read in
  non local Contribution for L=           0  read in
    real space projection operators read in
  non local Contribution for L=           0  read in
    real space projection operators read in
  non local Contribution for L=           1  read in
    real space projection operators read in
  non local Contribution for L=           1  read in
    real space projection operators read in
    PAW grid and wavefunctions read in
 
   number of l-projection  operators is LMAX  =           6
   number of lm-projection operators is LMMAX =          18
 
 POTCAR:    PAW_PBE Co 02Aug2007                  
   VRHFIN =Co: d8 s1                                                            
   LEXCH  = PE                                                                  
   EATOM  =   813.3670 eV,   59.7808 Ry                                         
                                                                                
   TITEL  = PAW_PBE Co 02Aug2007                                                
   LULTRA =        F    use ultrasoft PP ?                                      
   IUNSCR =        1    unscreen: 0-lin 1-nonlin 2-no                           
   RPACOR =    2.000    partial core radius                                     
   POMASS =   58.933; ZVAL   =    9.000    mass and valenz                      
   RCORE  =    2.300    outmost cutoff radius                                   
   RWIGS  =    2.460; RWIGS  =    1.302    wigner-seitz radius (au A)           
   ENMAX  =  267.968; ENMIN  =  200.976 eV                                      
   RCLOC  =    1.203    cutoff for local pot                                    
   LCOR   =        T    correct aug charges                                     
   LPAW   =        T    paw PP                                                  
   EAUG   =  477.818                                                            
   DEXC   =    0.000                                                            
   RMAX   =    2.360    core radius for proj-oper                               
   RAUG   =    1.300    factor for augmentation sphere                          
   RDEP   =    2.393    radius for radial grids                                 
   RDEPT  =    1.864    core radius for aug-charge                              
                                                                                
   Atomic configuration                                                         
    9 entries                                                                   
     n  l   j            E        occ.                                          
     1  0  0.50     -7587.6674   2.0000                                         
     2  0  0.50      -893.6084   2.0000                                         
     2  1  1.50      -764.5805   6.0000                                         
     3  0  0.50       -97.5973   2.0000                                         
     3  1  1.50       -60.9648   6.0000                                         
     3  2  2.50        -4.2382   8.0000                                         
     4  0  0.50        -4.3746   1.0000                                         
     4  1  1.50        -4.0817   0.0000                                         
     4  3  2.50        -1.3606   0.0000                                         
   Description                                                                  
     l       E           TYP  RCUT    TYP  RCUT                                 
     2     -4.2382362     23  2.300                                             
     2     -5.5988188     23  2.300                                             
     0     -4.3745797     23  2.300                                             
     0      5.7660125     23  2.300                                             
     1     -2.7211652     23  2.300                                             
     1     16.9860234     23  2.300                                             
  local pseudopotential read in
  partial core-charges read in
  partial kinetic energy density read in
  atomic valenz-charges read in
  non local Contribution for L=           2  read in
    real space projection operators read in
  non local Contribution for L=           2  read in
    real space projection operators read in
  non local Contribution for L=           0  read in
    real space projection operators read in
  non local Contribution for L=           0  read in
    real space projection operators read in
  non local Contribution for L=           1  read in
    real space projection operators read in
  non local Contribution for L=           1  read in
    real space projection operators read in
    PAW grid and wavefunctions read in
 
   number of l-projection  operators is LMAX  =           6
   number of lm-projection operators is LMMAX =          18
 
 POTCAR:    PAW_PBE Cu 22Jun2005                  
   VRHFIN =Cu: d10 p1                                                           
   LEXCH  = PE                                                                  
   EATOM  =  1390.9808 eV,  102.2342 Ry                                         
                                                                                
   TITEL  = PAW_PBE Cu 22Jun2005                                                
   LULTRA =        F    use ultrasoft PP ?                                      
   IUNSCR =        1    unscreen: 0-lin 1-nonlin 2-no                           
   RPACOR =    2.000    partial core radius                                     
   POMASS =   63.546; ZVAL   =   11.000    mass and valenz                      
   RCORE  =    2.300    outmost cutoff radius                                   
   RWIGS  =    2.200; RWIGS  =    1.164    wigner-seitz radius (au A)           
   ENMAX  =  295.446; ENMIN  =  221.585 eV                                      
   ICORE  =        3    local potential                                         
   LCOR   =        T    correct aug charges                                     
   LPAW   =        T    paw PP                                                  
   EAUG   =  586.980                                                            
   DEXC   =    0.000                                                            
   RMAX   =    2.344    core radius for proj-oper                               
   RAUG   =    1.300    factor for augmentation sphere                          
   RDEP   =    2.302    radius for radial grids                                 
   RDEPT  =    1.771    core radius for aug-charge                              
                                                                                
   Atomic configuration                                                         
    9 entries                                                                   
     n  l   j            E        occ.                                          
     1  0  0.50     -8850.2468   2.0000                                         
     2  0  0.50     -1062.3498   2.0000                                         
     2  1  1.50      -916.8226   6.0000                                         
     3  0  0.50      -114.6929   2.0000                                         
     3  1  1.50       -72.1325   6.0000                                         
     3  2  2.50        -5.0394  10.0000                                         
     4  0  0.50        -4.6097   1.0000                                         
     4  1  0.50        -4.0817   0.0000                                         
     4  3  2.50        -1.3606   0.0000                                         
   Description                                                                  
     l       E           TYP  RCUT    TYP  RCUT                                 
     2     -5.0393973     23  2.200                                             
     2     10.8846608     23  2.200                                             
     0     -4.6097109     23  2.200                                             
     0      8.2520465     23  2.200                                             
     1     -2.7211652     23  2.200                                             
     1     21.7055443     23  2.200                                             
     3      2.7211652     23  2.300                                             
  local pseudopotential read in
  partial core-charges read in
  partial kinetic energy density read in
  atomic valenz-charges read in
  non local Contribution for L=           2  read in
    real space projection operators read in
  non local Contribution for L=           2  read in
    real space projection operators read in
  non local Contribution for L=           0  read in
    real space projection operators read in
  non local Contribution for L=           0  read in
    real space projection operators read in
  non local Contribution for L=           1  read in
    real space projection operators read in
  non local Contribution for L=           1  read in
    real space projection operators read in
    PAW grid and wavefunctions read in
 
   number of l-projection  operators is LMAX  =           6
   number of lm-projection operators is LMMAX =          18
 
 POTCAR:    PAW_PBE Ni 02Aug2007                  
   VRHFIN =Ni:                                                                  
   LEXCH  = PE                                                                  
   EATOM  =  1077.6739 eV,   79.2068 Ry                                         
                                                                                
   TITEL  = PAW_PBE Ni 02Aug2007                                                
   LULTRA =        F    use ultrasoft PP ?                                      
   IUNSCR =        1    unscreen: 0-lin 1-nonlin 2-no                           
   RPACOR =    2.000    partial core radius                                     
   POMASS =   58.690; ZVAL   =   10.000    mass and valenz                      
   RCORE  =    2.300    outmost cutoff radius                                   
   RWIGS  =    2.430; RWIGS  =    1.286    wigner-seitz radius (au A)           
   ENMAX  =  269.532; ENMIN  =  202.149 eV                                      
   RCLOC  =    1.201    cutoff for local pot                                    
   LCOR   =        T    correct aug charges                                     
   LPAW   =        T    paw PP                                                  
   EAUG   =  544.565                                                            
   DEXC   =    0.000                                                            
   RMAX   =    2.357    core radius for proj-oper                               
   RAUG   =    1.300    factor for augmentation sphere                          
   RDEP   =    2.390    radius for radial grids                                 
   RDEPT  =    1.838    core radius for aug-charge                              
                                                                                
   Atomic configuration                                                         
    9 entries                                                                   
     n  l   j            E        occ.                                          
     1  0  0.50     -8206.4253   2.0000                                         
     2  0  0.50      -976.1748   2.0000                                         
     2  1  1.50      -839.0571   6.0000                                         
     3  0  0.50      -105.9991   2.0000                                         
     3  1  1.50       -66.4603   6.0000                                         
     3  2  2.50        -4.6458   9.0000                                         
     4  0  0.50        -4.4926   1.0000                                         
     4  1  1.50        -4.0817   0.0000                                         
     4  3  2.50        -1.3606   0.0000                                         
   Description                                                                  
     l       E           TYP  RCUT    TYP  RCUT                                 
     2     -4.6457903     23  2.300                                             
     2     -6.0063729     23  2.300                                             
     0     -4.4925590     23  2.300                                             
     0      5.0102601     23  2.300                                             
     1     -2.7211652     23  2.300                                             
     1     16.5183231     23  2.300                                             
  local pseudopotential read in
  partial core-charges read in
  partial kinetic energy density read in
  atomic valenz-charges read in
  non local Contribution for L=           2  read in
    real space projection operators read in
  non local Contribution for L=           2  read in
    real space projection operators read in
  non local Contribution for L=           0  read in
    real space projection operators read in
  non local Contribution for L=           0  read in
    real space projection operators read in
  non local Contribution for L=           1  read in
    real space projection operators read in
  non local Contribution for L=           1  read in
    real space projection operators read in
    PAW grid and wavefunctions read in
 
   number of l-projection  operators is LMAX  =           6
   number of lm-projection operators is LMMAX =          18
 
 POTCAR:    PAW_PBE H 15Jun2001                   
   VRHFIN =H: ultrasoft test                                                    
   LEXCH  = PE                                                                  
   EATOM  =    12.4884 eV,    0.9179 Ry                                         
                                                                                
   TITEL  = PAW_PBE H 15Jun2001                                                 
   LULTRA =        F    use ultrasoft PP ?                                      
   IUNSCR =        0    unscreen: 0-lin 1-nonlin 2-no                           
   RPACOR =    0.000    partial core radius                                     
   POMASS =    1.000; ZVAL   =    1.000    mass and valenz                      
   RCORE  =    1.100    outmost cutoff radius                                   
   RWIGS  =    0.700; RWIGS  =    0.370    wigner-seitz radius (au A)           
   ENMAX  =  250.000; ENMIN  =  200.000 eV                                      
   RCLOC  =    0.701    cutoff for local pot                                    
   LCOR   =        T    correct aug charges                                     
   LPAW   =        T    paw PP                                                  
   EAUG   =  400.000                                                            
   RMAX   =    1.123    core radius for proj-oper                               
   RAUG   =    1.200    factor for augmentation sphere                          
   RDEP   =    1.112    radius for radial grids                                 
   RDEPT  =    0.926    core radius for aug-charge                              
                                                                                
   Atomic configuration                                                         
    2 entries                                                                   
     n  l   j            E        occ.                                          
     1  0  0.50        -6.4927   1.0000                                         
     2  1  0.50        -3.4015   0.0000                                         
   Description                                                                  
     l       E           TYP  RCUT    TYP  RCUT                                 
     0     -6.4927494     23  1.100                                             
     0      6.8029130     23  1.100                                             
     1     -4.0817478     23  1.100                                             
  local pseudopotential read in
  atomic valenz-charges read in
  non local Contribution for L=           0  read in
    real space projection operators read in
  non local Contribution for L=           0  read in
    real space projection operators read in
  non local Contribution for L=           1  read in
    real space projection operators read in
    PAW grid and wavefunctions read in
 
   number of l-projection  operators is LMAX  =           3
   number of lm-projection operators is LMMAX =           5
 
 Optimization of the real space projectors (new method)

 maximal supplied QI-value         = 14.36
 optimisation between [QCUT,QGAM] = [ 11.92, 23.98] = [ 39.79,161.09] Ry 
 Optimized for a Real-space Cutoff    1.49 Angstroem

   l    n(q)    QCUT    max X(q) W(low)/X(q) W(high)/X(q)  e(spline) 
   2     10    11.920    66.195    0.79E-04    0.18E-03    0.24E-06
   2     10    11.920    64.643    0.81E-04    0.19E-03    0.24E-06
   0     11    11.920    95.520    0.28E-04    0.54E-04    0.18E-06
   0     11    11.920    63.403    0.27E-04    0.52E-04    0.17E-06
   1     10    11.920    19.961    0.18E-04    0.11E-03    0.23E-06
   1     10    11.920    13.289    0.25E-04    0.87E-04    0.19E-06
 Optimization of the real space projectors (new method)

 maximal supplied QI-value         = 16.25
 optimisation between [QCUT,QGAM] = [ 11.86, 23.89] = [ 39.41,159.82] Ry 
 Optimized for a Real-space Cutoff    1.49 Angstroem

   l    n(q)    QCUT    max X(q) W(low)/X(q) W(high)/X(q)  e(spline) 
   2     10    11.864    80.901    0.13E-03    0.23E-03    0.37E-06
   2     10    11.864    75.754    0.13E-03    0.23E-03    0.38E-06
   0     11    11.864    58.752    0.44E-04    0.11E-04    0.20E-06
   0     11    11.864    30.679    0.36E-04    0.10E-04    0.18E-06
   1     10    11.864    17.977    0.31E-04    0.45E-04    0.10E-06
   1     10    11.864    13.559    0.25E-04    0.37E-04    0.89E-07
 Optimization of the real space projectors (new method)

 maximal supplied QI-value         = 16.25
 optimisation between [QCUT,QGAM] = [ 11.86, 23.89] = [ 39.41,159.82] Ry 
 Optimized for a Real-space Cutoff    1.33 Angstroem

   l    n(q)    QCUT    max X(q) W(low)/X(q) W(high)/X(q)  e(spline) 
   2      9    11.864    65.824    0.22E-03    0.53E-03    0.26E-06
   2      9    11.864    61.429    0.22E-03    0.53E-03    0.26E-06
   0      9    11.864    56.174    0.21E-03    0.32E-04    0.15E-06
   0      9    11.864    31.263    0.19E-03    0.30E-04    0.14E-06
   1      9    11.864    19.828    0.63E-04    0.30E-03    0.16E-06
   1      9    11.864    15.139    0.49E-04    0.25E-03    0.13E-06
 Optimization of the real space projectors (new method)

 maximal supplied QI-value         = 16.25
 optimisation between [QCUT,QGAM] = [ 11.86, 23.89] = [ 39.41,159.82] Ry 
 Optimized for a Real-space Cutoff    1.49 Angstroem

   l    n(q)    QCUT    max X(q) W(low)/X(q) W(high)/X(q)  e(spline) 
   2     10    11.864     4.610    0.10E-03    0.20E-03    0.29E-06
   2     10    11.864     8.522    0.17E-03    0.33E-03    0.50E-06
   0     11    11.864    51.609    0.52E-04    0.55E-04    0.33E-06
   0     11    11.864    27.747    0.46E-04    0.52E-04    0.31E-06
   1     10    11.864    20.408    0.54E-04    0.25E-04    0.21E-06
   1     10    11.864    13.425    0.48E-04    0.22E-04    0.18E-06
 Optimization of the real space projectors (new method)

 maximal supplied QI-value         = 16.25
 optimisation between [QCUT,QGAM] = [ 11.86, 23.89] = [ 39.41,159.82] Ry 
 Optimized for a Real-space Cutoff    1.33 Angstroem

   l    n(q)    QCUT    max X(q) W(low)/X(q) W(high)/X(q)  e(spline) 
   2      9    11.864    60.317    0.21E-03    0.51E-03    0.25E-06
   2      9    11.864    55.921    0.21E-03    0.51E-03    0.26E-06
   0      9    11.864    51.690    0.22E-03    0.30E-04    0.17E-06
   0      9    11.864    30.015    0.20E-03    0.28E-04    0.15E-06
   1      9    11.864    18.849    0.76E-04    0.33E-03    0.17E-06
   1      9    11.864    14.624    0.60E-04    0.28E-03    0.15E-06
 Optimization of the real space projectors (new method)

 maximal supplied QI-value         = 34.20
 optimisation between [QCUT,QGAM] = [ 11.97, 23.94] = [ 40.13,160.53] Ry 
 Optimized for a Real-space Cutoff    1.18 Angstroem

   l    n(q)    QCUT    max X(q) W(low)/X(q) W(high)/X(q)  e(spline) 
   0      8    11.971    19.460    0.15E-03    0.31E-03    0.25E-06
   0      8    11.971    12.209    0.13E-03    0.29E-03    0.25E-06
   1      8    11.971     4.655    0.22E-03    0.24E-03    0.21E-06
  PAW_PBE Pt 04Feb2005                  :
 energy of atom  1       EATOM= -729.1176
 kinetic energy error for atom=    0.0021 (will be added to EATOM!!)
  PAW_PBE Fe 06Sep2000                  :
 energy of atom  2       EATOM= -594.3153
 kinetic energy error for atom=    0.0024 (will be added to EATOM!!)
  PAW_PBE Co 02Aug2007                  :
 energy of atom  3       EATOM= -813.3670
 kinetic energy error for atom=    0.0026 (will be added to EATOM!!)
  PAW_PBE Cu 22Jun2005                  :
 energy of atom  4       EATOM=-1390.9808
 kinetic energy error for atom=    0.0036 (will be added to EATOM!!)
  PAW_PBE Ni 02Aug2007                  :
 energy of atom  5       EATOM=-1077.6739
 kinetic energy error for atom=    0.0027 (will be added to EATOM!!)
  PAW_PBE H 15Jun2001                   :
 energy of atom  6       EATOM=  -12.4884
 kinetic energy error for atom=    0.0008 (will be added to EATOM!!)
 
 
 POSCAR: 10.86                                   
  positions in cartesian coordinates
  No initial velocities read in
 exchange correlation table for  LEXCH =        8
   RHO(1)=    0.500       N(1)  =     2000
   RHO(2)=  100.500       N(2)  =     4000
 


--------------------------------------------------------------------------------------------------------


 ion  position               nearest neighbor table
   1  0.786  0.880  0.316-  49 2.61  28 2.63  59 2.65  19 2.70  61 2.72  29 2.73  33 2.73  60 2.74
                            11 2.78   2 2.79   4 2.82  12 2.88
   2  0.042  0.882  0.313-  79 2.54  77 2.58  28 2.66  60 2.70  30 2.71  33 2.72  52 2.73   6 2.75
                            22 2.77   1 2.79   4 2.83  16 2.87
   3  0.279  0.381  0.317-  64 2.56  39 2.64  31 2.64  33 2.67  68 2.69   5 2.75  19 2.77  13 2.77
                            30 2.79  43 2.79  25 2.82  18 2.89
   4  0.876  0.965  0.420-  81 1.88   9 2.67   6 2.68  17 2.72  16 2.74  60 2.77  11 2.79  12 2.81
                             1 2.82   2 2.83
   5  0.120  0.463  0.422-  12 2.65  39 2.69   7 2.69  33 2.70  10 2.70  16 2.71  25 2.74   3 2.75
                            13 2.76
   6  0.125  0.961  0.417-   4 2.68   8 2.69  14 2.71  52 2.72  16 2.73   9 2.73  10 2.73   2 2.75
                            22 2.82
   7  0.875  0.458  0.421-  39 2.65  15 2.69   9 2.69   5 2.69  75 2.70  12 2.70  10 2.70  27 2.75
                            29 2.76
   8  0.373  0.960  0.416-  43 2.58  52 2.66  14 2.67   6 2.69  27 2.70  11 2.70  61 2.70  13 2.71
                            10 2.71
   9  0.873  0.212  0.416-  75 2.66   4 2.67   7 2.69  60 2.69  15 2.70  17 2.70   6 2.73  10 2.74
                            22 2.79
  10  0.126  0.212  0.418-  39 2.66  13 2.68  43 2.70   7 2.70   5 2.70   8 2.71   6 2.73   9 2.74
                            22 2.75
  11  0.621  0.962  0.421-  81 1.80  13 2.68   8 2.70  27 2.73  17 2.74  12 2.77   1 2.78   4 2.79
                            61 2.80  19 2.82
  12  0.875  0.706  0.424-  81 1.88   5 2.65   7 2.70  33 2.71  16 2.74  27 2.75  11 2.77  29 2.78
                             4 2.81   1 2.88
  13  0.374  0.209  0.419-  10 2.68  11 2.68   8 2.71  43 2.71  25 2.73  17 2.74   5 2.76   3 2.77
                            19 2.78
  14  0.376  0.713  0.419-  27 2.65   8 2.67  44 2.67  52 2.70   6 2.71  16 2.73  15 2.73  30 2.75
                            25 2.75
  15  0.626  0.461  0.418-  44 2.66  27 2.68  75 2.68   7 2.69   9 2.70  17 2.71  14 2.73  18 2.74
                            25 2.74
  16  0.126  0.710  0.421-  33 2.64  25 2.69   5 2.71   6 2.73  14 2.73   4 2.74  12 2.74  30 2.77
                             2 2.87
  17  0.624  0.213  0.417-   9 2.70  25 2.71  15 2.71  18 2.72   4 2.72  13 2.74  11 2.74  60 2.74
                            19 2.83
  18  0.548  0.376  0.315-  67 2.55  68 2.63  26 2.67  60 2.67  75 2.69  44 2.70  17 2.72  15 2.74
                            30 2.78  19 2.81  25 2.85   3 2.89
  19  0.534  0.125  0.313-  80 2.55  68 2.57  59 2.60  43 2.62   1 2.70  61 2.72   3 2.77  13 2.78
                            18 2.81  11 2.82  17 2.83  60 2.83
  20  0.548  0.123  0.046-  57 2.55  37 2.56  48 2.57  62 2.70  63 2.72  56 2.74  34 2.77  47 2.78
                            45 2.79
  21  0.119  0.458  0.130-  47 2.52  40 2.52  36 2.52  42 2.59  64 2.63  69 2.66  70 2.71  50 2.71
                            31 2.72  57 2.77  58 2.80  74 2.82
  22  0.045  0.135  0.313-  65 2.52  55 2.55  77 2.56  43 2.65  39 2.66  75 2.71  10 2.75   2 2.77
                            60 2.78   9 2.79  52 2.79   6 2.82  31 3.38
  23  0.041  0.131  0.037-  70 2.56  41 2.60  40 2.63  76 2.66  45 2.69  24 2.69  62 2.70  53 2.82
                            35 2.83
  24  0.131  0.958  0.134-  79 2.51  77 2.55  35 2.56  53 2.57  55 2.59  70 2.67  23 2.69  73 2.70
                            58 2.70  38 2.71  66 2.77  41 2.81
  25  0.374  0.461  0.421-  16 2.69  17 2.71  13 2.73   5 2.74  15 2.74  14 2.75  30 2.80   3 2.82
                            18 2.85
  26  0.456  0.548  0.219-  73 2.51  74 2.54  51 2.56  30 2.65  79 2.65  18 2.67  78 2.71  64 2.72
                            44 2.72  32 2.72  68 2.75  67 2.82
  27  0.620  0.711  0.419-  14 2.65  44 2.65  15 2.68   8 2.70  61 2.72  11 2.73  12 2.75   7 2.75
                            29 2.77
  28  0.955  0.786  0.220-  58 2.56  50 2.57  66 2.58   1 2.63  42 2.64  49 2.66   2 2.66  33 2.68
                            64 2.70  59 2.80  79 2.93  77 2.93
  29  0.796  0.624  0.318-  42 2.54  39 2.60  32 2.63  75 2.64  49 2.66  33 2.71   1 2.73  61 2.74
                            44 2.75   7 2.76  27 2.77  12 2.78
  30  0.291  0.631  0.316-  79 2.55  64 2.59  26 2.65  52 2.67  44 2.70   2 2.71  33 2.71  14 2.75
                            16 2.77  18 2.78   3 2.79  25 2.80
  31  0.200  0.277  0.226-  70 2.50  43 2.57  57 2.59  55 2.60  65 2.61  39 2.64   3 2.64  21 2.72
                            80 2.77  42 2.79  68 2.89  64 2.93  22 3.38
  32  0.705  0.552  0.221-  54 2.54  69 2.56  51 2.59  49 2.62  29 2.63  78 2.66  44 2.67  42 2.68
                            75 2.69  65 2.69  26 2.72  67 2.76
  33  0.041  0.633  0.323-  16 2.64   3 2.67  28 2.68  64 2.69   5 2.70  29 2.71  12 2.71  30 2.71
                            42 2.72   2 2.72   1 2.73  39 2.73
  34  0.796  0.861  0.048-  50 2.37  48 2.49  66 2.51  36 2.61  71 2.62  63 2.66  20 2.77  35 2.86
                            62 2.86
  35  0.057  0.863  0.043-  58 2.52  24 2.56  72 2.57  36 2.58  66 2.62  53 2.74  62 2.83  23 2.83
                            34 2.86
  36  0.046  0.632  0.043-  21 2.52  58 2.57  35 2.58  50 2.60  34 2.61  72 2.67  47 2.71  71 2.78
                            40 2.85
  37  0.628  0.226  0.132-  51 2.50  67 2.50  56 2.50  68 2.55  59 2.56  20 2.56  74 2.57  62 2.59
                            41 2.59  66 2.75  57 2.86  48 3.06
  38  0.382  0.953  0.132-  53 2.44  80 2.47  45 2.47  78 2.53  63 2.54  55 2.56  73 2.58  48 2.60
                            54 2.61  24 2.71  57 2.71  70 2.76
  39  0.035  0.384  0.322-  29 2.60  42 2.62  31 2.64   3 2.64  75 2.64   7 2.65  10 2.66  22 2.66
                             5 2.69  65 2.71  33 2.73  43 2.89
  40  0.027  0.380  0.042-  69 2.41  21 2.52  76 2.55  70 2.56  71 2.56  23 2.63  36 2.85  45 2.88
                            47 2.94
  41  0.872  0.216  0.131-  76 2.44  77 2.50  65 2.53  67 2.53  62 2.56  37 2.59  23 2.60  51 2.63
                            69 2.64  70 2.71  66 2.72  24 2.81
  42  0.955  0.544  0.224-  50 2.54  29 2.54  21 2.59  69 2.60  39 2.62  28 2.64  65 2.67  32 2.68
                            49 2.69  33 2.72  64 2.75  31 2.79
  43  0.299  0.115  0.320-  55 2.52  31 2.57   8 2.58  80 2.62  19 2.62  52 2.62  61 2.63  22 2.65
                            10 2.70  13 2.71   3 2.79  39 2.89
  44  0.541  0.628  0.320-  78 2.62  61 2.65  27 2.65  15 2.66  52 2.66  14 2.67  32 2.67  30 2.70
                            18 2.70  75 2.70  26 2.72  29 2.75
  45  0.295  0.117  0.044-  38 2.47  70 2.47  57 2.57  53 2.58  63 2.67  23 2.69  20 2.79  40 2.88
                            47 2.89
  46  0.552  0.624  0.047-  51 2.40  54 2.41  73 2.41  71 2.63  76 2.68  63 2.70  53 2.71  56 2.73
                            72 2.79
  47  0.296  0.383  0.044-  74 2.37  21 2.52  57 2.61  72 2.64  56 2.64  36 2.71  20 2.78  45 2.89
                            40 2.94
  48  0.625  0.946  0.135-  49 2.39  80 2.48  54 2.49  34 2.49  63 2.54  20 2.57  59 2.57  38 2.60
                            50 2.63  57 2.77  66 2.80  37 3.06
  49  0.707  0.792  0.221-  48 2.39  50 2.47  54 2.49   1 2.61  80 2.62  32 2.62  61 2.63  28 2.66
                            29 2.66  78 2.67  42 2.69  59 2.80
  50  0.864  0.701  0.131-  34 2.37  71 2.39  49 2.47  54 2.50  42 2.54  28 2.57  69 2.60  36 2.60
                            48 2.63  21 2.71  66 2.91
  51  0.628  0.457  0.129-  46 2.40  76 2.45  37 2.50  56 2.52  26 2.56  32 2.59  67 2.62  41 2.63
                            69 2.68  74 2.70  73 2.73  54 2.82
  52  0.297  0.874  0.317-  55 2.43  79 2.51  78 2.54  43 2.62  61 2.62   8 2.66  44 2.66  30 2.67
                            14 2.70   6 2.72   2 2.73  22 2.79
  53  0.303  0.875  0.044-  73 2.42  38 2.44  24 2.57  45 2.58  63 2.62  46 2.71  35 2.74  72 2.75
                            23 2.82
  54  0.626  0.717  0.129-  46 2.41  71 2.48  63 2.49  48 2.49  49 2.49  50 2.50  32 2.54  38 2.61
                            78 2.63  73 2.63  69 2.76  51 2.82
  55  0.228  0.025  0.228-  52 2.43  78 2.50  43 2.52  79 2.53  80 2.54  22 2.55  38 2.56  24 2.59
                            31 2.60  70 2.73  77 2.82
  56  0.541  0.379  0.039-  74 2.49  37 2.50  51 2.52  47 2.64  72 2.69  76 2.73  46 2.73  20 2.74
                            62 2.77
  57  0.376  0.206  0.136-  68 2.47  20 2.55  80 2.56  45 2.57  31 2.59  47 2.61  74 2.71  70 2.71
                            38 2.71  48 2.77  21 2.77  37 2.86
  58  0.139  0.705  0.135-  72 2.44  64 2.48  35 2.52  79 2.55  28 2.56  36 2.57  74 2.69  24 2.70
                            73 2.73  21 2.80
  59  0.704  0.051  0.220-  66 2.51  37 2.56  48 2.57  19 2.60  60 2.60   1 2.65  68 2.67  67 2.68
                            77 2.74  80 2.78  49 2.80  28 2.80
  60  0.793  0.129  0.315-  67 2.52  77 2.56  59 2.60  18 2.67   9 2.69   2 2.70   1 2.74  17 2.74
                            75 2.75   4 2.77  22 2.78  19 2.83
  61  0.539  0.872  0.316-  78 2.49  80 2.52  52 2.62  43 2.63  49 2.63  44 2.65   8 2.70  19 2.72
                            27 2.72   1 2.72  29 2.74  11 2.80
  62  0.796  0.123  0.039-  66 2.51  41 2.56  37 2.59  20 2.70  23 2.70  76 2.72  56 2.77  35 2.83
                            34 2.86
  63  0.544  0.876  0.039-  54 2.49  48 2.54  38 2.54  53 2.62  34 2.66  45 2.67  46 2.70  20 2.72
                            71 2.76
  64  0.208  0.543  0.224-  58 2.48   3 2.56  30 2.59  21 2.63  74 2.65  33 2.69  28 2.70  68 2.70
                            26 2.72  42 2.75  79 2.82  31 2.93
  65  0.949  0.301  0.222-  69 2.51  22 2.52  41 2.53  67 2.57  75 2.58  31 2.61  70 2.62  77 2.63
                            42 2.67  32 2.69  39 2.71
  66  0.873  0.966  0.132-  59 2.51  34 2.51  62 2.51  77 2.56  28 2.58  35 2.62  41 2.72  37 2.75
                            24 2.77  48 2.80  50 2.91
  67  0.717  0.291  0.225-  37 2.50  60 2.52  41 2.53  18 2.55  77 2.57  65 2.57  75 2.60  51 2.62
                            59 2.68  32 2.76  26 2.82
  68  0.457  0.295  0.221-  57 2.47  74 2.51  37 2.55  19 2.57  18 2.63  59 2.67   3 2.69  64 2.70
                            26 2.75  80 2.88  31 2.89
  69  0.875  0.457  0.130-  40 2.41  71 2.45  76 2.46  65 2.51  32 2.56  50 2.60  42 2.60  41 2.64
                            21 2.66  51 2.68  70 2.74  54 2.76
  70  0.127  0.205  0.131-  45 2.47  31 2.50  40 2.56  23 2.56  65 2.62  24 2.67  21 2.71  57 2.71
                            41 2.71  55 2.73  69 2.74  38 2.76
  71  0.796  0.620  0.043-  50 2.39  69 2.45  54 2.48  40 2.56  34 2.62  46 2.63  76 2.68  63 2.76
                            36 2.78
  72  0.294  0.627  0.046-  58 2.44  74 2.45  73 2.50  35 2.57  47 2.64  36 2.67  56 2.69  53 2.75
                            46 2.79
  73  0.385  0.715  0.130-  46 2.41  53 2.42  72 2.50  26 2.51  78 2.56  38 2.58  79 2.61  54 2.63
                            24 2.70  51 2.73  58 2.73  74 2.87
  74  0.382  0.452  0.129-  47 2.37  72 2.45  56 2.49  68 2.51  26 2.54  37 2.57  64 2.65  58 2.69
                            51 2.70  57 2.71  21 2.82  73 2.87
  75  0.793  0.382  0.319-  65 2.58  67 2.60  39 2.64  29 2.64   9 2.66  15 2.68  32 2.69  18 2.69
                             7 2.70  44 2.70  22 2.71  60 2.75
  76  0.795  0.374  0.043-  41 2.44  51 2.45  69 2.46  40 2.55  23 2.66  46 2.68  71 2.68  62 2.72
                            56 2.73
  77  0.955  0.056  0.222-  41 2.50  24 2.55  22 2.56  60 2.56  66 2.56  67 2.57   2 2.58  65 2.63
                            59 2.74  55 2.82  79 2.84  28 2.93
  78  0.460  0.796  0.225-  61 2.49  55 2.50  80 2.53  38 2.53  52 2.54  73 2.56  79 2.61  44 2.62
                            54 2.63  32 2.66  49 2.67  26 2.71
  79  0.218  0.797  0.225-  52 2.51  24 2.51  55 2.53   2 2.54  30 2.55  58 2.55  78 2.61  73 2.61
                            26 2.65  64 2.82  77 2.84  28 2.93
  80  0.461  0.027  0.223-  38 2.47  48 2.48  61 2.52  78 2.53  55 2.54  19 2.55  57 2.56  43 2.62
                            49 2.62  31 2.77  59 2.78  68 2.88
  81  0.785  0.883  0.463-  11 1.80  12 1.88   4 1.88
 
  LATTYP: Found a hexagonal cell.
 ALAT       =    10.8599996567
 C/A-ratio  =     2.0257827528
  
  Lattice vectors:
  
 A1 = (   5.4299998284,  -9.4050355878,   0.0000000000)
 A2 = ( -10.8599996567,   0.0000000000,   0.0000000000)
 A3 = (   0.0000000000,   0.0000000000, -22.0000000000)


Analysis of symmetry for initial positions (statically):
=====================================================================
 Subroutine PRICEL returns:
 Original cell was already a primitive cell.
 

 Routine SETGRP: Setting up the symmetry group for a 
 hexagonal supercell.


 Subroutine GETGRP returns: Found  1 space group operations
 (whereof  1 operations were pure point group operations)
 out of a pool of 24 trial point group operations.


The static configuration has the point symmetry C_1 .


Analysis of symmetry for dynamics (positions and initial velocities):
=====================================================================
 Subroutine PRICEL returns:
 Original cell was already a primitive cell.
 

 Routine SETGRP: Setting up the symmetry group for a 
 hexagonal supercell.


 Subroutine GETGRP returns: Found  1 space group operations
 (whereof  1 operations were pure point group operations)
 out of a pool of 24 trial point group operations.


The dynamic configuration has the point symmetry C_1 .


Analysis of constrained symmetry for selective dynamics:
=====================================================================
 Subroutine PRICEL returns:
 Original cell was already a primitive cell.
 

 Routine SETGRP: Setting up the symmetry group for a 
 hexagonal supercell.


 Subroutine GETGRP returns: Found  1 space group operations
 (whereof  1 operations were pure point group operations)
 out of a pool of 24 trial point group operations.


The constrained configuration has the point symmetry C_1 .


Analysis of structural, dynamic, and magnetic symmetry:
=====================================================================
 Subroutine PRICEL returns:
 Original cell was already a primitive cell.
 

 Routine SETGRP: Setting up the symmetry group for a 
 hexagonal supercell.


 Subroutine GETGRP returns: Found  1 space group operations
 (whereof  1 operations were pure point group operations)
 out of a pool of 24 trial point group operations.


The magnetic configuration has the point symmetry C_1 .


 Subroutine INISYM returns: Found  1 space group operations
 (whereof  1 operations are pure point group operations),
 and found     1 'primitive' translations

 
 
 KPOINTS: mesh auto                               

Automatic generation of k-mesh.
Space group operators:
 irot       det(A)        alpha          n_x          n_y          n_z        tau_x        tau_y        tau_z
    1     1.000000     0.000001     1.000000     0.000000     0.000000     0.000000     0.000000     0.000000
 
 Subroutine IBZKPT returns following result:
 ===========================================
 
 Found      4 irreducible k-points:
 
 Following reciprocal coordinates:
            Coordinates               Weight
  0.000000  0.000000  0.000000      1.000000
  0.500000  0.000000  0.000000      1.000000
  0.000000  0.500000  0.000000      1.000000
  0.500000  0.500000  0.000000      1.000000
 
 Following cartesian coordinates:
            Coordinates               Weight
  0.000000  0.000000  0.000000      1.000000
  0.046041 -0.026582  0.000000      1.000000
  0.000000  0.053163  0.000000      1.000000
  0.046041  0.026582  0.000000      1.000000
 
 TETIRR: Found     12 inequivalent tetrahedra from       24
 
 Subroutine IBZKPT_HF returns following result:
 ==============================================
 
 Found      4 k-points in 1st BZ
 the following      4 k-points will be used (e.g. in the exchange kernel)
 Following reciprocal coordinates:   # in IRBZ
  0.000000  0.000000  0.000000    0.25000000   1 t-inv F
  0.500000  0.000000  0.000000    0.25000000   2 t-inv F
  0.000000  0.500000  0.000000    0.25000000   3 t-inv F
  0.500000  0.500000  0.000000    0.25000000   4 t-inv F


--------------------------------------------------------------------------------------------------------




 Dimension of arrays:
   k-points           NKPTS =      4   k-points in BZ     NKDIM =      4   number of bands    NBANDS=    624
   number of dos      NEDOS =    301   number of ions     NIONS =     81
   non local maximal  LDIM  =      6   non local SUM 2l+1 LMDIM =     18
   total plane-waves  NPLWV = ******
   max r-space proj   IRMAX =   7380   max aug-charges    IRDMAX=  32147
   dimension x,y,z NGX =    84 NGY =   84 NGZ =  168
   dimension x,y,z NGXF=   168 NGYF=  168 NGZF=  336
   support grid    NGXF=   168 NGYF=  168 NGZF=  336
   ions per type =              32  13  10  13  12   1
   NGX,Y,Z   is equivalent  to a cutoff of  12.86, 12.86, 12.70 a.u.
   NGXF,Y,Z  is equivalent  to a cutoff of  25.72, 25.72, 25.39 a.u.

 SYSTEM =  Pt111                                   
 POSCAR =  10.86                                   

 Startparameter for this run:
   NWRITE =      2    write-flag & timer
   PREC   = accura    normal or accurate (medium, high low for compatibility)
   ISTART =      0    job   : 0-new  1-cont  2-samecut
   ICHARG =      2    charge: 1-file 2-atom 10-const
   ISPIN  =      2    spin polarized calculation?
   LNONCOLLINEAR =      F non collinear calculations
   LSORBIT =      F    spin-orbit coupling
   INIWAV =      1    electr: 0-lowe 1-rand  2-diag
   LASPH  =      F    aspherical Exc in radial PAW
   METAGGA=      F    non-selfconsistent MetaGGA calc.

 Electronic Relaxation 1
   ENCUT  =  550.0 eV  40.42 Ry    6.36 a.u.  20.77 20.77 42.07*2*pi/ulx,y,z
   ENINI  =  550.0     initial cutoff
   ENAUG  =  587.0 eV  augmentation charge cutoff
   NELM   =    200;   NELMIN=  2; NELMDL= -5     # of ELM steps 
   EDIFF  = 0.1E-04   stopping-criterion for ELM
   LREAL  =      T    real-space projection
   NLSPLINE    = F    spline interpolate recip. space projectors
   LCOMPAT=      F    compatible to vasp.4.4
   GGA_COMPAT  = T    GGA compatible to vasp.4.4-vasp.4.6
   LMAXPAW     = -100 max onsite density
   LMAXMIX     =    2 max onsite mixed and CHGCAR
   VOSKOWN=      0    Vosko Wilk Nusair interpolation
   ROPT   =   -0.00025  -0.00025  -0.00025  -0.00025
   ROPT   =   -0.00025  -0.00025
 Ionic relaxation
   EDIFFG = -.5E-01   stopping-criterion for IOM
   NSW    =   1009    number of steps for IOM
   NBLOCK =      1;   KBLOCK =   1009    inner block; outer block 
   IBRION =      5    ionic relax: 0-MD 1-quasi-New 2-CG
   NFREE  =      2    steps in history (QN), initial steepest desc. (CG)
   ISIF   =      2    stress and relaxation
   IWAVPR =     11    prediction:  0-non 1-charg 2-wave 3-comb
   ISYM   =      2    0-nonsym 1-usesym 2-fastsym
   LCORR  =      T    Harris-Foulkes like correction to forces

   POTIM  = 0.5000    time-step for ionic-motion
   TEIN   =    0.0    initial temperature
   TEBEG  =    0.0;   TEEND  =   0.0 temperature during run
   SMASS  =  -3.00    Nose mass-parameter (am)
   estimated Nose-frequenzy (Omega)   =  0.10E-29 period in steps =****** mass=  -0.270E-26a.u.
   SCALEE = 1.0000    scale energy and forces
   NPACO  =    256;   APACO  = 16.0  distance and # of slots for P.C.
   PSTRESS=    0.0 pullay stress

  Mass of Ions in am
   POMASS = 195.08 55.85 58.93 63.55 58.69  1.00
  Ionic Valenz
   ZVAL   =  10.00  8.00  9.00 11.00 10.00  1.00
  Atomic Wigner-Seitz radii
   RWIGS  =  -1.00 -1.00 -1.00 -1.00 -1.00 -1.00
  virtual crystal weights 
   VCA    =   1.00  1.00  1.00  1.00  1.00  1.00
   NELECT =     778.0000    total number of electrons
   NUPDOWN=      -1.0000    fix difference up-down

 DOS related values:
   EMIN   =  10.00;   EMAX   =-10.00  energy-range for DOS
   EFERMI =   0.00
   ISMEAR =    -5;   SIGMA  =   0.10  broadening in eV -4-tet -1-fermi 0-gaus

 Electronic relaxation 2 (details)
   IALGO  =     68    algorithm
   LDIAG  =      T    sub-space diagonalisation (order eigenvalues)
   LSUBROT=      F    optimize rotation matrix (better conditioning)
   TURBO    =      0    0=normal 1=particle mesh
   IRESTART =      0    0=no restart 2=restart with 2 vectors
   NREBOOT  =      0    no. of reboots
   NMIN     =      0    reboot dimension
   EREF     =   0.00    reference energy to select bands
   IMIX   =      4    mixing-type and parameters
     AMIX     =   0.40;   BMIX     =  1.00
     AMIX_MAG =   1.60;   BMIX_MAG =  1.00
     AMIN     =   0.10
     WC   =   100.;   INIMIX=   1;  MIXPRE=   1;  MAXMIX= -45

 Intra band minimization:
   WEIMIN = 0.0010     energy-eigenvalue tresh-hold
   EBREAK =  0.40E-08  absolut break condition
   DEPER  =   0.30     relativ break condition  

   TIME   =   0.40     timestep for ELM

  volume/ion in A,a.u.               =      27.74       187.21
  Fermi-wavevector in a.u.,A,eV,Ry     =   1.149557  2.172347 17.979834  1.321481
  Thomas-Fermi vector in A             =   2.286226
 
 Write flags
   LWAVE        =      F    write WAVECAR
   LDOWNSAMPLE  =      F    k-point downsampling of WAVECAR
   LCHARG       =      F    write CHGCAR
   LVTOT        =      F    write LOCPOT, total local potential
   LVHAR        =      F    write LOCPOT, Hartree potential only
   LELF         =      F    write electronic localiz. function (ELF)
   LORBIT       =      0    0 simple, 1 ext, 2 COOP (PROOUT), +10 PAW based schemes


 Dipole corrections
   LMONO  =      F    monopole corrections only (constant potential shift)
   LDIPOL =      F    correct potential (dipole corrections)
   IDIPOL =      0    1-x, 2-y, 3-z, 4-all directions 
   EPSILON=  1.0000000 bulk dielectric constant

 Exchange correlation treatment:
   GGA     =    --    GGA type
   LEXCH   =     8    internal setting for exchange type
   VOSKOWN=      0    Vosko Wilk Nusair interpolation
   LHFCALC =     F    Hartree Fock is set to
   LHFONE  =     F    Hartree Fock one center treatment
   AEXX    =    0.0000 exact exchange contribution

 Linear response parameters
   LEPSILON=     F    determine dielectric tensor
   LRPA    =     F    only Hartree local field effects (RPA)
   LNABLA  =     F    use nabla operator in PAW spheres
   LVEL    =     F    velocity operator in full k-point grid
   LINTERFAST=   F  fast interpolation
   KINTER  =     0    interpolate to denser k-point grid
   CSHIFT  =0.1000    complex shift for real part using Kramers Kronig
   OMEGAMAX=  -1.0    maximum frequency
   DEG_THRESHOLD= 0.2000000E-02 threshold for treating states as degnerate
   RTIME   =   -0.100 relaxation time in fs
  (WPLASMAI=    0.000 imaginary part of plasma frequency in eV, 0.658/RTIME)
   DFIELD  = 0.0000000 0.0000000 0.0000000 field for delta impulse in time
 
 Orbital magnetization related:
   ORBITALMAG=     F  switch on orbital magnetization
   LCHIMAG   =     F  perturbation theory with respect to B field
   DQ        =  0.001000  dq finite difference perturbation B field
   LLRAUG    =     F  two centre corrections for induced B field



--------------------------------------------------------------------------------------------------------


 finite differences
   using selective dynamics as specified on POSCAR
   WARNING: If single coordinates had been selected the selection of coordinates
            is made according to the corresponding   d i r e c t   coordinates!
            Don't support selection of single cartesian coordinates -- sorry ...
  !
 charge density and potential will be updated during run
 spin polarized calculation
 RMM-DIIS sequential band-by-band and
  variant of blocked Davidson during initial phase
 perform sub-space diagonalisation
    before iterative eigenvector-optimisation
 modified Broyden-mixing scheme, WC =      100.0
 initial mixing is a Kerker type mixing with AMIX =  0.4000 and BMIX =      1.0000
 Hartree-type preconditioning will be used
 using additional bands          235
 real space projection scheme for non local part
 use partial core corrections
 calculate Harris-corrections to forces 
   (improved forces if not selfconsistent)
 use gradient corrections 
 use of overlap-Matrix (Vanderbilt PP)
 Fermi weights with tetrahedron method with Bloechl corrections


--------------------------------------------------------------------------------------------------------


  energy-cutoff  :      550.00
  volume of cell :     2247.05
      direct lattice vectors                 reciprocal lattice vectors
    10.859999657  0.000000000  0.000000000     0.092081034 -0.053163010  0.000000000
     5.429999828  9.405035588  0.000000000     0.000000000  0.106326020  0.000000000
     0.000000000  0.000000000 22.000000000     0.000000000  0.000000000  0.045454545

  length of vectors
    10.859999657 10.859999657 22.000000000     0.106326020  0.106326020  0.045454545


 
 k-points in units of 2pi/SCALE and weight: mesh auto                               
   0.00000000  0.00000000  0.00000000       0.250
   0.04604052 -0.02658150  0.00000000       0.250
   0.00000000  0.05316301  0.00000000       0.250
   0.04604052  0.02658150  0.00000000       0.250
 
 k-points in reciprocal lattice and weights: mesh auto                               
   0.00000000  0.00000000  0.00000000       0.250
   0.50000000  0.00000000  0.00000000       0.250
   0.00000000  0.50000000  0.00000000       0.250
   0.50000000  0.50000000  0.00000000       0.250
 
 position of ions in fractional coordinates (direct lattice) 
   0.78616914  0.87954446  0.31584561
   0.04223638  0.88183629  0.31270905
   0.27932056  0.38065709  0.31692060
   0.87633119  0.96451885  0.42004210
   0.12022769  0.46340422  0.42186426
   0.12485210  0.96101936  0.41663779
   0.87484877  0.45794635  0.42130466
   0.37343311  0.95999538  0.41643635
   0.87342187  0.21152147  0.41573102
   0.12606572  0.21161499  0.41771204
   0.62074607  0.96208171  0.42069683
   0.87530797  0.70636217  0.42355665
   0.37385386  0.20900497  0.41937372
   0.37552466  0.71294299  0.41899560
   0.62601390  0.46125192  0.41795991
   0.12621729  0.70950337  0.42063797
   0.62379452  0.21291147  0.41694388
   0.54767408  0.37618310  0.31506458
   0.53382801  0.12506826  0.31313386
   0.54838833  0.12337347  0.04616746
   0.11897632  0.45840873  0.12986490
   0.04485008  0.13542325  0.31255956
   0.04066573  0.13149863  0.03673280
   0.13095494  0.95789127  0.13392649
   0.37362861  0.46072799  0.42086045
   0.45565223  0.54806677  0.21862214
   0.62044037  0.71051209  0.41879791
   0.95463232  0.78624459  0.22047772
   0.79595392  0.62371434  0.31791588
   0.29091422  0.63118893  0.31624617
   0.20027086  0.27704785  0.22602515
   0.70458292  0.55163211  0.22088515
   0.04067377  0.63253228  0.32277906
   0.79551100  0.86095123  0.04803851
   0.05739494  0.86293659  0.04269821
   0.04587539  0.63174243  0.04254194
   0.62839887  0.22641754  0.13184280
   0.38235880  0.95332843  0.13196947
   0.03501141  0.38401973  0.32213701
   0.02680797  0.37973819  0.04163164
   0.87237911  0.21580924  0.13075454
   0.95470242  0.54363827  0.22446703
   0.29853014  0.11471042  0.31963952
   0.54099975  0.62797778  0.32024335
   0.29450499  0.11703562  0.04414884
   0.55196850  0.62406631  0.04671093
   0.29607773  0.38273525  0.04410119
   0.62495157  0.94618873  0.13463855
   0.70730076  0.79195600  0.22069804
   0.86416424  0.70149040  0.13101985
   0.62840973  0.45654274  0.12888101
   0.29709386  0.87409036  0.31734728
   0.30340848  0.87503324  0.04361807
   0.62639551  0.71686996  0.12943899
   0.22824609  0.02519273  0.22797437
   0.54119566  0.37869383  0.03864044
   0.37588607  0.20624082  0.13551792
   0.13910459  0.70498816  0.13510658
   0.70439885  0.05140639  0.22049063
   0.79265101  0.12877249  0.31530596
   0.53945946  0.87232347  0.31639386
   0.79634723  0.12315750  0.03929397
   0.54409452  0.87593854  0.03924591
   0.20790243  0.54310364  0.22378593
   0.94893253  0.30075086  0.22244782
   0.87251125  0.96557984  0.13164478
   0.71714769  0.29144814  0.22456062
   0.45673307  0.29458484  0.22130469
   0.87502942  0.45728685  0.13000961
   0.12698014  0.20542845  0.13067041
   0.79570639  0.62023288  0.04302802
   0.29386926  0.62662746  0.04632212
   0.38503102  0.71488529  0.12987367
   0.38167182  0.45223852  0.12905631
   0.79273560  0.38188773  0.31909648
   0.79479377  0.37390398  0.04303644
   0.95461703  0.05594721  0.22179318
   0.45953371  0.79572721  0.22516979
   0.21814710  0.79732026  0.22492198
   0.46108295  0.02748800  0.22321297
   0.78484102  0.88344774  0.46319023
 
 position of ions in cartesian coordinates  (Angst):
  13.31372286  8.27214695  6.94860344
   5.24705795  8.29370171  6.87959907
   5.10038912  3.58009344  6.97225324
  14.75429361  9.07133409  9.24092623
   3.82195746  4.35833317  9.28101381
   6.57422868  9.03842124  9.16603129
  11.98750593  4.30700167  9.26870245
   9.26825824  9.02879074  9.16159960
  10.63392274  1.98936692  9.14608247
   2.51814300  1.99024648  9.18966485
  11.96540563  9.04841275  9.25533034
  13.34139075  6.64336137  9.31824635
   5.19494974  1.96569920  9.22622177
   7.94947804  6.70525422  9.21790315
   9.30310855  4.33809073  9.19511803
   5.22332285  6.67290441  9.25403543
   7.93051751  2.00243997  9.17276539
   7.99041452  3.53801544  6.93142083
   6.47649262  1.17627140  6.88894501
   6.62541500  1.16033190  1.01568419
   3.78124213  4.31135041  2.85702788
   1.22242015  1.27366053  6.87631037
   1.15566737  1.23674932  0.80812154
   6.62352002  9.00900149  2.94638274
   6.55935946  4.33316315  9.25892998
   7.92438554  5.15458743  4.80968704
  10.59606271  6.68239150  9.21355391
  14.63661464  7.39465836  4.85050991
  12.03082804  5.86605558  6.99414942
   6.58668409  5.93635437  6.95741564
   3.67931125  2.60564485  4.97255331
  10.64713259  5.18811965  4.85947330
   3.87636730  5.94898864  7.10113921
  13.31421424  8.09727694  1.05684727
   5.30905455  8.11594932  0.93936063
   3.92856797  5.94156004  0.93592272
   8.05385868  2.12946499  2.90054150
   9.32898959  8.96608780  2.90332824
   2.46545100  3.61171924  7.08701418
   2.35311289  3.57145122  0.91589603
  10.64588090  2.02969355  2.87659996
  13.32002369  5.11293728  4.93827471
   3.86491482  1.07885561  7.03206941
   9.28517636  5.90615340  7.04535375
   3.83382754  1.10072422  0.97127449
   9.38305771  5.86936583  1.02764050
   5.29365641  3.59963866  0.97022617
  11.92477847  8.89893867  2.96204804
  11.98160699  7.44837437  4.85535685
  13.19391605  6.59754215  2.88243667
   9.30355646  4.29380068  2.83538226
   7.97274970  8.22085096  6.98164008
   8.04644638  8.22971881  0.95959753
  10.69525881  6.74218749  2.84765773
   2.61554891  0.23693848  5.01543608
   7.93369212  3.56162890  0.85008961
   5.20201026  1.93970225  2.98139421
   5.33876141  6.63043871  2.97234485
   7.92890800  0.48347894  4.85079390
   9.30742432  1.21110985  6.93673109
  10.59524591  8.20423330  6.96066487
   9.31707587  1.15830066  0.86446726
  10.66521242  8.23823315  0.86341001
   5.20687297  5.10790903  4.92329037
  11.93848408  2.82857251  4.89385205
  14.71857022  9.08131274  2.89618505
   9.37078710  2.74108017  4.94033374
   6.55971659  2.77058089  4.86870315
  11.98588670  4.30079906  2.86021139
   2.49448074  1.93206192  2.87474900
  12.00923557  5.83331228  0.94661646
   6.59400710  5.89345359  1.01908661
   8.06326377  6.72352161  2.85722084
   6.60061090  4.25331933  2.83923887
  10.68275864  3.59166768  7.02012265
  10.66175863  3.51658022  0.94680163
  10.67093399  0.52618548  4.87945005
   9.31133460  7.48384275  4.95373546
   6.69852636  7.49882547  4.94828364
   5.15662057  0.25852564  4.91068524
  13.32049429  8.30885746 10.19018512
 


--------------------------------------------------------------------------------------------------------


 k-point  1 :   0.0000 0.0000 0.0000  plane waves:   65767
 k-point  2 :   0.5000 0.0000 0.0000  plane waves:   65808
 k-point  3 :   0.0000 0.5000 0.0000  plane waves:   65808
 k-point  4 :   0.5000 0.5000 0.0000  plane waves:   65808

 maximum and minimum number of plane-waves per node :     65808    65767

 maximum number of plane-waves:     65808
 maximum index in each direction: 
   IXMAX=   20   IYMAX=   20   IZMAX=   42
   IXMIN=  -21   IYMIN=  -21   IZMIN=  -42


 serial   3D FFT for wavefunctions
 parallel 3D FFT for charge:
    minimum data exchange during FFTs selected (reduces bandwidth)


 total amount of memory used by VASP MPI-rank0   370198. kBytes
=======================================================================

   base      :      30000. kBytes
   nonlr-proj:      93061. kBytes
   fftplans  :      12162. kBytes
   grid      :     120476. kBytes
   one-center:       2519. kBytes
   wavefun   :     111980. kBytes
 
     INWAV:  cpu time    0.0001: real time    0.0005
 Broyden mixing: mesh for mixing (old mesh)
   NGX = 41   NGY = 41   NGZ = 85
  (NGX  =168   NGY  =168   NGZ  =336)
  gives a total of 142885 points

 initial charge density was supplied:
 charge density of overlapping atoms calculated
 number of electron     778.0000000 magnetization     231.0000000
 keeping initial charge density in first step


--------------------------------------------------------------------------------------------------------


 Maximum index for non-local projection operator         7129
 Maximum index for augmentation-charges         1400 (set IRDMAX)


--------------------------------------------------------------------------------------------------------


 First call to EWALD:  gamma=   0.135
 Maximum number of real-space cells 4x 4x 2
 Maximum number of reciprocal cells 2x 2x 4

    FEWALD:  cpu time    0.0044: real time    0.0044


--------------------------------------- Iteration      1(   1)  ---------------------------------------


    POTLOK:  cpu time    0.4350: real time    0.4378
    SETDIJ:  cpu time    0.0321: real time    0.0322
     EDDAV:  cpu time   56.5570: real time   56.7471
 BZINTS: Fermi energy: 17.004218;778.000000 electrons
         Band energy:7577.254327;  BLOECHL correction: -0.022789
       DOS:  cpu time    0.0247: real time    0.0867
    --------------------------------------------
      LOOP:  cpu time   57.0488: real time   57.3038

 eigenvalue-minimisations  :  9984
 total energy-change (2. order) : 0.7475327E+04  (-0.3332800E+05)
 number of electron     778.0000000 magnetization     231.0000000
 augmentation part      778.0000000 magnetization     231.0000000

 Free energy of the ion-electron system (eV)
  ---------------------------------------------------
  alpha Z        PSCENC =      2116.97411455
  Ewald energy   TEWEN  =    220716.11804265
  -Hartree energ DENC   =   -292630.44386476
  -exchange      EXHF   =         0.00000000
  -V(xc)+E(xc)   XCENC  =      1378.67874271
  PAW double counting   =     64136.80006862   -66038.70876209
  entropy T*S    EENTRO =         0.00000000
  eigenvalues    EBANDS =      7577.25432662
  atomic energy  EATOM  =     70218.65458108
  Solvation  Ediel_sol  =         0.00000000
  ---------------------------------------------------
  free energy    TOTEN  =      7475.32724939 eV

  energy without entropy =     7475.32724939  energy(sigma->0) =     7475.32724939


--------------------------------------------------------------------------------------------------------




--------------------------------------- Iteration      1(   2)  ---------------------------------------


     EDDAV:  cpu time   57.6566: real time   57.8555
 BZINTS: Fermi energy:  5.401353;778.000000 electrons
         Band energy: 707.404895;  BLOECHL correction: -0.136913
       DOS:  cpu time    0.0232: real time    0.0426
    --------------------------------------------
      LOOP:  cpu time   57.6798: real time   57.8981

 eigenvalue-minimisations  : 10224
 total energy-change (2. order) :-0.6869849E+04  (-0.6095051E+04)
 number of electron     778.0000000 magnetization     231.0000000
 augmentation part      778.0000000 magnetization     231.0000000

 Free energy of the ion-electron system (eV)
  ---------------------------------------------------
  alpha Z        PSCENC =      2116.97411455
  Ewald energy   TEWEN  =    220716.11804265
  -Hartree energ DENC   =   -292630.44386476
  -exchange      EXHF   =         0.00000000
  -V(xc)+E(xc)   XCENC  =      1378.67874271
  PAW double counting   =     64136.80006862   -66038.70876209
  entropy T*S    EENTRO =         0.00000000
  eigenvalues    EBANDS =       707.40489545
  atomic energy  EATOM  =     70218.65458108
  Solvation  Ediel_sol  =         0.00000000
  ---------------------------------------------------
  free energy    TOTEN  =       605.47781822 eV

  energy without entropy =      605.47781822  energy(sigma->0) =      605.47781822


--------------------------------------------------------------------------------------------------------




--------------------------------------- Iteration      1(   3)  ---------------------------------------


     EDDAV:  cpu time   57.4032: real time   57.5823
 BZINTS: Fermi energy:  3.175746;778.000000 electrons
         Band energy:-329.814367;  BLOECHL correction: -0.006127
       DOS:  cpu time    0.0303: real time    0.0932
    --------------------------------------------
      LOOP:  cpu time   57.4335: real time   57.6755

 eigenvalue-minimisations  : 10176
 total energy-change (2. order) :-0.1037219E+04  (-0.8656148E+03)
 number of electron     778.0000000 magnetization     231.0000000
 augmentation part      778.0000000 magnetization     231.0000000

 Free energy of the ion-electron system (eV)
  ---------------------------------------------------
  alpha Z        PSCENC =      2116.97411455
  Ewald energy   TEWEN  =    220716.11804265
  -Hartree energ DENC   =   -292630.44386476
  -exchange      EXHF   =         0.00000000
  -V(xc)+E(xc)   XCENC  =      1378.67874271
  PAW double counting   =     64136.80006862   -66038.70876209
  entropy T*S    EENTRO =         0.00000000
  eigenvalues    EBANDS =      -329.81436657
  atomic energy  EATOM  =     70218.65458108
  Solvation  Ediel_sol  =         0.00000000
  ---------------------------------------------------
  free energy    TOTEN  =      -431.74144380 eV

  energy without entropy =     -431.74144380  energy(sigma->0) =     -431.74144380


--------------------------------------------------------------------------------------------------------




--------------------------------------- Iteration      1(   4)  ---------------------------------------


     EDDAV:  cpu time   67.2633: real time   67.4725
 BZINTS: Fermi energy:  3.053815;778.000000 electrons
         Band energy:-393.057086;  BLOECHL correction: -0.010481
       DOS:  cpu time    0.0236: real time    0.0367
    --------------------------------------------
      LOOP:  cpu time   67.2870: real time   67.5092

 eigenvalue-minimisations  : 12384
 total energy-change (2. order) :-0.6324272E+02  (-0.6081506E+02)
 number of electron     778.0000000 magnetization     231.0000000
 augmentation part      778.0000000 magnetization     231.0000000

 Free energy of the ion-electron system (eV)
  ---------------------------------------------------
  alpha Z        PSCENC =      2116.97411455
  Ewald energy   TEWEN  =    220716.11804265
  -Hartree energ DENC   =   -292630.44386476
  -exchange      EXHF   =         0.00000000
  -V(xc)+E(xc)   XCENC  =      1378.67874271
  PAW double counting   =     64136.80006862   -66038.70876209
  entropy T*S    EENTRO =         0.00000000
  eigenvalues    EBANDS =      -393.05708608
  atomic energy  EATOM  =     70218.65458108
  Solvation  Ediel_sol  =         0.00000000
  ---------------------------------------------------
  free energy    TOTEN  =      -494.98416331 eV

  energy without entropy =     -494.98416331  energy(sigma->0) =     -494.98416331


--------------------------------------------------------------------------------------------------------




--------------------------------------- Iteration      1(   5)  ---------------------------------------


     EDDAV:  cpu time   65.3098: real time   65.5408
 BZINTS: Fermi energy:  3.050717;778.000000 electrons
         Band energy:-395.131410;  BLOECHL correction: -0.010562
       DOS:  cpu time    0.0459: real time    0.1673
    CHARGE:  cpu time    2.6091: real time    2.6165
    MIXING:  cpu time    0.0101: real time    0.0103
    --------------------------------------------
      LOOP:  cpu time   67.9750: real time   68.3349

 eigenvalue-minimisations  : 11952
 total energy-change (2. order) :-0.2074323E+01  (-0.2069475E+01)
 number of electron     778.0000038 magnetization     216.6985377
 augmentation part      335.1105327 magnetization     183.6817522

 Broyden mixing:
  rms(total) = 0.11451E+02    rms(broyden)= 0.11451E+02
  rms(prec ) = 0.11808E+02
  weight for this iteration     100.00

 Free energy of the ion-electron system (eV)
  ---------------------------------------------------
  alpha Z        PSCENC =      2116.97411455
  Ewald energy   TEWEN  =    220716.11804265
  -Hartree energ DENC   =   -292630.44386476
  -exchange      EXHF   =         0.00000000
  -V(xc)+E(xc)   XCENC  =      1378.67874271
  PAW double counting   =     64136.80006862   -66038.70876209
  entropy T*S    EENTRO =         0.00000000
  eigenvalues    EBANDS =      -395.13140951
  atomic energy  EATOM  =     70218.65458108
  Solvation  Ediel_sol  =         0.00000000
  ---------------------------------------------------
  free energy    TOTEN  =      -497.05848674 eV

  energy without entropy =     -497.05848674  energy(sigma->0) =     -497.05848674


--------------------------------------------------------------------------------------------------------




--------------------------------------- Iteration      1(   6)  ---------------------------------------


    POTLOK:  cpu time    0.3995: real time    0.4019
    SETDIJ:  cpu time    0.0318: real time    0.0319
    EDDIAG:  cpu time    9.6147: real time    9.6418
  RMM-DIIS:  cpu time   36.9181: real time   37.0262
    ORTHCH:  cpu time    1.5051: real time    1.5113
 BZINTS: Fermi energy:  1.489860;778.000000 electrons
         Band energy:***********;  BLOECHL correction: -0.018430
       DOS:  cpu time    0.0280: real time    0.0281
    CHARGE:  cpu time    2.6219: real time    2.6293
    MIXING:  cpu time    0.0110: real time    0.0114
    --------------------------------------------
      LOOP:  cpu time   51.1301: real time   51.2818

 eigenvalue-minimisations  : 10063
 total energy-change (2. order) :-0.2264899E+03  (-0.8900659E+02)
 number of electron     778.0000042 magnetization     212.9633180
 augmentation part      407.3503844 magnetization     179.4493881

 Broyden mixing:
  rms(total) = 0.20792E+02    rms(broyden)= 0.20792E+02
  rms(prec ) = 0.27387E+02
  weight for this iteration     100.00

 eigenvalues of (default mixing * dielectric matrix)
  average eigenvalue GAMMA=   0.2013
  0.2013

 Free energy of the ion-electron system (eV)
  ---------------------------------------------------
  alpha Z        PSCENC =      2116.97411455
  Ewald energy   TEWEN  =    220716.11804265
  -Hartree energ DENC   =   -291022.36821163
  -exchange      EXHF   =         0.00000000
  -V(xc)+E(xc)   XCENC  =      1333.26966161
  PAW double counting   =     68520.80226023   -70202.24197277
  entropy T*S    EENTRO =         0.00000000
  eigenvalues    EBANDS =     -2404.75689705
  atomic energy  EATOM  =     70218.65458108
  Solvation  Ediel_sol  =         0.00000000
  ---------------------------------------------------
  free energy    TOTEN  =      -723.54842133 eV

  energy without entropy =     -723.54842133  energy(sigma->0) =     -723.54842133


--------------------------------------------------------------------------------------------------------




--------------------------------------- Iteration      1(   7)  ---------------------------------------


    POTLOK:  cpu time    0.4029: real time    0.4524
    SETDIJ:  cpu time    0.0315: real time    0.0315
    EDDIAG:  cpu time    9.5870: real time    9.6146
  RMM-DIIS:  cpu time   36.6812: real time   36.7878
    ORTHCH:  cpu time    1.5120: real time    1.5168
 BZINTS: Fermi energy:  2.461157;778.000000 electrons
         Band energy:***********;  BLOECHL correction: -0.013619
       DOS:  cpu time    0.0242: real time    0.0242
    CHARGE:  cpu time    2.6252: real time    2.6328
    MIXING:  cpu time    0.0103: real time    0.0104
    --------------------------------------------
      LOOP:  cpu time   50.8742: real time   51.0704

 eigenvalue-minimisations  : 10000
 total energy-change (2. order) : 0.2146222E+03  (-0.1407656E+02)
 number of electron     778.0000043 magnetization     208.1971570
 augmentation part      371.7900506 magnetization     165.1123439

 Broyden mixing:
  rms(total) = 0.14540E+02    rms(broyden)= 0.14540E+02
  rms(prec ) = 0.19038E+02
  weight for this iteration     100.00

 eigenvalues of (default mixing * dielectric matrix)
  average eigenvalue GAMMA=   0.2625
  0.3548  0.1703

 Free energy of the ion-electron system (eV)
  ---------------------------------------------------
  alpha Z        PSCENC =      2116.97411455
  Ewald energy   TEWEN  =    220716.11804265
  -Hartree energ DENC   =   -291673.94708366
  -exchange      EXHF   =         0.00000000
  -V(xc)+E(xc)   XCENC  =      1352.08235755
  PAW double counting   =     69467.11931461   -71300.96633675
  entropy T*S    EENTRO =         0.00000000
  eigenvalues    EBANDS =     -1404.96122676
  atomic energy  EATOM  =     70218.65458108
  Solvation  Ediel_sol  =         0.00000000
  ---------------------------------------------------
  free energy    TOTEN  =      -508.92623674 eV

  energy without entropy =     -508.92623674  energy(sigma->0) =     -508.92623674


--------------------------------------------------------------------------------------------------------




--------------------------------------- Iteration      1(   8)  ---------------------------------------


    POTLOK:  cpu time    0.3994: real time    0.4213
    SETDIJ:  cpu time    0.0317: real time    0.0318
    EDDIAG:  cpu time    9.7745: real time   10.9290
  RMM-DIIS:  cpu time   36.7830: real time   36.8909
    ORTHCH:  cpu time    1.5133: real time    1.5190
 BZINTS: Fermi energy:  2.173655;778.000000 electrons
         Band energy:***********;  BLOECHL correction: -0.014659
       DOS:  cpu time    0.0269: real time    0.0271
    CHARGE:  cpu time    2.6257: real time    2.6332
    MIXING:  cpu time    0.0112: real time    0.0117
    --------------------------------------------
      LOOP:  cpu time   51.1658: real time   52.4640

 eigenvalue-minimisations  : 10017
 total energy-change (2. order) : 0.3541999E+02  (-0.1150278E+02)
[...]
      9.285176  5.906153  7.045354            0           0           0  
      3.833828  1.100724  0.971274            0           0           0  
      9.383058  5.869366  1.027641            0           0           0  
      5.293656  3.599639  0.970226            0           0           0  
     11.924778  8.898939  2.962048            0           0           0  
     11.981607  7.448374  4.855357            0           0           0  
     13.193916  6.597542  2.882437            0           0           0  
      9.303556  4.293801  2.835382            0           0           0  
      7.972750  8.220851  6.981640            0           0           0  
      8.046446  8.229719  0.959598            0           0           0  
     10.695259  6.742187  2.847658            0           0           0  
      2.615549  0.236938  5.015436            0           0           0  
      7.933692  3.561629  0.850090            0           0           0  
      5.202010  1.939702  2.981394            0           0           0  
      5.338761  6.630439  2.972345            0           0           0  
      7.928908  0.483479  4.850794            0           0           0  
      9.307424  1.211110  6.936731            0           0           0  
     10.595246  8.204233  6.960665            0           0           0  
      9.317076  1.158301  0.864467            0           0           0  
     10.665212  8.238233  0.863410            0           0           0  
      5.206873  5.107909  4.923290            0           0           0  
     11.938484  2.828573  4.893852            0           0           0  
     14.718570  9.081313  2.896185            0           0           0  
      9.370787  2.741080  4.940334            0           0           0  
      6.559717  2.770581  4.868703            0           0           0  
     11.985887  4.300799  2.860211            0           0           0  
      2.494481  1.932062  2.874749            0           0           0  
     12.009236  5.833312  0.946616            0           0           0  
      6.594007  5.893454  1.019087            0           0           0  
      8.063264  6.723522  2.857221            0           0           0  
      6.600611  4.253319  2.839239            0           0           0  
     10.682759  3.591668  7.020123            0           0           0  
     10.661759  3.516580  0.946802            0           0           0  
     10.670934  0.526185  4.879450            0           0           0  
      9.311335  7.483843  4.953735            0           0           0  
      6.698526  7.498825  4.948284            0           0           0  
      5.156621  0.258526  4.910685            0           0           0  
     13.320494  8.308857 10.190185     0.206442   -0.092857    0.974043  
 
   2 f  =   20.110682 THz   126.359142 2PiTHz  670.820126 cm-1    83.171125 meV
             X         Y         Z           dx          dy          dz
     13.313723  8.272147  6.948603            0           0           0  
      5.247058  8.293702  6.879599            0           0           0  
      5.100389  3.580093  6.972253            0           0           0  
     14.754294  9.071334  9.240926            0           0           0  
      3.821957  4.358333  9.281014            0           0           0  
      6.574229  9.038421  9.166031            0           0           0  
     11.987506  4.307002  9.268702            0           0           0  
      9.268258  9.028791  9.161600            0           0           0  
     10.633923  1.989367  9.146082            0           0           0  
      2.518143  1.990246  9.189665            0           0           0  
     11.965406  9.048413  9.255330            0           0           0  
     13.341391  6.643361  9.318246            0           0           0  
      5.194950  1.965699  9.226222            0           0           0  
      7.949478  6.705254  9.217903            0           0           0  
      9.303109  4.338091  9.195118            0           0           0  
      5.223323  6.672904  9.254035            0           0           0  
      7.930518  2.002440  9.172765            0           0           0  
      7.990415  3.538015  6.931421            0           0           0  
      6.476493  1.176271  6.888945            0           0           0  
      6.625415  1.160332  1.015684            0           0           0  
      3.781242  4.311350  2.857028            0           0           0  
      1.222420  1.273661  6.876310            0           0           0  
      1.155667  1.236749  0.808122            0           0           0  
      6.623520  9.009001  2.946383            0           0           0  
      6.559359  4.333163  9.258930            0           0           0  
      7.924386  5.154587  4.809687            0           0           0  
     10.596063  6.682391  9.213554            0           0           0  
     14.636615  7.394658  4.850510            0           0           0  
     12.030828  5.866056  6.994149            0           0           0  
      6.586684  5.936354  6.957416            0           0           0  
      3.679311  2.605645  4.972553            0           0           0  
     10.647133  5.188120  4.859473            0           0           0  
      3.876367  5.948989  7.101139            0           0           0  
     13.314214  8.097277  1.056847            0           0           0  
      5.309055  8.115949  0.939361            0           0           0  
      3.928568  5.941560  0.935923            0           0           0  
      8.053859  2.129465  2.900542            0           0           0  
      9.328990  8.966088  2.903328            0           0           0  
      2.465451  3.611719  7.087014            0           0           0  
      2.353113  3.571451  0.915896            0           0           0  
     10.645881  2.029694  2.876600            0           0           0  
     13.320024  5.112937  4.938275            0           0           0  
      3.864915  1.078856  7.032069            0           0           0  
      9.285176  5.906153  7.045354            0           0           0  
      3.833828  1.100724  0.971274            0           0           0  
      9.383058  5.869366  1.027641            0           0           0  
      5.293656  3.599639  0.970226            0           0           0  
     11.924778  8.898939  2.962048            0           0           0  
     11.981607  7.448374  4.855357            0           0           0  
     13.193916  6.597542  2.882437            0           0           0  
      9.303556  4.293801  2.835382            0           0           0  
      7.972750  8.220851  6.981640            0           0           0  
      8.046446  8.229719  0.959598            0           0           0  
     10.695259  6.742187  2.847658            0           0           0  
      2.615549  0.236938  5.015436            0           0           0  
      7.933692  3.561629  0.850090            0           0           0  
      5.202010  1.939702  2.981394            0           0           0  
      5.338761  6.630439  2.972345            0           0           0  
      7.928908  0.483479  4.850794            0           0           0  
      9.307424  1.211110  6.936731            0           0           0  
     10.595246  8.204233  6.960665            0           0           0  
      9.317076  1.158301  0.864467            0           0           0  
     10.665212  8.238233  0.863410            0           0           0  
      5.206873  5.107909  4.923290            0           0           0  
     11.938484  2.828573  4.893852            0           0           0  
     14.718570  9.081313  2.896185            0           0           0  
      9.370787  2.741080  4.940334            0           0           0  
      6.559717  2.770581  4.868703            0           0           0  
     11.985887  4.300799  2.860211            0           0           0  
      2.494481  1.932062  2.874749            0           0           0  
     12.009236  5.833312  0.946616            0           0           0  
      6.594007  5.893454  1.019087            0           0           0  
      8.063264  6.723522  2.857221            0           0           0  
      6.600611  4.253319  2.839239            0           0           0  
     10.682759  3.591668  7.020123            0           0           0  
     10.661759  3.516580  0.946802            0           0           0  
     10.670934  0.526185  4.879450            0           0           0  
      9.311335  7.483843  4.953735            0           0           0  
      6.698526  7.498825  4.948284            0           0           0  
      5.156621  0.258526  4.910685            0           0           0  
     13.320494  8.308857 10.190185    -0.684747    0.697383    0.211610  
 
   3 f  =   16.651112 THz   104.622021 2PiTHz  555.421287 cm-1    68.863488 meV
             X         Y         Z           dx          dy          dz
     13.313723  8.272147  6.948603            0           0           0  
      5.247058  8.293702  6.879599            0           0           0  
      5.100389  3.580093  6.972253            0           0           0  
     14.754294  9.071334  9.240926            0           0           0  
      3.821957  4.358333  9.281014            0           0           0  
      6.574229  9.038421  9.166031            0           0           0  
     11.987506  4.307002  9.268702            0           0           0  
      9.268258  9.028791  9.161600            0           0           0  
     10.633923  1.989367  9.146082            0           0           0  
      2.518143  1.990246  9.189665            0           0           0  
     11.965406  9.048413  9.255330            0           0           0  
     13.341391  6.643361  9.318246            0           0           0  
      5.194950  1.965699  9.226222            0           0           0  
      7.949478  6.705254  9.217903            0           0           0  
      9.303109  4.338091  9.195118            0           0           0  
      5.223323  6.672904  9.254035            0           0           0  
      7.930518  2.002440  9.172765            0           0           0  
      7.990415  3.538015  6.931421            0           0           0  
      6.476493  1.176271  6.888945            0           0           0  
      6.625415  1.160332  1.015684            0           0           0  
      3.781242  4.311350  2.857028            0           0           0  
      1.222420  1.273661  6.876310            0           0           0  
      1.155667  1.236749  0.808122            0           0           0  
      6.623520  9.009001  2.946383            0           0           0  
      6.559359  4.333163  9.258930            0           0           0  
      7.924386  5.154587  4.809687            0           0           0  
     10.596063  6.682391  9.213554            0           0           0  
     14.636615  7.394658  4.850510            0           0           0  
     12.030828  5.866056  6.994149            0           0           0  
      6.586684  5.936354  6.957416            0           0           0  
      3.679311  2.605645  4.972553            0           0           0  
     10.647133  5.188120  4.859473            0           0           0  
      3.876367  5.948989  7.101139            0           0           0  
     13.314214  8.097277  1.056847            0           0           0  
      5.309055  8.115949  0.939361            0           0           0  
      3.928568  5.941560  0.935923            0           0           0  
      8.053859  2.129465  2.900542            0           0           0  
      9.328990  8.966088  2.903328            0           0           0  
      2.465451  3.611719  7.087014            0           0           0  
      2.353113  3.571451  0.915896            0           0           0  
     10.645881  2.029694  2.876600            0           0           0  
     13.320024  5.112937  4.938275            0           0           0  
      3.864915  1.078856  7.032069            0           0           0  
      9.285176  5.906153  7.045354            0           0           0  
      3.833828  1.100724  0.971274            0           0           0  
      9.383058  5.869366  1.027641            0           0           0  
      5.293656  3.599639  0.970226            0           0           0  
     11.924778  8.898939  2.962048            0           0           0  
     11.981607  7.448374  4.855357            0           0           0  
     13.193916  6.597542  2.882437            0           0           0  
      9.303556  4.293801  2.835382            0           0           0  
      7.972750  8.220851  6.981640            0           0           0  
      8.046446  8.229719  0.959598            0           0           0  
     10.695259  6.742187  2.847658            0           0           0  
      2.615549  0.236938  5.015436            0           0           0  
      7.933692  3.561629  0.850090            0           0           0  
      5.202010  1.939702  2.981394            0           0           0  
      5.338761  6.630439  2.972345            0           0           0  
      7.928908  0.483479  4.850794            0           0           0  
      9.307424  1.211110  6.936731            0           0           0  
     10.595246  8.204233  6.960665            0           0           0  
      9.317076  1.158301  0.864467            0           0           0  
     10.665212  8.238233  0.863410            0           0           0  
      5.206873  5.107909  4.923290            0           0           0  
     11.938484  2.828573  4.893852            0           0           0  
     14.718570  9.081313  2.896185            0           0           0  
      9.370787  2.741080  4.940334            0           0           0  
      6.559717  2.770581  4.868703            0           0           0  
     11.985887  4.300799  2.860211            0           0           0  
      2.494481  1.932062  2.874749            0           0           0  
     12.009236  5.833312  0.946616            0           0           0  
      6.594007  5.893454  1.019087            0           0           0  
      8.063264  6.723522  2.857221            0           0           0  
      6.600611  4.253319  2.839239            0           0           0  
     10.682759  3.591668  7.020123            0           0           0  
     10.661759  3.516580  0.946802            0           0           0  
     10.670934  0.526185  4.879450            0           0           0  
      9.311335  7.483843  4.953735            0           0           0  
      6.698526  7.498825  4.948284            0           0           0  
      5.156621  0.258526  4.910685            0           0           0  
     13.320494  8.308857 10.190185     0.698931    0.710658   -0.080386  
 
 Finite differences POTIM=  1.500000000000000E-002
  LATTYP: Found a hexagonal cell.
 ALAT       =    10.8599996567
 C/A-ratio  =     2.0257827528
  
  Lattice vectors:
  
 A1 = (   5.4299998284,  -9.4050355878,   0.0000000000)
 A2 = ( -10.8599996567,   0.0000000000,   0.0000000000)
 A3 = (   0.0000000000,   0.0000000000, -22.0000000000)


Analysis of symmetry for initial positions (statically):
=====================================================================
 Subroutine PRICEL returns:
 Original cell was already a primitive cell.
 

 Routine SETGRP: Setting up the symmetry group for a 
 hexagonal supercell.


 Subroutine GETGRP returns: Found  1 space group operations
 (whereof  1 operations were pure point group operations)
 out of a pool of 24 trial point group operations.


The static configuration has the point symmetry C_1 .


Analysis of symmetry for dynamics (positions and initial velocities):
=====================================================================
 Subroutine PRICEL returns:
 Original cell was already a primitive cell.
 

 Routine SETGRP: Setting up the symmetry group for a 
 hexagonal supercell.


 Subroutine GETGRP returns: Found  1 space group operations
 (whereof  1 operations were pure point group operations)
 out of a pool of 24 trial point group operations.


The dynamic configuration has the point symmetry C_1 .


Analysis of constrained symmetry for selective dynamics:
=====================================================================
 Subroutine PRICEL returns:
 Original cell was already a primitive cell.
 

 Routine SETGRP: Setting up the symmetry group for a 
 hexagonal supercell.


 Subroutine GETGRP returns: Found  1 space group operations
 (whereof  1 operations were pure point group operations)
 out of a pool of 24 trial point group operations.


The constrained configuration has the point symmetry C_1 .


Analysis of structural, dynamic, and magnetic symmetry:
=====================================================================
 Subroutine PRICEL returns:
 Original cell was already a primitive cell.
 

 Routine SETGRP: Setting up the symmetry group for a 
 hexagonal supercell.


 Subroutine GETGRP returns: Found  1 space group operations
 (whereof  1 operations were pure point group operations)
 out of a pool of 24 trial point group operations.


The magnetic configuration has the point symmetry C_1 .


 Subroutine INISYM returns: Found  1 space group operations
 (whereof  1 operations are pure point group operations),
 and found     1 'primitive' translations

 
 KPOINTS: mesh auto                               

Automatic generation of k-mesh.
Space group operators:
 irot       det(A)        alpha          n_x          n_y          n_z        tau_x        tau_y        tau_z
    1     1.000000     0.000001     1.000000     0.000000     0.000000     0.000000     0.000000     0.000000
 
 Subroutine IBZKPT returns following result:
 ===========================================
 
 Found      4 irreducible k-points:
 
 Following reciprocal coordinates:
            Coordinates               Weight
  0.000000  0.000000  0.000000      1.000000
  0.500000  0.000000  0.000000      1.000000
  0.000000  0.500000  0.000000      1.000000
  0.500000  0.500000  0.000000      1.000000
 
 Following cartesian coordinates:
            Coordinates               Weight
  0.000000  0.000000  0.000000      1.000000
  0.046041 -0.026582  0.000000      1.000000
  0.000000  0.053163  0.000000      1.000000
  0.046041  0.026582  0.000000      1.000000
 
 TETIRR: Found     12 inequivalent tetrahedra from       24
     LOOP+:  cpu time  464.8419: real time  466.7615
    4ORBIT:  cpu time    0.0000: real time    0.0000
 BZINTS: Fermi energy:  1.692263;778.000000 electrons
         Band energy:-876.780150;  BLOECHL correction: -0.271472

 total amount of memory used by VASP MPI-rank0   370198. kBytes
=======================================================================

   base      :      30000. kBytes
   nonlr-proj:      93061. kBytes
   fftplans  :      12162. kBytes
   grid      :     120476. kBytes
   one-center:       2519. kBytes
   wavefun   :     111980. kBytes
 
  
  
 General timing and accounting informations for this job:
 ========================================================
  
                  Total CPU time used (sec):     7207.607
                            User time (sec):     7182.292
                          System time (sec):       25.315
                         Elapsed time (sec):     7250.544
  
                   Maximum memory used (kb):      693432.
                   Average memory used (kb):           0.
  
                          Minor page faults:      2602789
                          Major page faults:          165
                 Voluntary context switches:         7190
