 vasp.5.4.4.18Apr17-6-g9f103f2a35 (build Oct 25 2019 11:13:22) complex          
  
 executed on             LinuxIFC date 2021.10.30  04:50:09
 running on   48 total cores
 distrk:  each k-point on   48 cores,    1 groups
 distr:  one band on NCORES_PER_BAND=   4 cores,   12 groups


--------------------------------------------------------------------------------------------------------


 INCAR:
 POTCAR:    PAW_PBE Pt 04Feb2005                  
 POTCAR:    PAW_PBE Fe 06Sep2000                  
 POTCAR:    PAW_PBE Co 02Aug2007                  
 POTCAR:    PAW_PBE Cu 22Jun2005                  
 POTCAR:    PAW_PBE Ni 02Aug2007                  
 POTCAR:    PAW_PBE H 15Jun2001                   
 POTCAR:    PAW_PBE Pt 04Feb2005                  
   VRHFIN =Pt: s1d9                                                             
   LEXCH  = PE                                                                  
   EATOM  =   729.1176 eV,   53.5886 Ry                                         
                                                                                
   TITEL  = PAW_PBE Pt 04Feb2005                                                
   LULTRA =        F    use ultrasoft PP ?                                      
   IUNSCR =        1    unscreen: 0-lin 1-nonlin 2-no                           
   RPACOR =    2.330    partial core radius                                     
   POMASS =  195.080; ZVAL   =   10.000    mass and valenz                      
   RCORE  =    2.600    outmost cutoff radius                                   
   RWIGS  =    2.750; RWIGS  =    1.455    wigner-seitz radius (au A)           
   ENMAX  =  230.283; ENMIN  =  172.712 eV                                      
   ICORE  =        3    local potential                                         
   LCOR   =        T    correct aug charges                                     
   LPAW   =        T    paw PP                                                  
   EAUG   =  358.966                                                            
   DEXC   =    0.000                                                            
   RMAX   =    2.658    core radius for proj-oper                               
   RAUG   =    1.300    factor for augmentation sphere                          
   RDEP   =    2.761    radius for radial grids                                 
   RDEPT  =    2.203    core radius for aug-charge                              
                                                                                
   Atomic configuration                                                         
   16 entries                                                                   
     n  l   j            E        occ.                                          
     1  0  0.50    -78401.1885   2.0000                                         
     2  0  0.50    -13770.7750   2.0000                                         
     2  1  1.50    -11931.0468   6.0000                                         
     3  0  0.50     -3234.7234   2.0000                                         
     3  1  1.50     -2699.2216   6.0000                                         
     3  2  2.50     -2119.5714  10.0000                                         
     4  0  0.50      -695.1528   2.0000                                         
     4  1  1.50      -519.6034   6.0000                                         
     4  2  2.50      -306.6786  10.0000                                         
     4  3  3.50       -70.1041  14.0000                                         
     5  0  0.50      -101.7747   2.0000                                         
     5  1  1.50       -55.9873   6.0000                                         
     5  2  2.50        -6.1423   9.0000                                         
     6  0  0.50        -5.6573   1.0000                                         
     6  1  1.50        -6.8029   0.0000                                         
     5  3  2.50        -1.3606   0.0000                                         
   Description                                                                  
     l       E           TYP  RCUT    TYP  RCUT                                 
     2     -6.1423404     23  2.500                                             
     2     -7.5029230     23  2.500                                             
     0     -5.6573207     23  2.500                                             
     0      0.7416693     23  2.500                                             
     1     -2.7211652     23  2.600                                             
     1     20.4087390     23  2.600                                             
     3     -1.3605826     23  2.500                                             
  local pseudopotential read in
  partial core-charges read in
  partial kinetic energy density read in
  atomic valenz-charges read in
  non local Contribution for L=           2  read in
    real space projection operators read in
  non local Contribution for L=           2  read in
    real space projection operators read in
  non local Contribution for L=           0  read in
    real space projection operators read in
  non local Contribution for L=           0  read in
    real space projection operators read in
  non local Contribution for L=           1  read in
    real space projection operators read in
  non local Contribution for L=           1  read in
    real space projection operators read in
    PAW grid and wavefunctions read in
 
   number of l-projection  operators is LMAX  =           6
   number of lm-projection operators is LMMAX =          18
 
 POTCAR:    PAW_PBE Fe 06Sep2000                  
   VRHFIN =Fe:  d7 s1                                                           
   LEXCH  = PE                                                                  
   EATOM  =   594.3153 eV,   43.6809 Ry                                         
                                                                                
   TITEL  = PAW_PBE Fe 06Sep2000                                                
   LULTRA =        F    use ultrasoft PP ?                                      
   IUNSCR =        1    unscreen: 0-lin 1-nonlin 2-no                           
   RPACOR =    2.000    partial core radius                                     
   POMASS =   55.847; ZVAL   =    8.000    mass and valenz                      
   RCORE  =    2.300    outmost cutoff radius                                   
   RWIGS  =    2.460; RWIGS  =    1.302    wigner-seitz radius (au A)           
   ENMAX  =  267.882; ENMIN  =  200.911 eV                                      
   RCLOC  =    1.701    cutoff for local pot                                    
   LCOR   =        T    correct aug charges                                     
   LPAW   =        T    paw PP                                                  
   EAUG   =  511.368                                                            
   DEXC   =    0.000                                                            
   RMAX   =    2.356    core radius for proj-oper                               
   RAUG   =    1.300    factor for augmentation sphere                          
   RDEP   =    2.442    radius for radial grids                                 
   RDEPT  =    1.890    core radius for aug-charge                              
                                                                                
   Atomic configuration                                                         
    9 entries                                                                   
     n  l   j            E        occ.                                          
     1  0  0.50     -6993.8440   2.0000                                         
     2  0  0.50      -814.6047   2.0000                                         
     2  1  1.50      -693.3689   6.0000                                         
     3  0  0.50       -89.4732   2.0000                                         
     3  1  1.50       -55.6373   6.0000                                         
     3  2  2.50        -3.8151   7.0000                                         
     4  0  0.50        -4.2551   1.0000                                         
     4  1  1.50        -3.4015   0.0000                                         
     4  3  2.50        -1.3606   0.0000                                         
   Description                                                                  
     l       E           TYP  RCUT    TYP  RCUT                                 
     2     -3.8151135     23  2.300                                             
     2     -5.1756961     23  2.300                                             
     0     -4.2550963     23  2.300                                             
     0      7.2035603     23  2.300                                             
     1     -2.7211652     23  2.300                                             
     1     18.4316424     23  2.300                                             
  local pseudopotential read in
  partial core-charges read in
  partial kinetic energy density read in
  atomic valenz-charges read in
  non local Contribution for L=           2  read in
    real space projection operators read in
  non local Contribution for L=           2  read in
    real space projection operators read in
  non local Contribution for L=           0  read in
    real space projection operators read in
  non local Contribution for L=           0  read in
    real space projection operators read in
  non local Contribution for L=           1  read in
    real space projection operators read in
  non local Contribution for L=           1  read in
    real space projection operators read in
    PAW grid and wavefunctions read in
 
   number of l-projection  operators is LMAX  =           6
   number of lm-projection operators is LMMAX =          18
 
 POTCAR:    PAW_PBE Co 02Aug2007                  
   VRHFIN =Co: d8 s1                                                            
   LEXCH  = PE                                                                  
   EATOM  =   813.3670 eV,   59.7808 Ry                                         
                                                                                
   TITEL  = PAW_PBE Co 02Aug2007                                                
   LULTRA =        F    use ultrasoft PP ?                                      
   IUNSCR =        1    unscreen: 0-lin 1-nonlin 2-no                           
   RPACOR =    2.000    partial core radius                                     
   POMASS =   58.933; ZVAL   =    9.000    mass and valenz                      
   RCORE  =    2.300    outmost cutoff radius                                   
   RWIGS  =    2.460; RWIGS  =    1.302    wigner-seitz radius (au A)           
   ENMAX  =  267.968; ENMIN  =  200.976 eV                                      
   RCLOC  =    1.203    cutoff for local pot                                    
   LCOR   =        T    correct aug charges                                     
   LPAW   =        T    paw PP                                                  
   EAUG   =  477.818                                                            
   DEXC   =    0.000                                                            
   RMAX   =    2.360    core radius for proj-oper                               
   RAUG   =    1.300    factor for augmentation sphere                          
   RDEP   =    2.393    radius for radial grids                                 
   RDEPT  =    1.864    core radius for aug-charge                              
                                                                                
   Atomic configuration                                                         
    9 entries                                                                   
     n  l   j            E        occ.                                          
     1  0  0.50     -7587.6674   2.0000                                         
     2  0  0.50      -893.6084   2.0000                                         
     2  1  1.50      -764.5805   6.0000                                         
     3  0  0.50       -97.5973   2.0000                                         
     3  1  1.50       -60.9648   6.0000                                         
     3  2  2.50        -4.2382   8.0000                                         
     4  0  0.50        -4.3746   1.0000                                         
     4  1  1.50        -4.0817   0.0000                                         
     4  3  2.50        -1.3606   0.0000                                         
   Description                                                                  
     l       E           TYP  RCUT    TYP  RCUT                                 
     2     -4.2382362     23  2.300                                             
     2     -5.5988188     23  2.300                                             
     0     -4.3745797     23  2.300                                             
     0      5.7660125     23  2.300                                             
     1     -2.7211652     23  2.300                                             
     1     16.9860234     23  2.300                                             
  local pseudopotential read in
  partial core-charges read in
  partial kinetic energy density read in
  atomic valenz-charges read in
  non local Contribution for L=           2  read in
    real space projection operators read in
  non local Contribution for L=           2  read in
    real space projection operators read in
  non local Contribution for L=           0  read in
    real space projection operators read in
  non local Contribution for L=           0  read in
    real space projection operators read in
  non local Contribution for L=           1  read in
    real space projection operators read in
  non local Contribution for L=           1  read in
    real space projection operators read in
    PAW grid and wavefunctions read in
 
   number of l-projection  operators is LMAX  =           6
   number of lm-projection operators is LMMAX =          18
 
 POTCAR:    PAW_PBE Cu 22Jun2005                  
   VRHFIN =Cu: d10 p1                                                           
   LEXCH  = PE                                                                  
   EATOM  =  1390.9808 eV,  102.2342 Ry                                         
                                                                                
   TITEL  = PAW_PBE Cu 22Jun2005                                                
   LULTRA =        F    use ultrasoft PP ?                                      
   IUNSCR =        1    unscreen: 0-lin 1-nonlin 2-no                           
   RPACOR =    2.000    partial core radius                                     
   POMASS =   63.546; ZVAL   =   11.000    mass and valenz                      
   RCORE  =    2.300    outmost cutoff radius                                   
   RWIGS  =    2.200; RWIGS  =    1.164    wigner-seitz radius (au A)           
   ENMAX  =  295.446; ENMIN  =  221.585 eV                                      
   ICORE  =        3    local potential                                         
   LCOR   =        T    correct aug charges                                     
   LPAW   =        T    paw PP                                                  
   EAUG   =  586.980                                                            
   DEXC   =    0.000                                                            
   RMAX   =    2.344    core radius for proj-oper                               
   RAUG   =    1.300    factor for augmentation sphere                          
   RDEP   =    2.302    radius for radial grids                                 
   RDEPT  =    1.771    core radius for aug-charge                              
                                                                                
   Atomic configuration                                                         
    9 entries                                                                   
     n  l   j            E        occ.                                          
     1  0  0.50     -8850.2468   2.0000                                         
     2  0  0.50     -1062.3498   2.0000                                         
     2  1  1.50      -916.8226   6.0000                                         
     3  0  0.50      -114.6929   2.0000                                         
     3  1  1.50       -72.1325   6.0000                                         
     3  2  2.50        -5.0394  10.0000                                         
     4  0  0.50        -4.6097   1.0000                                         
     4  1  0.50        -4.0817   0.0000                                         
     4  3  2.50        -1.3606   0.0000                                         
   Description                                                                  
     l       E           TYP  RCUT    TYP  RCUT                                 
     2     -5.0393973     23  2.200                                             
     2     10.8846608     23  2.200                                             
     0     -4.6097109     23  2.200                                             
     0      8.2520465     23  2.200                                             
     1     -2.7211652     23  2.200                                             
     1     21.7055443     23  2.200                                             
     3      2.7211652     23  2.300                                             
  local pseudopotential read in
  partial core-charges read in
  partial kinetic energy density read in
  atomic valenz-charges read in
  non local Contribution for L=           2  read in
    real space projection operators read in
  non local Contribution for L=           2  read in
    real space projection operators read in
  non local Contribution for L=           0  read in
    real space projection operators read in
  non local Contribution for L=           0  read in
    real space projection operators read in
  non local Contribution for L=           1  read in
    real space projection operators read in
  non local Contribution for L=           1  read in
    real space projection operators read in
    PAW grid and wavefunctions read in
 
   number of l-projection  operators is LMAX  =           6
   number of lm-projection operators is LMMAX =          18
 
 POTCAR:    PAW_PBE Ni 02Aug2007                  
   VRHFIN =Ni:                                                                  
   LEXCH  = PE                                                                  
   EATOM  =  1077.6739 eV,   79.2068 Ry                                         
                                                                                
   TITEL  = PAW_PBE Ni 02Aug2007                                                
   LULTRA =        F    use ultrasoft PP ?                                      
   IUNSCR =        1    unscreen: 0-lin 1-nonlin 2-no                           
   RPACOR =    2.000    partial core radius                                     
   POMASS =   58.690; ZVAL   =   10.000    mass and valenz                      
   RCORE  =    2.300    outmost cutoff radius                                   
   RWIGS  =    2.430; RWIGS  =    1.286    wigner-seitz radius (au A)           
   ENMAX  =  269.532; ENMIN  =  202.149 eV                                      
   RCLOC  =    1.201    cutoff for local pot                                    
   LCOR   =        T    correct aug charges                                     
   LPAW   =        T    paw PP                                                  
   EAUG   =  544.565                                                            
   DEXC   =    0.000                                                            
   RMAX   =    2.357    core radius for proj-oper                               
   RAUG   =    1.300    factor for augmentation sphere                          
   RDEP   =    2.390    radius for radial grids                                 
   RDEPT  =    1.838    core radius for aug-charge                              
                                                                                
   Atomic configuration                                                         
    9 entries                                                                   
     n  l   j            E        occ.                                          
     1  0  0.50     -8206.4253   2.0000                                         
     2  0  0.50      -976.1748   2.0000                                         
     2  1  1.50      -839.0571   6.0000                                         
     3  0  0.50      -105.9991   2.0000                                         
     3  1  1.50       -66.4603   6.0000                                         
     3  2  2.50        -4.6458   9.0000                                         
     4  0  0.50        -4.4926   1.0000                                         
     4  1  1.50        -4.0817   0.0000                                         
     4  3  2.50        -1.3606   0.0000                                         
   Description                                                                  
     l       E           TYP  RCUT    TYP  RCUT                                 
     2     -4.6457903     23  2.300                                             
     2     -6.0063729     23  2.300                                             
     0     -4.4925590     23  2.300                                             
     0      5.0102601     23  2.300                                             
     1     -2.7211652     23  2.300                                             
     1     16.5183231     23  2.300                                             
  local pseudopotential read in
  partial core-charges read in
  partial kinetic energy density read in
  atomic valenz-charges read in
  non local Contribution for L=           2  read in
    real space projection operators read in
  non local Contribution for L=           2  read in
    real space projection operators read in
  non local Contribution for L=           0  read in
    real space projection operators read in
  non local Contribution for L=           0  read in
    real space projection operators read in
  non local Contribution for L=           1  read in
    real space projection operators read in
  non local Contribution for L=           1  read in
    real space projection operators read in
    PAW grid and wavefunctions read in
 
   number of l-projection  operators is LMAX  =           6
   number of lm-projection operators is LMMAX =          18
 
 POTCAR:    PAW_PBE H 15Jun2001                   
   VRHFIN =H: ultrasoft test                                                    
   LEXCH  = PE                                                                  
   EATOM  =    12.4884 eV,    0.9179 Ry                                         
                                                                                
   TITEL  = PAW_PBE H 15Jun2001                                                 
   LULTRA =        F    use ultrasoft PP ?                                      
   IUNSCR =        0    unscreen: 0-lin 1-nonlin 2-no                           
   RPACOR =    0.000    partial core radius                                     
   POMASS =    1.000; ZVAL   =    1.000    mass and valenz                      
   RCORE  =    1.100    outmost cutoff radius                                   
   RWIGS  =    0.700; RWIGS  =    0.370    wigner-seitz radius (au A)           
   ENMAX  =  250.000; ENMIN  =  200.000 eV                                      
   RCLOC  =    0.701    cutoff for local pot                                    
   LCOR   =        T    correct aug charges                                     
   LPAW   =        T    paw PP                                                  
   EAUG   =  400.000                                                            
   RMAX   =    1.123    core radius for proj-oper                               
   RAUG   =    1.200    factor for augmentation sphere                          
   RDEP   =    1.112    radius for radial grids                                 
   RDEPT  =    0.926    core radius for aug-charge                              
                                                                                
   Atomic configuration                                                         
    2 entries                                                                   
     n  l   j            E        occ.                                          
     1  0  0.50        -6.4927   1.0000                                         
     2  1  0.50        -3.4015   0.0000                                         
   Description                                                                  
     l       E           TYP  RCUT    TYP  RCUT                                 
     0     -6.4927494     23  1.100                                             
     0      6.8029130     23  1.100                                             
     1     -4.0817478     23  1.100                                             
  local pseudopotential read in
  atomic valenz-charges read in
  non local Contribution for L=           0  read in
    real space projection operators read in
  non local Contribution for L=           0  read in
    real space projection operators read in
  non local Contribution for L=           1  read in
    real space projection operators read in
    PAW grid and wavefunctions read in
 
   number of l-projection  operators is LMAX  =           3
   number of lm-projection operators is LMMAX =           5
 
 Optimization of the real space projectors (new method)

 maximal supplied QI-value         = 14.36
 optimisation between [QCUT,QGAM] = [ 11.92, 23.98] = [ 39.79,161.09] Ry 
 Optimized for a Real-space Cutoff    1.49 Angstroem

   l    n(q)    QCUT    max X(q) W(low)/X(q) W(high)/X(q)  e(spline) 
   2     10    11.920    66.195    0.79E-04    0.18E-03    0.24E-06
   2     10    11.920    64.643    0.81E-04    0.19E-03    0.24E-06
   0     11    11.920    95.520    0.28E-04    0.54E-04    0.18E-06
   0     11    11.920    63.403    0.27E-04    0.52E-04    0.17E-06
   1     10    11.920    19.961    0.18E-04    0.11E-03    0.23E-06
   1     10    11.920    13.289    0.25E-04    0.87E-04    0.19E-06
 Optimization of the real space projectors (new method)

 maximal supplied QI-value         = 16.25
 optimisation between [QCUT,QGAM] = [ 11.86, 23.89] = [ 39.41,159.82] Ry 
 Optimized for a Real-space Cutoff    1.49 Angstroem

   l    n(q)    QCUT    max X(q) W(low)/X(q) W(high)/X(q)  e(spline) 
   2     10    11.864    80.901    0.13E-03    0.23E-03    0.37E-06
   2     10    11.864    75.754    0.13E-03    0.23E-03    0.38E-06
   0     11    11.864    58.752    0.44E-04    0.11E-04    0.20E-06
   0     11    11.864    30.679    0.36E-04    0.10E-04    0.18E-06
   1     10    11.864    17.977    0.31E-04    0.45E-04    0.10E-06
   1     10    11.864    13.559    0.25E-04    0.37E-04    0.89E-07
 Optimization of the real space projectors (new method)

 maximal supplied QI-value         = 16.25
 optimisation between [QCUT,QGAM] = [ 11.86, 23.89] = [ 39.41,159.82] Ry 
 Optimized for a Real-space Cutoff    1.33 Angstroem

   l    n(q)    QCUT    max X(q) W(low)/X(q) W(high)/X(q)  e(spline) 
   2      9    11.864    65.824    0.22E-03    0.53E-03    0.26E-06
   2      9    11.864    61.429    0.22E-03    0.53E-03    0.26E-06
   0      9    11.864    56.174    0.21E-03    0.32E-04    0.15E-06
   0      9    11.864    31.263    0.19E-03    0.30E-04    0.14E-06
   1      9    11.864    19.828    0.63E-04    0.30E-03    0.16E-06
   1      9    11.864    15.139    0.49E-04    0.25E-03    0.13E-06
 Optimization of the real space projectors (new method)

 maximal supplied QI-value         = 16.25
 optimisation between [QCUT,QGAM] = [ 11.86, 23.89] = [ 39.41,159.82] Ry 
 Optimized for a Real-space Cutoff    1.49 Angstroem

   l    n(q)    QCUT    max X(q) W(low)/X(q) W(high)/X(q)  e(spline) 
   2     10    11.864     4.610    0.10E-03    0.20E-03    0.29E-06
   2     10    11.864     8.522    0.17E-03    0.33E-03    0.50E-06
   0     11    11.864    51.609    0.52E-04    0.55E-04    0.33E-06
   0     11    11.864    27.747    0.46E-04    0.52E-04    0.31E-06
   1     10    11.864    20.408    0.54E-04    0.25E-04    0.21E-06
   1     10    11.864    13.425    0.48E-04    0.22E-04    0.18E-06
 Optimization of the real space projectors (new method)

 maximal supplied QI-value         = 16.25
 optimisation between [QCUT,QGAM] = [ 11.86, 23.89] = [ 39.41,159.82] Ry 
 Optimized for a Real-space Cutoff    1.33 Angstroem

   l    n(q)    QCUT    max X(q) W(low)/X(q) W(high)/X(q)  e(spline) 
   2      9    11.864    60.317    0.21E-03    0.51E-03    0.25E-06
   2      9    11.864    55.921    0.21E-03    0.51E-03    0.26E-06
   0      9    11.864    51.690    0.22E-03    0.30E-04    0.17E-06
   0      9    11.864    30.015    0.20E-03    0.28E-04    0.15E-06
   1      9    11.864    18.849    0.76E-04    0.33E-03    0.17E-06
   1      9    11.864    14.624    0.60E-04    0.28E-03    0.15E-06
 Optimization of the real space projectors (new method)

 maximal supplied QI-value         = 34.20
 optimisation between [QCUT,QGAM] = [ 11.97, 23.94] = [ 40.13,160.53] Ry 
 Optimized for a Real-space Cutoff    1.18 Angstroem

   l    n(q)    QCUT    max X(q) W(low)/X(q) W(high)/X(q)  e(spline) 
   0      8    11.971    19.460    0.15E-03    0.31E-03    0.25E-06
   0      8    11.971    12.209    0.13E-03    0.29E-03    0.25E-06
   1      8    11.971     4.655    0.22E-03    0.24E-03    0.21E-06
  PAW_PBE Pt 04Feb2005                  :
 energy of atom  1       EATOM= -729.1176
 kinetic energy error for atom=    0.0021 (will be added to EATOM!!)
  PAW_PBE Fe 06Sep2000                  :
 energy of atom  2       EATOM= -594.3153
 kinetic energy error for atom=    0.0024 (will be added to EATOM!!)
  PAW_PBE Co 02Aug2007                  :
 energy of atom  3       EATOM= -813.3670
 kinetic energy error for atom=    0.0026 (will be added to EATOM!!)
  PAW_PBE Cu 22Jun2005                  :
 energy of atom  4       EATOM=-1390.9808
 kinetic energy error for atom=    0.0036 (will be added to EATOM!!)
  PAW_PBE Ni 02Aug2007                  :
 energy of atom  5       EATOM=-1077.6739
 kinetic energy error for atom=    0.0027 (will be added to EATOM!!)
  PAW_PBE H 15Jun2001                   :
 energy of atom  6       EATOM=  -12.4884
 kinetic energy error for atom=    0.0008 (will be added to EATOM!!)
 
 
 POSCAR: 11.26-high                              
  positions in direct lattice
  velocities in cartesian coordinates
 exchange correlation table for  LEXCH =        8
   RHO(1)=    0.500       N(1)  =     2000
   RHO(2)=  100.500       N(2)  =     4000
 


--------------------------------------------------------------------------------------------------------


 ion  position               nearest neighbor table
   1  0.776  0.870  0.315-  56 2.59  32 2.67  15 2.74  33 2.75  65 2.77  23 2.78   8 2.78  40 2.79
                            16 2.83  41 2.87   3 2.88   2 2.93
   2  0.037  0.869  0.316-  38 2.65  79 2.66  32 2.76  26 2.76   8 2.79  34 2.81  58 2.81  10 2.81
                            41 2.83   3 2.83  20 2.84   1 2.93
   3  0.036  0.617  0.313-  50 2.60  68 2.63  32 2.69   6 2.81   9 2.81   4 2.81   2 2.83  20 2.84
                            33 2.85  34 2.86  16 2.87   1 2.88
   4  0.028  0.371  0.319-  50 2.61  36 2.68  42 2.70  11 2.72  77 2.76   9 2.77  14 2.77  33 2.80
                             3 2.81  26 2.83   6 2.88   5 2.96
   5  0.290  0.106  0.318-  61 2.55  36 2.68  12 2.69  39 2.69  58 2.70  26 2.77  65 2.77  14 2.78
                            17 2.79  23 2.80   6 2.92   4 2.96
   6  0.287  0.368  0.317-  68 2.59  71 2.62  36 2.71  23 2.75  29 2.76   9 2.80  17 2.81   3 2.81
                            34 2.86   4 2.88  22 2.90   5 2.92
   7  0.860  0.689  0.125-  74 2.52  43 2.54  45 2.59  55 2.63  60 2.65  50 2.65  56 2.66  32 2.70
                            72 2.71  25 2.83  64 3.07
   8  0.861  0.955  0.416-  15 2.76  21 2.77   1 2.78  41 2.78   2 2.79  16 2.80  13 2.83  20 2.87
                            10 2.94
   9  0.115  0.456  0.419-  20 2.72   4 2.77  16 2.78  11 2.79   6 2.80  29 2.81   3 2.81  14 2.84
                            17 2.90
  10  0.124  0.953  0.420-  58 2.71  14 2.76  26 2.76  12 2.78   2 2.81  18 2.83  13 2.87  20 2.90
                             8 2.94
  11  0.870  0.449  0.421-   4 2.72  77 2.72  19 2.74  13 2.76  14 2.79   9 2.79  33 2.82  31 2.82
                            16 2.83
  12  0.375  0.947  0.418-  81 1.86   5 2.69  65 2.70  58 2.70  18 2.72  15 2.74  31 2.75  10 2.78
                            17 2.79  14 2.86
  13  0.866  0.205  0.416-  77 2.72  11 2.76  21 2.77  26 2.77  41 2.77  19 2.78  14 2.83   8 2.83
                            10 2.87
  14  0.120  0.201  0.420-  10 2.76   4 2.77   5 2.78  11 2.79  26 2.81  17 2.81  13 2.83   9 2.84
                            12 2.86
  15  0.619  0.946  0.418-  81 1.95   1 2.74  12 2.74  16 2.75  65 2.75  31 2.76   8 2.76  17 2.79
                            23 2.81  21 2.92
  16  0.867  0.703  0.420-  15 2.75  20 2.76  33 2.77   9 2.78  31 2.79   8 2.80   1 2.83  11 2.83
                             3 2.87
  17  0.372  0.197  0.420-  23 2.75  12 2.79   5 2.79  15 2.79   6 2.81  14 2.81  21 2.82  29 2.83
                             9 2.90
  18  0.378  0.703  0.417-  51 2.60  58 2.67  31 2.69  12 2.72  34 2.74  19 2.75  10 2.83  29 2.89
                            20 2.98
  19  0.622  0.456  0.419-  51 2.65  77 2.66  31 2.72  22 2.73  11 2.74  18 2.75  13 2.78  21 2.82
                            29 2.88
  20  0.115  0.699  0.421-   9 2.72  16 2.76  29 2.81  34 2.82   3 2.84   2 2.84   8 2.87  10 2.90
                            18 2.98
  21  0.619  0.206  0.417-  22 2.75  13 2.77   8 2.77  23 2.77  29 2.78  41 2.80  17 2.82  19 2.82
                            15 2.92
  22  0.541  0.377  0.317-  70 2.59  30 2.64  71 2.64  77 2.68  51 2.70  19 2.73  21 2.75  34 2.79
                            41 2.80  29 2.80   6 2.90  23 2.92
  23  0.532  0.121  0.317-  71 2.65  40 2.70  39 2.75  17 2.75   6 2.75  21 2.77   1 2.78   5 2.80
                            15 2.81  41 2.84  22 2.92  65 2.94
  24  0.544  0.120  0.050-  46 2.53  63 2.54  55 2.60  43 2.70  66 2.73  54 2.84  62 2.84  52 2.87
                            67 2.92
  25  0.114  0.439  0.123-  54 2.49  48 2.53  45 2.58  36 2.70  73 2.70  63 2.75  50 2.75  68 2.78
                             7 2.83  72 2.85  64 2.94  76 3.11
  26  0.039  0.114  0.316-  79 2.55  61 2.63  42 2.67   2 2.76  10 2.76  13 2.77   5 2.77  58 2.79
                            14 2.81  41 2.82   4 2.83  77 2.96
  27  0.024  0.132  0.037-  48 2.54  49 2.59  73 2.61  28 2.65  78 2.71  59 2.73  66 2.74  52 2.92
                            44 3.11
  28  0.115  0.958  0.130-  59 2.54  79 2.58  44 2.59  38 2.63  27 2.65  61 2.66  69 2.68  73 2.69
                            47 2.79  49 2.84  35 2.87  64 2.93
  29  0.368  0.451  0.419-   6 2.76  34 2.77  21 2.78  22 2.80   9 2.81  20 2.81  17 2.83  19 2.88
                            18 2.89
  30  0.456  0.540  0.221-  76 2.51  57 2.56  22 2.64  34 2.68  51 2.72  37 2.72  35 2.73  80 2.74
                            71 2.76  38 2.79  70 2.79  68 2.85
  31  0.619  0.700  0.421-  81 1.80  51 2.68  18 2.69  65 2.72  19 2.72  33 2.75  12 2.75  15 2.76
                            16 2.79  11 2.82
  32  0.941  0.791  0.218-  64 2.57  69 2.60   1 2.67   3 2.69   7 2.70   2 2.76  56 2.78  40 2.87
                            50 2.87  79 2.91  68 3.02  38 3.04
  33  0.780  0.622  0.318-  56 2.60  37 2.62  50 2.62  65 2.69  77 2.73  31 2.75  51 2.75   1 2.75
                            16 2.77   4 2.80  11 2.82   3 2.85
  34  0.289  0.621  0.318-  38 2.67  30 2.68  68 2.74  18 2.74  58 2.75  29 2.77  51 2.77  22 2.79
                             2 2.81  20 2.82   6 2.86   3 2.86
  35  0.377  0.709  0.122-  53 2.48  75 2.55  59 2.60  47 2.62  60 2.68  30 2.73  80 2.74  38 2.75
                            57 2.85  76 2.87  28 2.87  64 2.87
  36  0.198  0.277  0.223-  73 2.54  63 2.54   4 2.68   5 2.68  25 2.70   6 2.71  61 2.76  42 2.81
                            68 2.83  50 2.84  39 2.91  71 2.97
  37  0.694  0.548  0.222-  72 2.55  60 2.56  57 2.60  33 2.62  56 2.63  80 2.66  51 2.69  77 2.70
                            30 2.72  50 2.75  70 2.82  42 2.88
  38  0.211  0.792  0.224-  64 2.58  58 2.59  61 2.62  28 2.63   2 2.65  34 2.67  80 2.70  35 2.75
                            30 2.79  79 2.85  68 3.02  32 3.04
  39  0.456  0.016  0.221-  47 2.49  55 2.60  80 2.62  63 2.64  65 2.65  61 2.65   5 2.69  56 2.69
                            23 2.75  40 2.78  36 2.91  71 3.11
  40  0.686  0.047  0.215-  46 2.52  69 2.55  55 2.59  23 2.70  71 2.71  41 2.74  39 2.78   1 2.79
                            70 2.86  32 2.87  56 2.93  79 2.99
  41  0.785  0.121  0.313-  70 2.55  79 2.58  40 2.74  13 2.77   8 2.78  21 2.80  22 2.80  26 2.82
                             2 2.83  23 2.84  77 2.87   1 2.87
  42  0.943  0.286  0.222-  49 2.49  72 2.55  70 2.65  26 2.67  79 2.67  73 2.68  77 2.70   4 2.70
                            50 2.78  36 2.81  37 2.88  61 3.01
  43  0.787  0.882  0.049-  55 2.41  69 2.50   7 2.54  44 2.64  24 2.70  66 2.72  45 2.88  67 2.95

  44  0.036  0.851  0.047-  45 2.41  69 2.53  64 2.55  28 2.59  43 2.64  75 2.68  59 3.07  27 3.11

  45  0.048  0.630  0.044-  44 2.41  75 2.46  64 2.49  25 2.58   7 2.59  54 2.82  43 2.88
  46  0.621  0.226  0.132-  70 2.50  62 2.51  57 2.51  40 2.52  24 2.53  66 2.58  76 2.58  71 2.59
                            49 2.65  69 2.81  63 2.90
  47  0.371  0.944  0.131-  59 2.38  52 2.40  39 2.49  67 2.54  61 2.56  35 2.62  80 2.62  60 2.68
                            73 2.76  55 2.77  28 2.79
  48  0.994  0.372  0.045-  72 2.33  78 2.48  74 2.51  25 2.53  27 2.54  73 2.62
  49  0.863  0.212  0.131-  78 2.43  42 2.49  66 2.56  70 2.57  27 2.59  79 2.61  72 2.63  69 2.64
                            46 2.65  57 2.68  28 2.84  73 2.86
  50  0.946  0.532  0.224-   3 2.60   4 2.61  33 2.62  72 2.64   7 2.65  37 2.75  25 2.75  56 2.78
                            42 2.78  36 2.84  32 2.87  68 2.92
  51  0.537  0.619  0.323-  18 2.60  80 2.64  19 2.65  65 2.67  31 2.68  37 2.69  77 2.69  22 2.70
                            30 2.72  33 2.75  34 2.77  58 2.78
  52  0.294  0.109  0.050-  47 2.40  73 2.40  59 2.41  63 2.57  67 2.71  24 2.87  27 2.92
  53  0.565  0.596  0.047-  74 2.34  57 2.36  60 2.45  35 2.48  78 2.49  62 2.65  67 2.86
  54  0.304  0.384  0.050-  76 2.31  75 2.43  25 2.49  63 2.55  62 2.58  45 2.82  24 2.84
  55  0.628  0.924  0.130-  43 2.41  56 2.46  67 2.47  60 2.47  40 2.59  39 2.60  24 2.60   7 2.63
                            47 2.77
  56  0.699  0.780  0.223-  55 2.46  60 2.53   1 2.59  33 2.60  37 2.63  65 2.64   7 2.66  39 2.69
                            80 2.72  50 2.78  32 2.78  40 2.93
  57  0.622  0.449  0.131-  53 2.36  78 2.44  46 2.51  62 2.53  70 2.55  30 2.56  37 2.60  72 2.63
                            76 2.65  49 2.68  35 2.85  60 2.89
  58  0.289  0.866  0.320-  61 2.57  38 2.59  80 2.61  18 2.67   5 2.70  12 2.70  10 2.71  65 2.72
                            34 2.75  51 2.78  26 2.79   2 2.81
  59  0.279  0.903  0.041-  47 2.38  52 2.41  28 2.54  35 2.60  67 2.66  27 2.73  44 3.07
  60  0.614  0.710  0.130-  53 2.45  55 2.47  67 2.48  74 2.50  56 2.53  37 2.56  80 2.64   7 2.65
                            35 2.68  47 2.68  72 2.82  57 2.89
  61  0.217  0.022  0.226-   5 2.55  47 2.56  58 2.57  38 2.62  26 2.63  39 2.65  28 2.66  73 2.66
                            80 2.68  36 2.76  79 2.84  42 3.01
  62  0.536  0.376  0.040-  76 2.49  46 2.51  57 2.53  54 2.58  78 2.63  53 2.65  75 2.80  24 2.84

  63  0.370  0.211  0.137-  71 2.51  24 2.54  36 2.54  54 2.55  52 2.57  39 2.64  25 2.75  76 2.78
                            73 2.84  46 2.90
  64  0.133  0.690  0.137-  75 2.44  68 2.46  45 2.49  44 2.55  32 2.57  38 2.58  76 2.77  35 2.87
                            28 2.93  25 2.94   7 3.07
  65  0.536  0.858  0.319-  80 2.51  56 2.64  39 2.65  51 2.67  33 2.69  12 2.70  31 2.72  58 2.72
                            15 2.75   1 2.77   5 2.77  23 2.94
  66  0.784  0.126  0.040-  69 2.51  49 2.56  46 2.58  78 2.65  43 2.72  24 2.73  27 2.74
  67  0.533  0.866  0.041-  55 2.47  60 2.48  47 2.54  59 2.66  52 2.71  74 2.86  53 2.86  24 2.92
                            43 2.95
  68  0.211  0.523  0.221-  64 2.46   6 2.59  76 2.61   3 2.63  71 2.65  34 2.74  25 2.78  36 2.83
                            30 2.85  50 2.92  32 3.02  38 3.02
  69  0.869  0.974  0.132-  79 2.49  43 2.50  66 2.51  44 2.53  40 2.55  32 2.60  49 2.64  28 2.68
                            46 2.81
  70  0.705  0.291  0.225-  46 2.50  41 2.55  57 2.55  49 2.57  22 2.59  77 2.62  42 2.65  79 2.79
                            30 2.79  37 2.82  40 2.86
  71  0.453  0.295  0.224-  63 2.51  76 2.52  46 2.59   6 2.62  22 2.64  68 2.65  23 2.65  40 2.71
                            30 2.76  36 2.97  39 3.11
  72  0.856  0.450  0.131-  48 2.33  74 2.44  78 2.50  42 2.55  37 2.55  49 2.63  57 2.63  50 2.64
                             7 2.71  60 2.82  25 2.85  73 2.97
  73  0.127  0.192  0.131-  52 2.40  36 2.54  27 2.61  48 2.62  61 2.66  42 2.68  28 2.69  25 2.70
                            47 2.76  63 2.84  49 2.86  72 2.97
  74  0.773  0.598  0.042-  53 2.34  72 2.44  60 2.50  48 2.51   7 2.52  78 2.59  67 2.86
  75  0.275  0.613  0.046-  54 2.43  64 2.44  45 2.46  76 2.48  35 2.55  44 2.68  62 2.80
  76  0.385  0.450  0.132-  54 2.31  75 2.48  62 2.49  30 2.51  71 2.52  46 2.58  68 2.61  57 2.65
                            64 2.77  63 2.78  35 2.87  25 3.11
  77  0.777  0.380  0.320-  70 2.62  19 2.66  22 2.68  51 2.69  37 2.70  42 2.70  13 2.72  11 2.72
                            33 2.73   4 2.76  41 2.87  26 2.96
  78  0.776  0.366  0.044-  49 2.43  57 2.44  48 2.48  53 2.49  72 2.50  74 2.59  62 2.63  66 2.65
                            27 2.71
  79  0.954  0.043  0.223-  69 2.49  26 2.55  41 2.58  28 2.58  49 2.61   2 2.66  42 2.67  70 2.79
                            61 2.84  38 2.85  32 2.91  40 2.99
  80  0.455  0.784  0.227-  65 2.51  58 2.61  39 2.62  47 2.62  60 2.64  51 2.64  37 2.66  61 2.68
                            38 2.70  56 2.72  30 2.74  35 2.74
  81  0.535  0.858  0.464-  31 1.80  12 1.86  15 1.95
 
  LATTYP: Found a hexagonal cell.
 ALAT       =    11.2227001190
 C/A-ratio  =     1.9603125600
  
  Lattice vectors:
  
 A1 = (   5.6113500595,  -9.7191434021,   0.0000000000)
 A2 = ( -11.2227001190,   0.0000000000,   0.0000000000)
 A3 = (   0.0000000000,   0.0000000000, -22.0000000000)


Analysis of symmetry for initial positions (statically):
=====================================================================
 Subroutine PRICEL returns:
 Original cell was already a primitive cell.
 

 Routine SETGRP: Setting up the symmetry group for a 
 hexagonal supercell.


 Subroutine GETGRP returns: Found  1 space group operations
 (whereof  1 operations were pure point group operations)
 out of a pool of 24 trial point group operations.


The static configuration has the point symmetry C_1 .


Analysis of symmetry for dynamics (positions and initial velocities):
=====================================================================
 Subroutine PRICEL returns:
 Original cell was already a primitive cell.
 

 Routine SETGRP: Setting up the symmetry group for a 
 hexagonal supercell.


 Subroutine GETGRP returns: Found  1 space group operations
 (whereof  1 operations were pure point group operations)
 out of a pool of 24 trial point group operations.


The dynamic configuration has the point symmetry C_1 .


Analysis of constrained symmetry for selective dynamics:
=====================================================================
 Subroutine PRICEL returns:
 Original cell was already a primitive cell.
 

 Routine SETGRP: Setting up the symmetry group for a 
 hexagonal supercell.


 Subroutine GETGRP returns: Found  1 space group operations
 (whereof  1 operations were pure point group operations)
 out of a pool of 24 trial point group operations.


The constrained configuration has the point symmetry C_1 .


Analysis of structural, dynamic, and magnetic symmetry:
=====================================================================
 Subroutine PRICEL returns:
 Original cell was already a primitive cell.
 

 Routine SETGRP: Setting up the symmetry group for a 
 hexagonal supercell.


 Subroutine GETGRP returns: Found  1 space group operations
 (whereof  1 operations were pure point group operations)
 out of a pool of 24 trial point group operations.


The magnetic configuration has the point symmetry C_1 .


 Subroutine INISYM returns: Found  1 space group operations
 (whereof  1 operations are pure point group operations),
 and found     1 'primitive' translations

 
 
 KPOINTS: mesh auto                               

Automatic generation of k-mesh.
Space group operators:
 irot       det(A)        alpha          n_x          n_y          n_z        tau_x        tau_y        tau_z
    1     1.000000     0.000000     1.000000     0.000000     0.000000     0.000000     0.000000     0.000000
 
 Subroutine IBZKPT returns following result:
 ===========================================
 
 Found      4 irreducible k-points:
 
 Following reciprocal coordinates:
            Coordinates               Weight
  0.000000  0.000000  0.000000      1.000000
  0.500000  0.000000  0.000000      1.000000
  0.000000  0.500000  0.000000      1.000000
  0.500000  0.500000  0.000000      1.000000
 
 Following cartesian coordinates:
            Coordinates               Weight
  0.000000  0.000000  0.000000      1.000000
  0.044553 -0.025722  0.000000      1.000000
  0.000000  0.051445  0.000000      1.000000
  0.044553  0.025722  0.000000      1.000000
 


--------------------------------------------------------------------------------------------------------




 Dimension of arrays:
   k-points           NKPTS =      4   k-points in BZ     NKDIM =      4   number of bands    NBANDS=    588
   number of dos      NEDOS =    301   number of ions     NIONS =     81
   non local maximal  LDIM  =      6   non local SUM 2l+1 LMDIM =     18
   total plane-waves  NPLWV = ******
   max r-space proj   IRMAX =   7929   max aug-charges    IRDMAX=  34542
   dimension x,y,z NGX =    90 NGY =   90 NGZ =  168
   dimension x,y,z NGXF=   180 NGYF=  180 NGZF=  336
   support grid    NGXF=   180 NGYF=  180 NGZF=  336
   ions per type =              42  10   9  10   9   1
   NGX,Y,Z   is equivalent  to a cutoff of  13.33, 13.33, 12.70 a.u.
   NGXF,Y,Z  is equivalent  to a cutoff of  26.66, 26.66, 25.39 a.u.

 SYSTEM =  Pt111                                   
 POSCAR =  11.26-high                              

 Startparameter for this run:
   NWRITE =      2    write-flag & timer
   PREC   = accura    normal or accurate (medium, high low for compatibility)
   ISTART =      0    job   : 0-new  1-cont  2-samecut
   ICHARG =      2    charge: 1-file 2-atom 10-const
   ISPIN  =      2    spin polarized calculation?
   LNONCOLLINEAR =      F non collinear calculations
   LSORBIT =      F    spin-orbit coupling
   INIWAV =      1    electr: 0-lowe 1-rand  2-diag
   LASPH  =      F    aspherical Exc in radial PAW
   METAGGA=      F    non-selfconsistent MetaGGA calc.

 Electronic Relaxation 1
   ENCUT  =  550.0 eV  40.42 Ry    6.36 a.u.  21.46 21.46 42.07*2*pi/ulx,y,z
   ENINI  =  550.0     initial cutoff
   ENAUG  =  587.0 eV  augmentation charge cutoff
   NELM   =    200;   NELMIN=  2; NELMDL= -5     # of ELM steps 
   EDIFF  = 0.1E-04   stopping-criterion for ELM
   LREAL  =      T    real-space projection
   NLSPLINE    = F    spline interpolate recip. space projectors
   LCOMPAT=      F    compatible to vasp.4.4
   GGA_COMPAT  = T    GGA compatible to vasp.4.4-vasp.4.6
   LMAXPAW     = -100 max onsite density
   LMAXMIX     =    2 max onsite mixed and CHGCAR
   VOSKOWN=      0    Vosko Wilk Nusair interpolation
   ROPT   =   -0.00025  -0.00025  -0.00025  -0.00025
   ROPT   =   -0.00025  -0.00025
 Ionic relaxation
   EDIFFG = -.5E-01   stopping-criterion for IOM
   NSW    =    300    number of steps for IOM
   NBLOCK =      1;   KBLOCK =    300    inner block; outer block 
   IBRION =      2    ionic relax: 0-MD 1-quasi-New 2-CG
   NFREE  =      1    steps in history (QN), initial steepest desc. (CG)
   ISIF   =      2    stress and relaxation
   IWAVPR =     11    prediction:  0-non 1-charg 2-wave 3-comb
   ISYM   =      2    0-nonsym 1-usesym 2-fastsym
   LCORR  =      T    Harris-Foulkes like correction to forces

   POTIM  = 0.5000    time-step for ionic-motion
   TEIN   =    0.0    initial temperature
   TEBEG  =    0.0;   TEEND  =   0.0 temperature during run
   SMASS  =  -3.00    Nose mass-parameter (am)
   estimated Nose-frequenzy (Omega)   =  0.10E-29 period in steps =****** mass=  -0.288E-26a.u.
   SCALEE = 1.0000    scale energy and forces
   NPACO  =    256;   APACO  = 16.0  distance and # of slots for P.C.
   PSTRESS=    0.0 pullay stress

  Mass of Ions in am
   POMASS = 195.08 55.85 58.93 63.55 58.69  1.00
  Ionic Valenz
   ZVAL   =  10.00  8.00  9.00 11.00 10.00  1.00
  Atomic Wigner-Seitz radii
   RWIGS  =  -1.00 -1.00 -1.00 -1.00 -1.00 -1.00
  virtual crystal weights 
   VCA    =   1.00  1.00  1.00  1.00  1.00  1.00
   NELECT =     782.0000    total number of electrons
   NUPDOWN=      -1.0000    fix difference up-down

 DOS related values:
   EMIN   =  10.00;   EMAX   =-10.00  energy-range for DOS
   EFERMI =   0.00
   ISMEAR =     1;   SIGMA  =   0.10  broadening in eV -4-tet -1-fermi 0-gaus

 Electronic relaxation 2 (details)
   IALGO  =     68    algorithm
   LDIAG  =      T    sub-space diagonalisation (order eigenvalues)
   LSUBROT=      F    optimize rotation matrix (better conditioning)
   TURBO    =      0    0=normal 1=particle mesh
   IRESTART =      0    0=no restart 2=restart with 2 vectors
   NREBOOT  =      0    no. of reboots
   NMIN     =      0    reboot dimension
   EREF     =   0.00    reference energy to select bands
   IMIX   =      4    mixing-type and parameters
     AMIX     =   0.40;   BMIX     =  1.00
     AMIX_MAG =   1.60;   BMIX_MAG =  1.00
     AMIN     =   0.10
     WC   =   100.;   INIMIX=   1;  MIXPRE=   1;  MAXMIX= -45

 Intra band minimization:
   WEIMIN = 0.0010     energy-eigenvalue tresh-hold
   EBREAK =  0.43E-08  absolut break condition
   DEPER  =   0.30     relativ break condition  

   TIME   =   0.40     timestep for ELM

  volume/ion in A,a.u.               =      29.63       199.92
  Fermi-wavevector in a.u.,A,eV,Ry     =   1.126577  2.128923 17.268199  1.269177
  Thomas-Fermi vector in A             =   2.263260
 
 Write flags
   LWAVE        =      F    write WAVECAR
   LDOWNSAMPLE  =      F    k-point downsampling of WAVECAR
   LCHARG       =      F    write CHGCAR
   LVTOT        =      F    write LOCPOT, total local potential
   LVHAR        =      F    write LOCPOT, Hartree potential only
   LELF         =      F    write electronic localiz. function (ELF)
   LORBIT       =      0    0 simple, 1 ext, 2 COOP (PROOUT), +10 PAW based schemes


 Dipole corrections
   LMONO  =      F    monopole corrections only (constant potential shift)
   LDIPOL =      F    correct potential (dipole corrections)
   IDIPOL =      0    1-x, 2-y, 3-z, 4-all directions 
   EPSILON=  1.0000000 bulk dielectric constant

 Exchange correlation treatment:
   GGA     =    --    GGA type
   LEXCH   =     8    internal setting for exchange type
   VOSKOWN=      0    Vosko Wilk Nusair interpolation
   LHFCALC =     F    Hartree Fock is set to
   LHFONE  =     F    Hartree Fock one center treatment
   AEXX    =    0.0000 exact exchange contribution

 Linear response parameters
   LEPSILON=     F    determine dielectric tensor
   LRPA    =     F    only Hartree local field effects (RPA)
   LNABLA  =     F    use nabla operator in PAW spheres
   LVEL    =     F    velocity operator in full k-point grid
   LINTERFAST=   F  fast interpolation
   KINTER  =     0    interpolate to denser k-point grid
   CSHIFT  =0.1000    complex shift for real part using Kramers Kronig
   OMEGAMAX=  -1.0    maximum frequency
   DEG_THRESHOLD= 0.2000000E-02 threshold for treating states as degnerate
   RTIME   =   -0.100 relaxation time in fs
  (WPLASMAI=    0.000 imaginary part of plasma frequency in eV, 0.658/RTIME)
   DFIELD  = 0.0000000 0.0000000 0.0000000 field for delta impulse in time
 
 Orbital magnetization related:
   ORBITALMAG=     F  switch on orbital magnetization
   LCHIMAG   =     F  perturbation theory with respect to B field
   DQ        =  0.001000  dq finite difference perturbation B field
   LLRAUG    =     F  two centre corrections for induced B field



--------------------------------------------------------------------------------------------------------


 conjugate gradient relaxation of ions
   using selective dynamics as specified on POSCAR
 charge density and potential will be updated during run
 spin polarized calculation
 RMM-DIIS sequential band-by-band and
  variant of blocked Davidson during initial phase
 perform sub-space diagonalisation
    before iterative eigenvector-optimisation
 modified Broyden-mixing scheme, WC =      100.0
 initial mixing is a Kerker type mixing with AMIX =  0.4000 and BMIX =      1.0000
 Hartree-type preconditioning will be used
 using additional bands          197
 real space projection scheme for non local part
 use partial core corrections
 calculate Harris-corrections to forces 
   (improved forces if not selfconsistent)
 use gradient corrections 
 use of overlap-Matrix (Vanderbilt PP)
 Methfessel and Paxton  Order N= 1 SIGMA  =   0.10


--------------------------------------------------------------------------------------------------------


  energy-cutoff  :      550.00
  volume of cell :     2399.65
      direct lattice vectors                 reciprocal lattice vectors
    11.222700119  0.000000000  0.000000000     0.089105116 -0.051444863  0.000000000
     5.611350060  9.719143402  0.000000000     0.000000000  0.102889726  0.000000000
     0.000000000  0.000000000 22.000000000     0.000000000  0.000000000  0.045454545

  length of vectors
    11.222700119 11.222700119 22.000000000     0.102889726  0.102889726  0.045454545


 
 k-points in units of 2pi/SCALE and weight: mesh auto                               
   0.00000000  0.00000000  0.00000000       0.250
   0.04455256 -0.02572243  0.00000000       0.250
   0.00000000  0.05144486  0.00000000       0.250
   0.04455256  0.02572243  0.00000000       0.250
 
 k-points in reciprocal lattice and weights: mesh auto                               
   0.00000000  0.00000000  0.00000000       0.250
   0.50000000  0.00000000  0.00000000       0.250
   0.00000000  0.50000000  0.00000000       0.250
   0.50000000  0.50000000  0.00000000       0.250
 
 position of ions in fractional coordinates (direct lattice) 
   0.77565141  0.86995642  0.31454616
   0.03726767  0.86939735  0.31633907
   0.03633080  0.61739466  0.31308321
   0.02817284  0.37111849  0.31877620
   0.28981435  0.10615917  0.31846553
   0.28694614  0.36750652  0.31705326
   0.86038307  0.68854678  0.12531565
   0.86069082  0.95542901  0.41608579
   0.11497805  0.45611201  0.41918237
   0.12378233  0.95279974  0.41954381
   0.86991530  0.44881839  0.42066107
   0.37451156  0.94679451  0.41841843
   0.86561038  0.20525736  0.41580717
   0.11965739  0.20103720  0.42002402
   0.61932181  0.94576628  0.41793782
   0.86652285  0.70309507  0.41969294
   0.37224683  0.19668105  0.41982619
   0.37781609  0.70293761  0.41744273
   0.62177792  0.45633513  0.41932186
   0.11486893  0.69885824  0.42092527
   0.61873688  0.20625851  0.41701190
   0.54091360  0.37662976  0.31743913
   0.53152675  0.12125144  0.31653045
   0.54420190  0.12019148  0.05044345
   0.11424052  0.43860757  0.12340508
   0.03892265  0.11414894  0.31609053
   0.02432533  0.13236688  0.03690154
   0.11521348  0.95848802  0.12979272
   0.36812537  0.45060942  0.41935956
   0.45574359  0.53965249  0.22135250
   0.61893284  0.70045261  0.42070730
   0.94101394  0.79056552  0.21791424
   0.78018468  0.62239096  0.31794447
   0.28883354  0.62109808  0.31837640
   0.37681260  0.70908830  0.12233112
   0.19804412  0.27712854  0.22298714
   0.69395409  0.54843935  0.22211682
   0.21076833  0.79187996  0.22361313
   0.45574183  0.01649232  0.22064103
   0.68628609  0.04688739  0.21472279
   0.78458062  0.12142453  0.31297370
   0.94349309  0.28579245  0.22158907
   0.78678573  0.88216808  0.04880706
   0.03586233  0.85071210  0.04654319
   0.04812293  0.63029630  0.04396441
   0.62094942  0.22562192  0.13235731
   0.37094220  0.94439705  0.13130330
   0.99360993  0.37197898  0.04479349
   0.86316425  0.21223953  0.13085093
   0.94632970  0.53215547  0.22401160
   0.53690276  0.61906035  0.32268017
   0.29424967  0.10946403  0.05024110
   0.56523708  0.59647576  0.04673852
   0.30353543  0.38377122  0.04999638
   0.62775780  0.92360755  0.13039321
   0.69891684  0.78000591  0.22256618
   0.62226646  0.44852339  0.13148461
   0.28862215  0.86645821  0.32000596
   0.27920356  0.90344548  0.04109614
   0.61435034  0.71013018  0.13007464
   0.21650964  0.02241820  0.22577642
   0.53614829  0.37642561  0.04013354
   0.37023431  0.21051928  0.13657032
   0.13264840  0.68967264  0.13748505
   0.53558057  0.85771964  0.31850993
   0.78410875  0.12570915  0.04035826
   0.53292063  0.86611421  0.04082352
   0.21068881  0.52291933  0.22146415
   0.86931925  0.97366600  0.13234433
   0.70506050  0.29142744  0.22453327
   0.45331117  0.29469085  0.22351187
   0.85569873  0.44978941  0.13133023
   0.12736941  0.19194945  0.13066156
   0.77259672  0.59820800  0.04206678
   0.27526983  0.61273885  0.04635559
   0.38521707  0.45004557  0.13185726
   0.77733999  0.38038046  0.31965691
   0.77578291  0.36553722  0.04363425
   0.95382533  0.04285795  0.22280997
   0.45511611  0.78378709  0.22716765
   0.53519099  0.85783115  0.46388847
 
 position of ions in cartesian coordinates  (Angst):
  13.58653325  8.45523123  6.92001548
   5.29673679  8.44979751  6.95945955
   3.87214724  6.00054726  6.88783066
   2.39865113  3.60695384  7.01307648
   3.84819579  1.03177618  7.00624170
   5.28251818  3.57184852  6.97517183
  13.51949814  6.69208485  2.75694422
  15.02052160  9.28595154  9.15388738
   3.84976837  4.43301802  9.22201210
   6.73566480  9.26039728  9.22996380
  12.28127557  4.36213025  9.25454358
   9.51582632  9.20203158  9.20520554
  10.86625656  1.99492569  9.14775772
   2.47096915  1.95390936  9.24052850
  12.25748868  9.19203815  9.19463215
  13.67003872  6.83348184  9.23324467
   5.28126076  1.91157136  9.23617623
   8.18454572  6.83195148  9.18374013
   9.53868327  4.43518658  9.22508087
   5.21067777  6.79230343  9.26035602
   8.10128715  2.00465607  9.17426171
   8.18391251  3.66051863  6.98366078
   6.64554963  1.17846010  6.96366999
   6.78185123  1.16815827  1.10975587
   3.74326768  4.26288989  2.71491169
   1.07734692  1.10942995  6.95399167
   1.01575276  1.28649272  0.81183379
   6.67141817  9.31568253  2.85543986
   6.65988779  4.37953755  9.22591026
   8.14285267  5.24495994  4.86975508
  10.87658250  6.80779939  9.25556067
  14.99685718  7.68361965  4.79411333
  12.24823225  6.04910695  6.99477833
   6.72669100  6.03654129  7.00428089
   8.20779749  6.89173084  2.69128464
   3.77765507  2.69345205  4.90571710
  10.86552387  5.33036073  4.88657006
   6.80890548  7.69639494  4.91948892
   5.20719800  0.16029118  4.85410263
   7.96508457  0.45570528  4.72390144
   9.48646863  1.18014246  6.88542147
  12.19222152  2.77765781  4.87495965
  13.78001418  8.57391807  1.07375538
   5.17611559  8.26819293  1.02395014
   4.07688236  6.12594009  0.96721713
   8.23477271  2.19285182  2.91186093
   9.46231548  9.17873039  2.88867254
  13.23829050  3.61531702  0.98545676
  10.87798387  2.06278643  2.87872037
  13.60648511  5.17209535  4.92825516
   9.49926302  6.01673636  7.09896376
   3.91651686  1.06389665  1.10530426
   9.69052050  5.79723345  1.02824752
   5.55996175  3.72992755  1.09992033
  12.22782284  8.97667424  2.86865054
  12.22062035  7.58098930  4.89645605
   9.50033164  4.35926310  2.89266135
   8.10112017  8.42123155  7.04013101
   8.20296665  8.78071621  0.90411500
  10.87945866  6.90185704  2.86164217
   2.55561917  0.21788571  4.96708124
   8.12928731  3.65853446  0.88293797
   5.33632603  2.04606707  3.00454701
   5.35866784  6.70302732  3.02467112
  10.82362526  8.33630022  7.00721852
   9.50521537  1.22178527  0.88788171
  10.84087843  8.41788825  0.89811744
   5.29878074  5.08232791  4.87221127
  15.21969006  9.46319948  2.91157520
   9.54798398  2.83242508  4.93973185
   6.74098883  2.86414265  4.91726116
  12.12717608  4.37156778  2.88926501
   2.50652432  1.86558426  2.87455439
  12.02737582  5.81406929  0.92546912
   6.52756292  5.95529675  1.01982289
   6.84853891  4.37405744  2.90085982
  10.85830151  3.69697227  7.03245195
  10.75753628  3.55270863  0.95995355
  10.94498656  0.41654257  4.90181936
   9.50573532  7.61773913  4.99768830
  10.81987891  8.33738396 10.20554644
 


--------------------------------------------------------------------------------------------------------


 k-point  1 :   0.0000 0.0000 0.0000  plane waves:   70321
 k-point  2 :   0.5000 0.0000 0.0000  plane waves:   70264
 k-point  3 :   0.0000 0.5000 0.0000  plane waves:   70264
 k-point  4 :   0.5000 0.5000 0.0000  plane waves:   70264

 maximum and minimum number of plane-waves per node :     17611    17530

 maximum number of plane-waves:     70321
 maximum index in each direction: 
   IXMAX=   21   IYMAX=   21   IZMAX=   42
   IXMIN=  -21   IYMIN=  -21   IZMIN=  -42


 real space projection operators:
  total allocation   :      80382.89 KBytes
  max/ min on nodes  :      20546.39      19654.38


 parallel 3D FFT for wavefunctions:
    minimum data exchange during FFTs selected (reduces bandwidth)
 parallel 3D FFT for charge:
    minimum data exchange during FFTs selected (reduces bandwidth)


 total amount of memory used by VASP MPI-rank0   252733. kBytes
=======================================================================

   base      :      30000. kBytes
   nonlr-proj:      36144. kBytes
   fftplans  :      18297. kBytes
   grid      :      55120. kBytes
   one-center:        653. kBytes
   wavefun   :     112519. kBytes
 
     INWAV:  cpu time    0.0000: real time    0.0003
 Broyden mixing: mesh for mixing (old mesh)
   NGX = 43   NGY = 43   NGZ = 85
  (NGX  =180   NGY  =180   NGZ  =336)
  gives a total of 157165 points

 initial charge density was supplied:
 charge density of overlapping atoms calculated
 number of electron     782.0000000 magnetization     231.0000000
 keeping initial charge density in first step


--------------------------------------------------------------------------------------------------------


 Maximum index for non-local projection operator         2111
 Maximum index for augmentation-charges         1115 (set IRDMAX)


--------------------------------------------------------------------------------------------------------


 First call to EWALD:  gamma=   0.132
 Maximum number of real-space cells 4x 4x 2
 Maximum number of reciprocal cells 2x 2x 4

    FEWALD:  cpu time    0.0073: real time    0.0073


--------------------------------------- Iteration      1(   1)  ---------------------------------------


    POTLOK:  cpu time    0.4226: real time    0.4475
    SETDIJ:  cpu time    0.0323: real time    0.0324
     EDDAV:  cpu time   67.4088: real time   67.6249
       DOS:  cpu time    0.0032: real time    0.2541
    --------------------------------------------
      LOOP:  cpu time   67.8672: real time   68.3591

 eigenvalue-minimisations  :  9408
 total energy-change (2. order) : 0.7526037E+04  (-0.3320627E+05)
 number of electron     782.0000000 magnetization     231.0000000
 augmentation part      782.0000000 magnetization     231.0000000

 Free energy of the ion-electron system (eV)
  ---------------------------------------------------
  alpha Z        PSCENC =      2087.66410956
  Ewald energy   TEWEN  =    207670.03123803
  -Hartree energ DENC   =   -277377.37662374
  -exchange      EXHF   =         0.00000000
  -V(xc)+E(xc)   XCENC  =      1139.74838118
  PAW double counting   =     62149.36172160   -63175.55445867
  entropy T*S    EENTRO =        -0.00814979
  eigenvalues    EBANDS =      7524.60862078
  atomic energy  EATOM  =     67507.56188773
  Solvation  Ediel_sol  =         0.00000000
  ---------------------------------------------------
  free energy    TOTEN  =      7526.03672671 eV

  energy without entropy =     7526.04487649  energy(sigma->0) =     7526.03944330


--------------------------------------------------------------------------------------------------------




--------------------------------------- Iteration      1(   2)  ---------------------------------------


     EDDAV:  cpu time   67.8458: real time   68.0775
       DOS:  cpu time    0.0023: real time    0.0086
    --------------------------------------------
      LOOP:  cpu time   67.8481: real time   68.0861

 eigenvalue-minimisations  :  9528
 total energy-change (2. order) :-0.6884588E+04  (-0.6144472E+04)
 number of electron     782.0000000 magnetization     231.0000000
 augmentation part      782.0000000 magnetization     231.0000000

 Free energy of the ion-electron system (eV)
  ---------------------------------------------------
  alpha Z        PSCENC =      2087.66410956
  Ewald energy   TEWEN  =    207670.03123803
  -Hartree energ DENC   =   -277377.37662374
  -exchange      EXHF   =         0.00000000
  -V(xc)+E(xc)   XCENC  =      1139.74838118
  PAW double counting   =     62149.36172160   -63175.55445867
  entropy T*S    EENTRO =         0.01029810
  eigenvalues    EBANDS =       640.00201808
  atomic energy  EATOM  =     67507.56188773
  Solvation  Ediel_sol  =         0.00000000
  ---------------------------------------------------
  free energy    TOTEN  =       641.44857189 eV

  energy without entropy =      641.43827379  energy(sigma->0) =      641.44513919


--------------------------------------------------------------------------------------------------------




--------------------------------------- Iteration      1(   3)  ---------------------------------------


     EDDAV:  cpu time   67.4694: real time   67.7517
       DOS:  cpu time    0.0026: real time    0.0087
    --------------------------------------------
      LOOP:  cpu time   67.4720: real time   67.7604

 eigenvalue-minimisations  :  9444
 total energy-change (2. order) :-0.1016819E+04  (-0.8362464E+03)
 number of electron     782.0000000 magnetization     231.0000000
 augmentation part      782.0000000 magnetization     231.0000000

 Free energy of the ion-electron system (eV)
  ---------------------------------------------------
  alpha Z        PSCENC =      2087.66410956
  Ewald energy   TEWEN  =    207670.03123803
  -Hartree energ DENC   =   -277377.37662374
  -exchange      EXHF   =         0.00000000
  -V(xc)+E(xc)   XCENC  =      1139.74838118
  PAW double counting   =     62149.36172160   -63175.55445867
  entropy T*S    EENTRO =         0.00421975
  eigenvalues    EBANDS =      -376.81043921
  atomic energy  EATOM  =     67507.56188773
  Solvation  Ediel_sol  =         0.00000000
  ---------------------------------------------------
  free energy    TOTEN  =      -375.36996375 eV

  energy without entropy =     -375.37418350  energy(sigma->0) =     -375.37137033


--------------------------------------------------------------------------------------------------------




--------------------------------------- Iteration      1(   4)  ---------------------------------------


     EDDAV:  cpu time   81.1435: real time   81.4401
       DOS:  cpu time    0.0026: real time    0.0117
    --------------------------------------------
      LOOP:  cpu time   81.1461: real time   81.4518

 eigenvalue-minimisations  : 11988
 total energy-change (2. order) :-0.9280875E+02  (-0.8503109E+02)
 number of electron     782.0000000 magnetization     231.0000000
 augmentation part      782.0000000 magnetization     231.0000000

 Free energy of the ion-electron system (eV)
  ---------------------------------------------------
  alpha Z        PSCENC =      2087.66410956
  Ewald energy   TEWEN  =    207670.03123803
  -Hartree energ DENC   =   -277377.37662374
  -exchange      EXHF   =         0.00000000
  -V(xc)+E(xc)   XCENC  =      1139.74838118
  PAW double counting   =     62149.36172160   -63175.55445867
  entropy T*S    EENTRO =        -0.00503323
  eigenvalues    EBANDS =      -469.60993238
  atomic energy  EATOM  =     67507.56188773
  Solvation  Ediel_sol  =         0.00000000
  ---------------------------------------------------
  free energy    TOTEN  =      -468.17870990 eV

  energy without entropy =     -468.17367667  energy(sigma->0) =     -468.17703216


--------------------------------------------------------------------------------------------------------




--------------------------------------- Iteration      1(   5)  ---------------------------------------


     EDDAV:  cpu time   76.8507: real time   77.1162
       DOS:  cpu time    0.0027: real time    0.0123
    CHARGE:  cpu time    4.4007: real time    4.4198
    MIXING:  cpu time    0.0114: real time    0.0116
    --------------------------------------------
      LOOP:  cpu time   81.2656: real time   81.5599

 eigenvalue-minimisations  : 11208
 total energy-change (2. order) :-0.3708484E+01  (-0.3677460E+01)
 number of electron     782.0000027 magnetization     215.7097514
 augmentation part      312.8487317 magnetization     181.1866776

 Broyden mixing:
  rms(total) = 0.11798E+02    rms(broyden)= 0.11798E+02
  rms(prec ) = 0.12187E+02
  weight for this iteration     100.00

 Free energy of the ion-electron system (eV)
  ---------------------------------------------------
  alpha Z        PSCENC =      2087.66410956
  Ewald energy   TEWEN  =    207670.03123803
  -Hartree energ DENC   =   -277377.37662374
  -exchange      EXHF   =         0.00000000
  -V(xc)+E(xc)   XCENC  =      1139.74838118
  PAW double counting   =     62149.36172160   -63175.55445867
  entropy T*S    EENTRO =        -0.00551981
  eigenvalues    EBANDS =      -473.31792938
  atomic energy  EATOM  =     67507.56188773
  Solvation  Ediel_sol  =         0.00000000
  ---------------------------------------------------
  free energy    TOTEN  =      -471.88719349 eV

  energy without entropy =     -471.88167368  energy(sigma->0) =     -471.88535355


--------------------------------------------------------------------------------------------------------




--------------------------------------- Iteration      1(   6)  ---------------------------------------


    POTLOK:  cpu time    0.4236: real time    0.4568
    SETDIJ:  cpu time    0.0333: real time    0.0335
    EDDIAG:  cpu time   12.0017: real time   12.0819
  RMM-DIIS:  cpu time   44.6620: real time   44.8776
    ORTHCH:  cpu time    1.3450: real time    1.3805
       DOS:  cpu time    0.0023: real time    0.0023
    CHARGE:  cpu time    4.3375: real time    4.3500
    MIXING:  cpu time    0.0123: real time    0.0127
    --------------------------------------------
      LOOP:  cpu time   62.8178: real time   63.1952

 eigenvalue-minimisations  : 10047
 total energy-change (2. order) :-0.2907392E+03  (-0.1022246E+03)
 number of electron     782.0000038 magnetization     211.8199387
 augmentation part      370.5736701 magnetization     175.6259320

 Broyden mixing:
  rms(total) = 0.20645E+02    rms(broyden)= 0.20645E+02
  rms(prec ) = 0.27460E+02
  weight for this iteration     100.00

 eigenvalues of (default mixing * dielectric matrix)
  average eigenvalue GAMMA=   0.2547
  0.2547

 Free energy of the ion-electron system (eV)
  ---------------------------------------------------
  alpha Z        PSCENC =      2087.66410956
  Ewald energy   TEWEN  =    207670.03123803
  -Hartree energ DENC   =   -275796.62362255
  -exchange      EXHF   =         0.00000000
  -V(xc)+E(xc)   XCENC  =      1102.39793857
  PAW double counting   =     66610.01728112   -67461.07573547
  entropy T*S    EENTRO =        -0.00328668
  eigenvalues    EBANDS =     -2482.59618690
  atomic energy  EATOM  =     67507.56188773
  Solvation  Ediel_sol  =         0.00000000
  ---------------------------------------------------
  free energy    TOTEN  =      -762.62637658 eV

  energy without entropy =     -762.62308990  energy(sigma->0) =     -762.62528102


--------------------------------------------------------------------------------------------------------




--------------------------------------- Iteration      1(   7)  ---------------------------------------


    POTLOK:  cpu time    0.4204: real time    0.4228
    SETDIJ:  cpu time    0.0337: real time    0.0337
    EDDIAG:  cpu time   13.3762: real time   13.4805
  RMM-DIIS:  cpu time   42.0848: real time   42.2645
    ORTHCH:  cpu time    1.3122: real time    1.3160
       DOS:  cpu time    0.0024: real time    0.0024
    CHARGE:  cpu time    4.3068: real time    4.3193
    MIXING:  cpu time    0.0124: real time    0.0125
    --------------------------------------------
      LOOP:  cpu time   61.5489: real time   61.8518

 eigenvalue-minimisations  :  9425
 total energy-change (2. order) : 0.2140652E+03  (-0.1880911E+02)
 number of electron     782.0000027 magnetization     206.9779832
 augmentation part      340.5689394 magnetization     166.3487877

 Broyden mixing:
  rms(total) = 0.15233E+02    rms(broyden)= 0.15233E+02
  rms(prec ) = 0.19407E+02
  weight for this iteration     100.00

 eigenvalues of (default mixing * dielectric matrix)
  average eigenvalue GAMMA=   0.2673
  0.3813  0.1534

 Free energy of the ion-electron system (eV)
  ---------------------------------------------------
  alpha Z        PSCENC =      2087.66410956
  Ewald energy   TEWEN  =    207670.03123803
  -Hartree energ DENC   =   -276426.89945486
  -exchange      EXHF   =         0.00000000
  -V(xc)+E(xc)   XCENC  =      1120.69807123
  PAW double counting   =     67584.70550685   -68577.43966727
  entropy T*S    EENTRO =        -0.00747918
  eigenvalues    EBANDS =     -1514.87539776
  atomic energy  EATOM  =     67507.56188773
  Solvation  Ediel_sol  =         0.00000000
  ---------------------------------------------------
  free energy    TOTEN  =      -548.56118567 eV

  energy without entropy =     -548.55370649  energy(sigma->0) =     -548.55869261


--------------------------------------------------------------------------------------------------------




--------------------------------------- Iteration      1(   8)  ---------------------------------------


    POTLOK:  cpu time    0.4191: real time    0.4491
    SETDIJ:  cpu time    0.0341: real time    0.0342
    EDDIAG:  cpu time   12.1237: real time   12.1597
  RMM-DIIS:  cpu time   42.1240: real time   42.2473
    ORTHCH:  cpu time    1.3118: real time    1.3166
       DOS:  cpu time    0.0026: real time    0.0026
    CHARGE:  cpu time    4.2295: real time    4.2419
    MIXING:  cpu time    0.0126: real time    0.0129
    --------------------------------------------
      LOOP:  cpu time   60.2575: real time   60.4642

 eigenvalue-minimisations  :  9437
 total energy-change (2. order) : 0.1233577E+03  (-0.1748734E+02)
 number of electron     782.0000028 magnetization     199.8767907
 augmentation part      350.8824997 magnetization     156.6479683

 Broyden mixing:
  rms(total) = 0.12467E+02    rms(broyden)= 0.12467E+02
  rms(prec ) = 0.13834E+02
  weight for this iteration     100.00

 eigenvalues of (default mixing * dielectric matrix)
  average eigenvalue GAMMA=   0.3155
  0.5593  0.2770  0.1102

 Free energy of the ion-electron system (eV)
  ---------------------------------------------------
  alpha Z        PSCENC =      2087.66410956
  Ewald energy   TEWEN  =    207670.03123803
  -Hartree energ DENC   =   -276603.62701863
  -exchange      EXHF   =         0.00000000
  -V(xc)+E(xc)   XCENC  =      1130.37216506
  PAW double counting   =     68728.42413480   -69778.45499434
  entropy T*S    EENTRO =         0.00354527
  eigenvalues    EBANDS =     -1167.17859871
  atomic energy  EATOM  =     67507.56188773
  Solvation  Ediel_sol  =         0.00000000
  ---------------------------------------------------
  free energy    TOTEN  =      -425.20353122 eV

  energy without entropy =     -425.20707649  energy(sigma->0) =     -425.20471298


--------------------------------------------------------------------------------------------------------




--------------------------------------- Iteration      1(   9)  ---------------------------------------


    POTLOK:  cpu time    0.4193: real time    0.4222
    SETDIJ:  cpu time    0.0342: real time    0.0343
    EDDIAG:  cpu time   12.0312: real time   12.0775
  RMM-DIIS:  cpu time   42.2662: real time   42.4058
    ORTHCH:  cpu time    1.3149: real time    1.3186
       DOS:  cpu time    0.0026: real time    0.0026
    CHARGE:  cpu time    4.2868: real time    4.2993
    MIXING:  cpu time    0.0128: real time    0.0128
    --------------------------------------------
      LOOP:  cpu time   60.3679: real time   60.5730

 eigenvalue-minimisations  :  9450
 total energy-change (2. order) : 0.2253356E+02  (-0.2066502E+02)
 number of electron     782.0000035 magnetization     192.7477279
 augmentation part      347.4832664 magnetization     149.1376677

 Broyden mixing:
  rms(total) = 0.13763E+02    rms(broyden)= 0.13763E+02
  rms(prec ) = 0.15109E+02
  weight for this iteration     100.00

 eigenvalues of (default mixing * dielectric matrix)
  average eigenvalue GAMMA=   0.3488
  0.7573  0.3838  0.1271  0.1271

 Free energy of the ion-electron system (eV)
  ---------------------------------------------------
  alpha Z        PSCENC =      2087.66410956
  Ewald energy   TEWEN  =    207670.03123803
  -Hartree energ DENC   =   -276553.37582768
  -exchange      EXHF   =         0.00000000
  -V(xc)+E(xc)   XCENC  =      1142.54382239
  PAW double counting   =     70094.85310347   -71208.14549880
  entropy T*S    EENTRO =         0.00977670
  eigenvalues    EBANDS =     -1143.81258208
  atomic energy  EATOM  =     67507.56188773
  Solvation  Ediel_sol  =         0.00000000
  ---------------------------------------------------
  free energy    TOTEN  =      -402.66997067 eV

  energy without entropy =     -402.67974737  energy(sigma->0) =     -402.67322957


--------------------------------------------------------------------------------------------------------




--------------------------------------- Iteration      1(  10)  ---------------------------------------


    POTLOK:  cpu time    0.4129: real time    0.4316
    SETDIJ:  cpu time    0.0338: real time    0.0340
    EDDIAG:  cpu time   12.0088: real time   12.1353
  RMM-DIIS:  cpu time   42.1983: real time   42.4026
    ORTHCH:  cpu time    1.3117: real time    1.3174
       DOS:  cpu time    0.0027: real time    0.0027
    CHARGE:  cpu time    4.2530: real time    4.2708
[...]
   -.422E+02 0.374E+00 -.135E+04   0.414E+02 0.226E+00 0.135E+04   0.702E+00 -.604E+00 0.163E+01   0.438E-01 -.224E-02 0.249E-01
   -.201E+01 -.776E+02 -.137E+04   0.144E+01 0.762E+02 0.137E+04   0.533E+00 0.133E+01 0.167E+01   0.209E-01 0.935E-02 0.397E-02
   0.524E+02 0.433E+01 -.140E+04   -.521E+02 -.446E+01 0.140E+04   -.302E+00 0.163E+00 0.162E+01   -.178E-01 -.232E-01 0.927E-02
   -.121E+03 -.455E+01 0.153E+04   0.120E+03 0.523E+01 -.154E+04   0.977E+00 -.730E+00 0.692E+00   0.382E-02 0.213E-01 0.377E-01
   -.938E+01 0.185E+01 -.265E+04   0.955E+01 -.196E+01 0.265E+04   -.175E+00 0.116E+00 0.164E+01   0.110E-01 -.670E-02 0.113E-01
   -.105E+02 0.699E+01 -.266E+04   0.102E+02 -.635E+01 0.266E+04   0.283E+00 -.654E+00 0.149E+01   0.127E-01 -.616E-02 0.342E-02
   0.472E+02 -.149E+02 -.267E+04   -.467E+02 0.144E+02 0.267E+04   -.540E+00 0.511E+00 0.223E+01   -.177E-01 0.762E-02 0.117E-01
   -.398E+02 0.352E+01 -.270E+04   0.397E+02 -.419E+01 0.270E+04   0.545E-01 0.702E+00 0.185E+01   0.397E-01 -.329E-01 0.271E-01
   0.138E+02 -.398E+02 -.271E+04   -.150E+02 0.401E+02 0.271E+04   0.125E+01 -.362E+00 0.185E+01   -.189E-02 0.411E-01 0.275E-01
   -.590E+01 0.445E+02 -.266E+04   0.552E+01 -.440E+02 0.266E+04   0.392E+00 -.377E+00 0.172E+01   0.280E-02 -.255E-01 0.289E-01
   -.217E+00 -.123E+02 -.268E+04   0.249E+00 0.122E+02 0.268E+04   -.494E-01 0.592E-01 0.165E+01   0.157E-01 -.648E-02 0.179E-02
   -.493E+02 -.310E+02 -.268E+04   0.496E+02 0.305E+02 0.268E+04   -.288E+00 0.442E+00 0.617E+00   -.196E-01 -.106E-01 0.223E-01
   -.274E+02 -.300E+01 -.266E+04   0.275E+02 0.295E+01 0.265E+04   -.137E+00 0.975E-03 0.153E+01   0.406E-01 0.240E-01 0.122E-01
   0.378E+01 -.208E+02 -.268E+04   -.347E+01 0.207E+02 0.268E+04   -.311E+00 0.414E-01 0.183E+01   0.878E-03 0.181E-01 0.368E-02
   0.469E+02 0.117E+02 -.269E+04   -.463E+02 -.116E+02 0.268E+04   -.618E+00 -.605E-01 0.222E+01   -.333E-01 0.201E-01 0.275E-01
   0.350E+02 0.288E+02 -.272E+04   -.342E+02 -.279E+02 0.272E+04   -.781E+00 -.768E+00 0.210E+01   -.224E-01 -.426E-01 0.388E-01
   0.112E+02 -.515E+01 -.266E+04   -.114E+02 0.510E+01 0.266E+04   0.126E+00 0.166E-01 0.136E+01   -.549E-02 0.179E-01 -.153E-03
   0.260E+01 0.142E+02 -.267E+04   -.252E+01 -.139E+02 0.267E+04   -.773E-01 -.229E+00 0.188E+01   -.632E-02 -.194E-01 0.166E-01
   0.471E+02 0.317E+01 -.142E+04   -.456E+02 -.244E+01 0.142E+04   -.142E+01 -.752E+00 0.139E+01   -.348E-01 -.234E-01 0.266E-02
   -.221E+01 0.163E+02 -.135E+04   0.196E+01 -.162E+02 0.135E+04   0.232E+00 0.376E-02 0.106E+01   -.181E-01 -.172E-01 0.459E-03
   0.822E+02 0.609E+02 0.270E+04   -.819E+02 -.610E+02 -.270E+04   -.323E+00 0.888E-01 -.265E+01   -.514E-02 -.672E-02 0.216E-01
   0.526E+02 -.334E+02 0.159E+04   -.532E+02 0.333E+02 -.160E+04   0.632E+00 0.151E+00 0.145E+01   0.682E-02 -.177E-02 0.123E-01
   -.153E+02 -.143E+02 -.135E+04   0.153E+02 0.140E+02 0.135E+04   -.597E-01 0.317E+00 0.185E+01   0.465E-01 0.677E-02 0.302E-01
   -.789E+02 0.857E+02 0.283E+04   0.796E+02 -.844E+02 -.283E+04   -.647E+00 -.134E+01 -.296E+01   0.821E-02 0.173E-01 -.500E-02
   -.154E+02 0.275E+02 0.149E+04   0.151E+02 -.274E+02 -.149E+04   0.323E+00 -.810E-01 -.332E+00   0.227E-01 0.401E-02 0.452E-02
   0.165E+02 0.405E+01 -.269E+04   -.168E+02 -.405E+01 0.269E+04   0.313E+00 0.104E-01 0.182E+01   -.272E-01 -.629E-02 0.152E-01
   0.885E+01 -.785E+02 0.677E+01   -.848E+01 0.778E+02 -.734E+01   -.379E+00 0.633E+00 0.548E+00   -.275E-01 -.760E-02 -.353E-03
   -.290E+02 0.135E+02 -.272E+04   0.283E+02 -.145E+02 0.271E+04   0.632E+00 0.111E+01 0.154E+01   0.252E-01 0.292E-01 0.402E-01
   0.260E+02 0.299E+02 0.977E+02   -.266E+02 -.306E+02 -.979E+02   0.684E+00 0.796E+00 0.174E+00   -.500E-01 -.200E-01 0.232E-01
   -.783E+02 0.195E+02 -.136E+04   0.773E+02 -.191E+02 0.136E+04   0.102E+01 -.405E+00 0.217E+01   0.309E-01 0.410E-01 -.521E-01
   0.459E+02 -.151E+02 -.137E+04   -.448E+02 0.157E+02 0.137E+04   -.108E+01 -.623E+00 0.135E+01   -.294E-01 -.673E-02 -.224E-01
   0.403E+02 -.786E+02 0.159E+04   -.389E+02 0.786E+02 -.159E+04   -.138E+01 -.723E-02 0.135E+01   -.211E-02 -.689E-02 0.215E-01
   0.403E+02 -.279E+02 0.139E+01   -.406E+02 0.280E+02 -.199E+01   0.404E+00 -.290E-01 0.629E+00   0.192E-01 -.437E-02 0.174E-01
   -.505E+02 -.858E+01 0.358E+01   0.509E+02 0.978E+01 -.428E+01   -.418E+00 -.128E+01 0.702E+00   0.297E-01 0.348E-01 0.128E-01
   0.500E+02 -.413E+01 0.273E+02   -.492E+02 0.533E+01 -.270E+02   -.922E+00 -.115E+01 -.262E+00   0.290E-02 -.226E-01 0.168E-01
   -.308E+02 -.545E+02 0.833E+02   0.299E+02 0.530E+02 -.848E+02   0.103E+01 0.157E+01 0.162E+01   0.243E-01 -.158E-01 0.966E-02
   0.173E+02 0.787E+02 0.138E+03   -.176E+02 -.778E+02 -.139E+03   0.376E+00 -.871E+00 0.163E+01   -.497E-01 -.275E-01 0.675E-02
   0.197E+02 0.718E+02 -.134E+04   -.193E+02 -.714E+02 0.134E+04   -.277E+00 -.351E+00 0.151E+01   -.368E-01 -.170E-01 0.240E-01
   -.107E+03 0.123E+01 0.274E+02   0.106E+03 -.138E+01 -.287E+02   0.924E+00 0.782E-01 0.128E+01   0.336E-01 0.119E-01 0.741E-02
   -.486E+00 0.746E+02 0.220E+04   0.167E+01 -.741E+02 -.220E+04   -.121E+01 -.485E+00 -.364E+01   -.208E-01 0.435E-02 0.165E-01
   -.188E+02 -.163E+02 0.222E+04   0.171E+02 0.145E+02 -.222E+04   0.177E+01 0.198E+01 -.300E+01   -.179E-01 -.190E-03 0.105E-03
   0.122E+03 0.273E+02 0.225E+04   -.120E+03 -.260E+02 -.224E+04   -.204E+01 -.135E+01 -.396E+01   -.210E-01 -.150E-01 0.614E-02
   0.425E+02 0.107E+03 0.112E+04   -.419E+02 -.107E+03 -.112E+04   -.591E+00 -.280E+00 -.658E+00   -.242E-01 -.411E-02 0.622E-02
   0.855E+01 -.398E+02 0.114E+04   -.839E+01 0.396E+02 -.114E+04   -.219E+00 0.148E+00 -.536E+00   0.219E-01 0.203E-01 0.253E-01
   -.212E+03 0.618E+01 0.225E+04   0.209E+03 -.639E+01 -.224E+04   0.269E+01 0.163E+00 -.345E+01   0.138E-01 0.367E-03 -.922E-03
   -.618E+02 0.686E+02 0.113E+04   0.615E+02 -.676E+02 -.113E+04   0.336E+00 -.106E+01 -.684E+00   -.557E-02 0.104E-01 -.101E-01
   -.523E+02 -.111E+02 0.336E+02   0.517E+02 0.110E+02 -.331E+02   0.555E+00 -.402E-02 -.672E+00   0.844E-02 0.251E-01 0.126E-01
   0.191E+02 0.515E+01 -.114E+04   -.190E+02 -.525E+01 0.114E+04   -.413E-01 0.219E-01 -.209E+00   0.308E-03 0.178E-01 -.134E-01
   -.290E+02 -.104E+03 0.220E+04   0.283E+02 0.102E+03 -.220E+04   0.703E+00 0.260E+01 -.315E+01   0.143E-01 0.965E-02 0.719E-02
   0.105E+03 -.140E+03 0.252E+04   -.104E+03 0.139E+03 -.252E+04   -.127E+01 0.105E+01 -.309E+01   -.579E-02 -.844E-02 -.171E-01
   0.201E+03 0.811E+02 0.252E+04   -.200E+03 -.798E+02 -.252E+04   -.117E+01 -.138E+01 -.300E+01   -.338E-02 -.158E-01 0.180E-01
   -.496E+02 -.580E+02 0.131E+04   0.494E+02 0.574E+02 -.131E+04   0.220E+00 0.646E+00 -.558E+00   0.107E-01 0.902E-02 0.429E-01
   -.950E+02 -.372E+01 0.343E+02   0.948E+02 0.348E+01 -.345E+02   0.212E+00 0.246E+00 0.144E+00   0.162E-01 0.264E-01 0.171E-01
   -.211E+01 -.467E+02 0.122E+04   0.232E+01 0.460E+02 -.122E+04   -.218E+00 0.775E+00 -.434E+00   -.213E-01 -.126E-01 0.338E-02
   0.498E+02 0.133E+01 -.125E+04   -.495E+02 -.138E+01 0.125E+04   -.415E+00 0.693E-01 0.359E+00   0.330E-02 0.277E-01 -.284E-03
   0.707E+02 0.478E+02 0.255E+04   -.700E+02 -.459E+02 -.254E+04   -.712E+00 -.187E+01 -.408E+01   0.172E-01 0.131E-01 -.146E-02
   -.612E+01 -.362E+02 0.127E+04   0.628E+01 0.365E+02 -.127E+04   -.229E+00 -.377E+00 -.423E+00   0.299E-01 0.319E-01 0.356E-01
   0.237E+02 -.442E+02 0.262E+02   -.231E+02 0.437E+02 -.259E+02   -.592E+00 0.590E+00 -.377E+00   0.386E-01 0.111E-01 0.144E-01
   0.798E+02 0.128E+02 0.316E+04   -.796E+02 -.122E+02 -.316E+04   -.120E+00 -.625E+00 -.434E+01   -.115E-01 -.143E-01 0.120E-01
   0.659E+02 0.779E+02 0.155E+04   -.665E+02 -.774E+02 -.155E+04   0.493E+00 -.587E+00 0.255E+00   0.117E-01 -.699E-02 0.194E-01
   0.941E+02 -.726E+02 0.147E+04   -.943E+02 0.726E+02 -.147E+04   0.990E-01 0.129E+00 -.501E+00   -.222E-01 -.301E-01 0.324E-01
   -.488E+02 -.347E+02 -.155E+04   0.482E+02 0.337E+02 0.155E+04   0.632E+00 0.105E+01 0.125E+01   0.402E-01 0.265E-01 -.207E-01
   0.161E+02 0.140E+03 0.310E+04   -.160E+02 -.141E+03 -.310E+04   -.111E+00 0.261E+00 -.353E+01   -.221E-01 0.511E-02 0.295E-02
   -.384E+02 -.590E+02 0.312E+04   0.374E+02 0.595E+02 -.312E+04   0.990E+00 -.473E+00 -.477E+01   0.232E-01 0.289E-01 0.205E-02
   0.123E+03 -.499E+02 0.310E+02   -.123E+03 0.492E+02 -.303E+02   -.277E-01 0.791E+00 -.784E+00   -.747E-02 -.141E-01 0.141E-01
   0.403E+02 0.113E+03 0.157E+04   -.400E+02 -.113E+03 -.157E+04   -.299E+00 -.684E+00 -.132E+01   -.595E-01 -.765E-02 -.111E-02
   -.142E+02 0.407E+02 -.201E+02   0.148E+02 -.410E+02 0.201E+02   -.615E+00 0.442E+00 -.144E-01   -.368E-01 -.147E-02 -.279E-02
   0.504E+02 0.764E+02 -.342E+02   -.500E+02 -.758E+02 0.342E+02   -.484E+00 -.693E+00 -.593E-01   -.205E-01 -.107E-01 -.133E-03
   -.149E+03 -.711E+01 0.134E+04   0.148E+03 0.702E+01 -.134E+04   0.754E+00 0.134E+00 -.930E+00   0.258E-01 -.182E-02 0.887E-02
   -.222E+02 -.110E+02 0.146E+04   0.226E+02 0.109E+02 -.146E+04   -.473E+00 0.241E+00 -.760E+00   0.254E-01 0.759E-02 0.973E-02
   -.204E+03 -.116E+03 0.285E+04   0.204E+03 0.114E+03 -.285E+04   0.549E+00 0.136E+01 -.258E+01   0.191E-01 -.846E-03 -.127E-01
   -.196E+02 -.126E+03 0.282E+04   0.177E+02 0.126E+03 -.282E+04   0.199E+01 0.260E+00 -.167E+01   -.634E-02 -.289E-01 0.131E-01
   0.622E+02 -.390E+02 0.140E+04   -.614E+02 0.388E+02 -.140E+04   -.849E+00 0.305E+00 -.585E+00   -.115E-01 -.241E-01 0.220E-01
   -.532E+02 0.142E+02 -.140E+04   0.529E+02 -.140E+02 0.140E+04   0.377E+00 -.360E+00 -.103E-01   0.128E-01 -.172E-01 0.601E-02
   -.597E+02 0.501E+02 0.281E+04   0.601E+02 -.495E+02 -.281E+04   -.312E+00 -.633E+00 -.131E+01   0.508E-03 -.358E-02 -.441E-02
   -.118E+02 0.587E+02 0.194E+02   0.121E+02 -.583E+02 -.191E+02   -.360E+00 -.400E+00 -.324E+00   -.815E-02 -.653E-02 0.240E-01
   0.324E+02 0.401E+01 0.385E+01   -.322E+02 -.381E+01 -.370E+01   -.294E+00 -.297E+00 -.264E+00   0.370E-01 0.299E-01 0.970E-02
   0.290E+00 -.148E+01 -.317E+03   -.498E+00 0.143E+01 0.319E+03   0.231E+00 0.535E-01 -.137E+01   0.314E-02 0.319E-02 0.209E-03
 -----------------------------------------------------------------------------------------------
   -.150E+01 0.282E+00 0.359E+01   0.184E-12 -.303E-12 0.165E-10   0.149E+01 -.262E+00 -.439E+01   0.152E-01 0.107E-01 0.809E+00
 
 
 POSITION                                       TOTAL-FORCE (eV/Angst)
 -----------------------------------------------------------------------------------
     13.57424      8.45618      6.93109         0.017712     -0.000072     -0.002400
      5.27249      8.45709      6.92470        -0.000119     -0.009417      0.008488
      3.86272      5.98597      6.87291         0.008568     -0.000831     -0.006299
      2.39437      3.60557      7.00997         0.001962      0.002966      0.003297
      3.84975      1.02591      7.01272        -0.001242     -0.013337     -0.015583
      5.28114      3.56792      6.97875        -0.001326     -0.001655     -0.005989
     13.51950      6.69208      2.75694        -0.029051     -0.020842      0.017117
     15.09464      9.25505      9.16548         0.002072     -0.010287     -0.005036
      3.85263      4.43480      9.22610        -0.014340     -0.011303      0.006490
      6.70535      9.20184      9.16591         0.007579     -0.006957      0.005275
     12.28204      4.35045      9.25827        -0.003156      0.002527     -0.001638
      9.42266      9.22561      9.25654         0.031754     -0.020620     -0.011909
     10.86282      1.98412      9.13637         0.011221      0.004324      0.004215
      2.46284      1.94808      9.24352        -0.005379      0.013293      0.005918
     12.30060      9.24610      9.25105        -0.011411     -0.007921     -0.009719
     13.72033      6.82375      9.21623        -0.001581     -0.005736      0.018136
      5.27029      1.95808      9.23268         0.001123     -0.006217     -0.010929
      8.10734      6.80982      9.19524         0.009779      0.006557      0.007222
      9.53238      4.42365      9.22593        -0.004669      0.019708     -0.012728
      5.25850      6.82215      9.20254        -0.010771     -0.009238      0.017035
      8.08491      1.97380      9.17862         0.013270      0.032398     -0.006090
      8.18113      3.64866      6.98715         0.006997     -0.017070     -0.002123
      6.63908      1.16871      6.96311        -0.000374      0.025061     -0.017038
      6.78185      1.16816      1.10976        -0.015125      0.005843     -0.006352
      3.74327      4.26289      2.71491         0.007339      0.007450      0.006640
      1.07896      1.11115      6.94824        -0.003909     -0.003913      0.004378
      1.01575      1.28649      0.81183         0.004302     -0.004579      0.009770
      6.67142      9.31568      2.85544         0.002158      0.018378     -0.016317
      6.66944      4.39426      9.22701        -0.015371      0.004040      0.015679
      8.14285      5.24496      4.86976         0.017449     -0.004724     -0.031722
     10.87302      6.75036      9.29285        -0.004745      0.038059     -0.012593
     14.99686      7.68362      4.79411        -0.023913      0.005089     -0.037259
     12.23619      6.05794      7.00467        -0.001473      0.002511     -0.020468
      6.72169      6.02729      6.98464        -0.001376      0.000489     -0.006335
      8.20780      6.89173      2.69128        -0.002944      0.001786     -0.010489
      3.77766      2.69345      4.90572        -0.011996     -0.019295     -0.014495
     10.86552      5.33036      4.88657        -0.015750      0.023104      0.008302
      6.80891      7.69639      4.91949         0.007041      0.018448      0.018541
      5.20720      0.16029      4.85410        -0.011386     -0.019934      0.050543
      7.96508      0.45571      4.72390         0.004872     -0.020817      0.000951
      9.47510      1.17755      6.88796         0.004959      0.003227     -0.001705
     12.19222      2.77766      4.87496         0.003760      0.001651     -0.002011
     13.78001      8.57392      1.07376        -0.001474     -0.013195     -0.007404
      5.17612      8.26819      1.02395         0.022679      0.009005      0.003280
      4.07688      6.12594      0.96722         0.012096     -0.000464      0.012288
      8.23477      2.19285      2.91186         0.005958      0.003044      0.002125
      9.46232      9.17873      2.88867        -0.005236     -0.000215     -0.014404
     13.23829      3.61532      0.98546         0.007111     -0.012703      0.009073
     10.87798      2.06279      2.87872        -0.007630      0.001016     -0.002242
     13.60649      5.17210      4.92826        -0.008785     -0.002580     -0.007146
      9.48535      6.02273      7.10772         0.004805      0.002934      0.007175
      3.91652      1.06390      1.10530         0.006975     -0.001105      0.038481
      9.69052      5.79723      1.02825        -0.016486     -0.006822      0.005113
      5.55996      3.72993      1.09992        -0.009565     -0.040023     -0.008234
     12.22782      8.97667      2.86865        -0.021572      0.000176      0.010833
     12.22062      7.58099      4.89646        -0.028465     -0.001205      0.029969
      9.50033      4.35926      2.89266        -0.002346     -0.008442     -0.007518
      8.11080      8.41412      7.03288        -0.009840      0.003682      0.005135
      8.20297      8.78072      0.90411         0.015180      0.009705      0.001226
     10.87946      6.90186      2.86164        -0.028512      0.003414     -0.008318
      2.55562      0.21789      4.96708         0.014045      0.004884      0.024415
      8.12929      3.65853      0.88294        -0.007526      0.012199      0.001818
      5.33633      2.04607      3.00455         0.011743     -0.012766     -0.004311
      5.35867      6.70303      3.02467         0.006964      0.015206     -0.005126
     10.80796      8.34403      7.05266         0.012923     -0.009046     -0.019924
      9.50522      1.22179      0.88788         0.003282      0.002586     -0.007335
     10.84088      8.41789      0.89812        -0.018765      0.011798      0.002342
      5.29878      5.08233      4.87221         0.010747     -0.006086     -0.024517
     15.21969      9.46320      2.91158         0.012498      0.002529      0.003158
      9.54798      2.83243      4.93973         0.005545     -0.000895     -0.012513
      6.74099      2.86414      4.91726         0.007639      0.000326     -0.009075
     12.12718      4.37157      2.88927         0.008186     -0.004733     -0.001037
      2.50652      1.86558      2.87455        -0.003244      0.015006     -0.009804
     12.02738      5.81407      0.92547        -0.017950     -0.005305      0.004331
      6.52756      5.95530      1.01982        -0.010749     -0.037217      0.005545
      6.84854      4.37406      2.90086        -0.017803     -0.013989     -0.002971
     10.85542      3.69846      7.03322        -0.002176     -0.003757     -0.002547
     10.75754      3.55271      0.95995        -0.000025      0.006931      0.000270
     10.94499      0.41654      4.90182         0.019300      0.025954     -0.017698
      9.50574      7.61774      4.99769         0.032948      0.015180      0.056196
     10.93528      8.43927     10.09098         0.025014      0.012822      0.008576
 -----------------------------------------------------------------------------------
    total drift:                                0.006427      0.030556      0.009106


--------------------------------------------------------------------------------------------------------



  FREE ENERGIE OF THE ION-ELECTRON SYSTEM (eV)
  ---------------------------------------------------
  free  energy   TOTEN  =      -507.81347156 eV

  energy  without entropy=     -507.81757309  energy(sigma->0) =     -507.81483874
 
 d Force = 0.2340243E-02[ 0.921E-03, 0.376E-02]  d Energy = 0.2320851E-02 0.194E-04
 d Force =-0.4079908E+02[-0.408E+02,-0.408E+02]  d Ewald  =-0.4079907E+02-0.158E-04


--------------------------------------------------------------------------------------------------------


    POTLOK:  cpu time    0.4479: real time    0.4502


--------------------------------------------------------------------------------------------------------


 Conjugate gradient step on ions:
 trial-energy change:   -0.002321  1 .order   -0.002340   -0.003759   -0.000921
  (g-gl).g = 0.134E-02      g.g   = 0.172E-02  gl.gl    = 0.293E-02
 g(Force)  = 0.172E-02   g(Stress)= 0.000E+00 ortho     =-0.381E-05
 gamma     =   0.45887
 trial     =   2.18370
 opt step  =   2.89281  (harmonic =   2.89281) maximal distance =0.01537666
 next E    =  -507.813641   (d E  =  -0.00249)


--------------------------------------------------------------------------------------------------------


  
 reached required accuracy - stopping structural energy minimisation
     LOOP+:  cpu time  859.9212: real time  863.4485
    4ORBIT:  cpu time    0.0000: real time    0.0000

 total amount of memory used by VASP MPI-rank0   252733. kBytes
=======================================================================

   base      :      30000. kBytes
   nonlr-proj:      36144. kBytes
   fftplans  :      18297. kBytes
   grid      :      55120. kBytes
   one-center:        653. kBytes
   wavefun   :     112519. kBytes
 
  
  
 General timing and accounting informations for this job:
 ========================================================
  
                  Total CPU time used (sec):    15348.709
                            User time (sec):    14941.868
                          System time (sec):      406.841
                         Elapsed time (sec):    15432.387
  
                   Maximum memory used (kb):      412672.
                   Average memory used (kb):           0.
  
                          Minor page faults:     18081516
                          Major page faults:          321
                 Voluntary context switches:        13477
