 vasp.5.4.4.18Apr17-6-g9f103f2a35 (build Oct 25 2019 11:13:22) complex          
  
 executed on             LinuxIFC date 2021.10.16  12:31:23
 running on   48 total cores
 distrk:  each k-point on   48 cores,    1 groups
 distr:  one band on NCORES_PER_BAND=   4 cores,   12 groups


--------------------------------------------------------------------------------------------------------


 INCAR:
 POTCAR:    PAW_PBE Pt 04Feb2005                  
 POTCAR:    PAW_PBE Fe 06Sep2000                  
 POTCAR:    PAW_PBE Co 02Aug2007                  
 POTCAR:    PAW_PBE Cu 22Jun2005                  
 POTCAR:    PAW_PBE Ni 02Aug2007                  
 POTCAR:    PAW_PBE H 15Jun2001                   
 POTCAR:    PAW_PBE Pt 04Feb2005                  
   VRHFIN =Pt: s1d9                                                             
   LEXCH  = PE                                                                  
   EATOM  =   729.1176 eV,   53.5886 Ry                                         
                                                                                
   TITEL  = PAW_PBE Pt 04Feb2005                                                
   LULTRA =        F    use ultrasoft PP ?                                      
   IUNSCR =        1    unscreen: 0-lin 1-nonlin 2-no                           
   RPACOR =    2.330    partial core radius                                     
   POMASS =  195.080; ZVAL   =   10.000    mass and valenz                      
   RCORE  =    2.600    outmost cutoff radius                                   
   RWIGS  =    2.750; RWIGS  =    1.455    wigner-seitz radius (au A)           
   ENMAX  =  230.283; ENMIN  =  172.712 eV                                      
   ICORE  =        3    local potential                                         
   LCOR   =        T    correct aug charges                                     
   LPAW   =        T    paw PP                                                  
   EAUG   =  358.966                                                            
   DEXC   =    0.000                                                            
   RMAX   =    2.658    core radius for proj-oper                               
   RAUG   =    1.300    factor for augmentation sphere                          
   RDEP   =    2.761    radius for radial grids                                 
   RDEPT  =    2.203    core radius for aug-charge                              
                                                                                
   Atomic configuration                                                         
   16 entries                                                                   
     n  l   j            E        occ.                                          
     1  0  0.50    -78401.1885   2.0000                                         
     2  0  0.50    -13770.7750   2.0000                                         
     2  1  1.50    -11931.0468   6.0000                                         
     3  0  0.50     -3234.7234   2.0000                                         
     3  1  1.50     -2699.2216   6.0000                                         
     3  2  2.50     -2119.5714  10.0000                                         
     4  0  0.50      -695.1528   2.0000                                         
     4  1  1.50      -519.6034   6.0000                                         
     4  2  2.50      -306.6786  10.0000                                         
     4  3  3.50       -70.1041  14.0000                                         
     5  0  0.50      -101.7747   2.0000                                         
     5  1  1.50       -55.9873   6.0000                                         
     5  2  2.50        -6.1423   9.0000                                         
     6  0  0.50        -5.6573   1.0000                                         
     6  1  1.50        -6.8029   0.0000                                         
     5  3  2.50        -1.3606   0.0000                                         
   Description                                                                  
     l       E           TYP  RCUT    TYP  RCUT                                 
     2     -6.1423404     23  2.500                                             
     2     -7.5029230     23  2.500                                             
     0     -5.6573207     23  2.500                                             
     0      0.7416693     23  2.500                                             
     1     -2.7211652     23  2.600                                             
     1     20.4087390     23  2.600                                             
     3     -1.3605826     23  2.500                                             
  local pseudopotential read in
  partial core-charges read in
  partial kinetic energy density read in
  atomic valenz-charges read in
  non local Contribution for L=           2  read in
    real space projection operators read in
  non local Contribution for L=           2  read in
    real space projection operators read in
  non local Contribution for L=           0  read in
    real space projection operators read in
  non local Contribution for L=           0  read in
    real space projection operators read in
  non local Contribution for L=           1  read in
    real space projection operators read in
  non local Contribution for L=           1  read in
    real space projection operators read in
    PAW grid and wavefunctions read in
 
   number of l-projection  operators is LMAX  =           6
   number of lm-projection operators is LMMAX =          18
 
 POTCAR:    PAW_PBE Fe 06Sep2000                  
   VRHFIN =Fe:  d7 s1                                                           
   LEXCH  = PE                                                                  
   EATOM  =   594.3153 eV,   43.6809 Ry                                         
                                                                                
   TITEL  = PAW_PBE Fe 06Sep2000                                                
   LULTRA =        F    use ultrasoft PP ?                                      
   IUNSCR =        1    unscreen: 0-lin 1-nonlin 2-no                           
   RPACOR =    2.000    partial core radius                                     
   POMASS =   55.847; ZVAL   =    8.000    mass and valenz                      
   RCORE  =    2.300    outmost cutoff radius                                   
   RWIGS  =    2.460; RWIGS  =    1.302    wigner-seitz radius (au A)           
   ENMAX  =  267.882; ENMIN  =  200.911 eV                                      
   RCLOC  =    1.701    cutoff for local pot                                    
   LCOR   =        T    correct aug charges                                     
   LPAW   =        T    paw PP                                                  
   EAUG   =  511.368                                                            
   DEXC   =    0.000                                                            
   RMAX   =    2.356    core radius for proj-oper                               
   RAUG   =    1.300    factor for augmentation sphere                          
   RDEP   =    2.442    radius for radial grids                                 
   RDEPT  =    1.890    core radius for aug-charge                              
                                                                                
   Atomic configuration                                                         
    9 entries                                                                   
     n  l   j            E        occ.                                          
     1  0  0.50     -6993.8440   2.0000                                         
     2  0  0.50      -814.6047   2.0000                                         
     2  1  1.50      -693.3689   6.0000                                         
     3  0  0.50       -89.4732   2.0000                                         
     3  1  1.50       -55.6373   6.0000                                         
     3  2  2.50        -3.8151   7.0000                                         
     4  0  0.50        -4.2551   1.0000                                         
     4  1  1.50        -3.4015   0.0000                                         
     4  3  2.50        -1.3606   0.0000                                         
   Description                                                                  
     l       E           TYP  RCUT    TYP  RCUT                                 
     2     -3.8151135     23  2.300                                             
     2     -5.1756961     23  2.300                                             
     0     -4.2550963     23  2.300                                             
     0      7.2035603     23  2.300                                             
     1     -2.7211652     23  2.300                                             
     1     18.4316424     23  2.300                                             
  local pseudopotential read in
  partial core-charges read in
  partial kinetic energy density read in
  atomic valenz-charges read in
  non local Contribution for L=           2  read in
    real space projection operators read in
  non local Contribution for L=           2  read in
    real space projection operators read in
  non local Contribution for L=           0  read in
    real space projection operators read in
  non local Contribution for L=           0  read in
    real space projection operators read in
  non local Contribution for L=           1  read in
    real space projection operators read in
  non local Contribution for L=           1  read in
    real space projection operators read in
    PAW grid and wavefunctions read in
 
   number of l-projection  operators is LMAX  =           6
   number of lm-projection operators is LMMAX =          18
 
 POTCAR:    PAW_PBE Co 02Aug2007                  
   VRHFIN =Co: d8 s1                                                            
   LEXCH  = PE                                                                  
   EATOM  =   813.3670 eV,   59.7808 Ry                                         
                                                                                
   TITEL  = PAW_PBE Co 02Aug2007                                                
   LULTRA =        F    use ultrasoft PP ?                                      
   IUNSCR =        1    unscreen: 0-lin 1-nonlin 2-no                           
   RPACOR =    2.000    partial core radius                                     
   POMASS =   58.933; ZVAL   =    9.000    mass and valenz                      
   RCORE  =    2.300    outmost cutoff radius                                   
   RWIGS  =    2.460; RWIGS  =    1.302    wigner-seitz radius (au A)           
   ENMAX  =  267.968; ENMIN  =  200.976 eV                                      
   RCLOC  =    1.203    cutoff for local pot                                    
   LCOR   =        T    correct aug charges                                     
   LPAW   =        T    paw PP                                                  
   EAUG   =  477.818                                                            
   DEXC   =    0.000                                                            
   RMAX   =    2.360    core radius for proj-oper                               
   RAUG   =    1.300    factor for augmentation sphere                          
   RDEP   =    2.393    radius for radial grids                                 
   RDEPT  =    1.864    core radius for aug-charge                              
                                                                                
   Atomic configuration                                                         
    9 entries                                                                   
     n  l   j            E        occ.                                          
     1  0  0.50     -7587.6674   2.0000                                         
     2  0  0.50      -893.6084   2.0000                                         
     2  1  1.50      -764.5805   6.0000                                         
     3  0  0.50       -97.5973   2.0000                                         
     3  1  1.50       -60.9648   6.0000                                         
     3  2  2.50        -4.2382   8.0000                                         
     4  0  0.50        -4.3746   1.0000                                         
     4  1  1.50        -4.0817   0.0000                                         
     4  3  2.50        -1.3606   0.0000                                         
   Description                                                                  
     l       E           TYP  RCUT    TYP  RCUT                                 
     2     -4.2382362     23  2.300                                             
     2     -5.5988188     23  2.300                                             
     0     -4.3745797     23  2.300                                             
     0      5.7660125     23  2.300                                             
     1     -2.7211652     23  2.300                                             
     1     16.9860234     23  2.300                                             
  local pseudopotential read in
  partial core-charges read in
  partial kinetic energy density read in
  atomic valenz-charges read in
  non local Contribution for L=           2  read in
    real space projection operators read in
  non local Contribution for L=           2  read in
    real space projection operators read in
  non local Contribution for L=           0  read in
    real space projection operators read in
  non local Contribution for L=           0  read in
    real space projection operators read in
  non local Contribution for L=           1  read in
    real space projection operators read in
  non local Contribution for L=           1  read in
    real space projection operators read in
    PAW grid and wavefunctions read in
 
   number of l-projection  operators is LMAX  =           6
   number of lm-projection operators is LMMAX =          18
 
 POTCAR:    PAW_PBE Cu 22Jun2005                  
   VRHFIN =Cu: d10 p1                                                           
   LEXCH  = PE                                                                  
   EATOM  =  1390.9808 eV,  102.2342 Ry                                         
                                                                                
   TITEL  = PAW_PBE Cu 22Jun2005                                                
   LULTRA =        F    use ultrasoft PP ?                                      
   IUNSCR =        1    unscreen: 0-lin 1-nonlin 2-no                           
   RPACOR =    2.000    partial core radius                                     
   POMASS =   63.546; ZVAL   =   11.000    mass and valenz                      
   RCORE  =    2.300    outmost cutoff radius                                   
   RWIGS  =    2.200; RWIGS  =    1.164    wigner-seitz radius (au A)           
   ENMAX  =  295.446; ENMIN  =  221.585 eV                                      
   ICORE  =        3    local potential                                         
   LCOR   =        T    correct aug charges                                     
   LPAW   =        T    paw PP                                                  
   EAUG   =  586.980                                                            
   DEXC   =    0.000                                                            
   RMAX   =    2.344    core radius for proj-oper                               
   RAUG   =    1.300    factor for augmentation sphere                          
   RDEP   =    2.302    radius for radial grids                                 
   RDEPT  =    1.771    core radius for aug-charge                              
                                                                                
   Atomic configuration                                                         
    9 entries                                                                   
     n  l   j            E        occ.                                          
     1  0  0.50     -8850.2468   2.0000                                         
     2  0  0.50     -1062.3498   2.0000                                         
     2  1  1.50      -916.8226   6.0000                                         
     3  0  0.50      -114.6929   2.0000                                         
     3  1  1.50       -72.1325   6.0000                                         
     3  2  2.50        -5.0394  10.0000                                         
     4  0  0.50        -4.6097   1.0000                                         
     4  1  0.50        -4.0817   0.0000                                         
     4  3  2.50        -1.3606   0.0000                                         
   Description                                                                  
     l       E           TYP  RCUT    TYP  RCUT                                 
     2     -5.0393973     23  2.200                                             
     2     10.8846608     23  2.200                                             
     0     -4.6097109     23  2.200                                             
     0      8.2520465     23  2.200                                             
     1     -2.7211652     23  2.200                                             
     1     21.7055443     23  2.200                                             
     3      2.7211652     23  2.300                                             
  local pseudopotential read in
  partial core-charges read in
  partial kinetic energy density read in
  atomic valenz-charges read in
  non local Contribution for L=           2  read in
    real space projection operators read in
  non local Contribution for L=           2  read in
    real space projection operators read in
  non local Contribution for L=           0  read in
    real space projection operators read in
  non local Contribution for L=           0  read in
    real space projection operators read in
  non local Contribution for L=           1  read in
    real space projection operators read in
  non local Contribution for L=           1  read in
    real space projection operators read in
    PAW grid and wavefunctions read in
 
   number of l-projection  operators is LMAX  =           6
   number of lm-projection operators is LMMAX =          18
 
 POTCAR:    PAW_PBE Ni 02Aug2007                  
   VRHFIN =Ni:                                                                  
   LEXCH  = PE                                                                  
   EATOM  =  1077.6739 eV,   79.2068 Ry                                         
                                                                                
   TITEL  = PAW_PBE Ni 02Aug2007                                                
   LULTRA =        F    use ultrasoft PP ?                                      
   IUNSCR =        1    unscreen: 0-lin 1-nonlin 2-no                           
   RPACOR =    2.000    partial core radius                                     
   POMASS =   58.690; ZVAL   =   10.000    mass and valenz                      
   RCORE  =    2.300    outmost cutoff radius                                   
   RWIGS  =    2.430; RWIGS  =    1.286    wigner-seitz radius (au A)           
   ENMAX  =  269.532; ENMIN  =  202.149 eV                                      
   RCLOC  =    1.201    cutoff for local pot                                    
   LCOR   =        T    correct aug charges                                     
   LPAW   =        T    paw PP                                                  
   EAUG   =  544.565                                                            
   DEXC   =    0.000                                                            
   RMAX   =    2.357    core radius for proj-oper                               
   RAUG   =    1.300    factor for augmentation sphere                          
   RDEP   =    2.390    radius for radial grids                                 
   RDEPT  =    1.838    core radius for aug-charge                              
                                                                                
   Atomic configuration                                                         
    9 entries                                                                   
     n  l   j            E        occ.                                          
     1  0  0.50     -8206.4253   2.0000                                         
     2  0  0.50      -976.1748   2.0000                                         
     2  1  1.50      -839.0571   6.0000                                         
     3  0  0.50      -105.9991   2.0000                                         
     3  1  1.50       -66.4603   6.0000                                         
     3  2  2.50        -4.6458   9.0000                                         
     4  0  0.50        -4.4926   1.0000                                         
     4  1  1.50        -4.0817   0.0000                                         
     4  3  2.50        -1.3606   0.0000                                         
   Description                                                                  
     l       E           TYP  RCUT    TYP  RCUT                                 
     2     -4.6457903     23  2.300                                             
     2     -6.0063729     23  2.300                                             
     0     -4.4925590     23  2.300                                             
     0      5.0102601     23  2.300                                             
     1     -2.7211652     23  2.300                                             
     1     16.5183231     23  2.300                                             
  local pseudopotential read in
  partial core-charges read in
  partial kinetic energy density read in
  atomic valenz-charges read in
  non local Contribution for L=           2  read in
    real space projection operators read in
  non local Contribution for L=           2  read in
    real space projection operators read in
  non local Contribution for L=           0  read in
    real space projection operators read in
  non local Contribution for L=           0  read in
    real space projection operators read in
  non local Contribution for L=           1  read in
    real space projection operators read in
  non local Contribution for L=           1  read in
    real space projection operators read in
    PAW grid and wavefunctions read in
 
   number of l-projection  operators is LMAX  =           6
   number of lm-projection operators is LMMAX =          18
 
 POTCAR:    PAW_PBE H 15Jun2001                   
   VRHFIN =H: ultrasoft test                                                    
   LEXCH  = PE                                                                  
   EATOM  =    12.4884 eV,    0.9179 Ry                                         
                                                                                
   TITEL  = PAW_PBE H 15Jun2001                                                 
   LULTRA =        F    use ultrasoft PP ?                                      
   IUNSCR =        0    unscreen: 0-lin 1-nonlin 2-no                           
   RPACOR =    0.000    partial core radius                                     
   POMASS =    1.000; ZVAL   =    1.000    mass and valenz                      
   RCORE  =    1.100    outmost cutoff radius                                   
   RWIGS  =    0.700; RWIGS  =    0.370    wigner-seitz radius (au A)           
   ENMAX  =  250.000; ENMIN  =  200.000 eV                                      
   RCLOC  =    0.701    cutoff for local pot                                    
   LCOR   =        T    correct aug charges                                     
   LPAW   =        T    paw PP                                                  
   EAUG   =  400.000                                                            
   RMAX   =    1.123    core radius for proj-oper                               
   RAUG   =    1.200    factor for augmentation sphere                          
   RDEP   =    1.112    radius for radial grids                                 
   RDEPT  =    0.926    core radius for aug-charge                              
                                                                                
   Atomic configuration                                                         
    2 entries                                                                   
     n  l   j            E        occ.                                          
     1  0  0.50        -6.4927   1.0000                                         
     2  1  0.50        -3.4015   0.0000                                         
   Description                                                                  
     l       E           TYP  RCUT    TYP  RCUT                                 
     0     -6.4927494     23  1.100                                             
     0      6.8029130     23  1.100                                             
     1     -4.0817478     23  1.100                                             
  local pseudopotential read in
  atomic valenz-charges read in
  non local Contribution for L=           0  read in
    real space projection operators read in
  non local Contribution for L=           0  read in
    real space projection operators read in
  non local Contribution for L=           1  read in
    real space projection operators read in
    PAW grid and wavefunctions read in
 
   number of l-projection  operators is LMAX  =           3
   number of lm-projection operators is LMMAX =           5
 
 Optimization of the real space projectors (new method)

 maximal supplied QI-value         = 14.36
 optimisation between [QCUT,QGAM] = [ 11.92, 23.98] = [ 39.79,161.09] Ry 
 Optimized for a Real-space Cutoff    1.49 Angstroem

   l    n(q)    QCUT    max X(q) W(low)/X(q) W(high)/X(q)  e(spline) 
   2     10    11.920    66.195    0.79E-04    0.18E-03    0.24E-06
   2     10    11.920    64.643    0.81E-04    0.19E-03    0.24E-06
   0     11    11.920    95.520    0.28E-04    0.54E-04    0.18E-06
   0     11    11.920    63.403    0.27E-04    0.52E-04    0.17E-06
   1     10    11.920    19.961    0.18E-04    0.11E-03    0.23E-06
   1     10    11.920    13.289    0.25E-04    0.87E-04    0.19E-06
 Optimization of the real space projectors (new method)

 maximal supplied QI-value         = 16.25
 optimisation between [QCUT,QGAM] = [ 11.86, 23.89] = [ 39.41,159.82] Ry 
 Optimized for a Real-space Cutoff    1.49 Angstroem

   l    n(q)    QCUT    max X(q) W(low)/X(q) W(high)/X(q)  e(spline) 
   2     10    11.864    80.901    0.13E-03    0.23E-03    0.37E-06
   2     10    11.864    75.754    0.13E-03    0.23E-03    0.38E-06
   0     11    11.864    58.752    0.44E-04    0.11E-04    0.20E-06
   0     11    11.864    30.679    0.36E-04    0.10E-04    0.18E-06
   1     10    11.864    17.977    0.31E-04    0.45E-04    0.10E-06
   1     10    11.864    13.559    0.25E-04    0.37E-04    0.89E-07
 Optimization of the real space projectors (new method)

 maximal supplied QI-value         = 16.25
 optimisation between [QCUT,QGAM] = [ 11.86, 23.89] = [ 39.41,159.82] Ry 
 Optimized for a Real-space Cutoff    1.33 Angstroem

   l    n(q)    QCUT    max X(q) W(low)/X(q) W(high)/X(q)  e(spline) 
   2      9    11.864    65.824    0.22E-03    0.53E-03    0.26E-06
   2      9    11.864    61.429    0.22E-03    0.53E-03    0.26E-06
   0      9    11.864    56.174    0.21E-03    0.32E-04    0.15E-06
   0      9    11.864    31.263    0.19E-03    0.30E-04    0.14E-06
   1      9    11.864    19.828    0.63E-04    0.30E-03    0.16E-06
   1      9    11.864    15.139    0.49E-04    0.25E-03    0.13E-06
 Optimization of the real space projectors (new method)

 maximal supplied QI-value         = 16.25
 optimisation between [QCUT,QGAM] = [ 11.86, 23.89] = [ 39.41,159.82] Ry 
 Optimized for a Real-space Cutoff    1.49 Angstroem

   l    n(q)    QCUT    max X(q) W(low)/X(q) W(high)/X(q)  e(spline) 
   2     10    11.864     4.610    0.10E-03    0.20E-03    0.29E-06
   2     10    11.864     8.522    0.17E-03    0.33E-03    0.50E-06
   0     11    11.864    51.609    0.52E-04    0.55E-04    0.33E-06
   0     11    11.864    27.747    0.46E-04    0.52E-04    0.31E-06
   1     10    11.864    20.408    0.54E-04    0.25E-04    0.21E-06
   1     10    11.864    13.425    0.48E-04    0.22E-04    0.18E-06
 Optimization of the real space projectors (new method)

 maximal supplied QI-value         = 16.25
 optimisation between [QCUT,QGAM] = [ 11.86, 23.89] = [ 39.41,159.82] Ry 
 Optimized for a Real-space Cutoff    1.33 Angstroem

   l    n(q)    QCUT    max X(q) W(low)/X(q) W(high)/X(q)  e(spline) 
   2      9    11.864    60.317    0.21E-03    0.51E-03    0.25E-06
   2      9    11.864    55.921    0.21E-03    0.51E-03    0.26E-06
   0      9    11.864    51.690    0.22E-03    0.30E-04    0.17E-06
   0      9    11.864    30.015    0.20E-03    0.28E-04    0.15E-06
   1      9    11.864    18.849    0.76E-04    0.33E-03    0.17E-06
   1      9    11.864    14.624    0.60E-04    0.28E-03    0.15E-06
 Optimization of the real space projectors (new method)

 maximal supplied QI-value         = 34.20
 optimisation between [QCUT,QGAM] = [ 11.97, 23.94] = [ 40.13,160.53] Ry 
 Optimized for a Real-space Cutoff    1.18 Angstroem

   l    n(q)    QCUT    max X(q) W(low)/X(q) W(high)/X(q)  e(spline) 
   0      8    11.971    19.460    0.15E-03    0.31E-03    0.25E-06
   0      8    11.971    12.209    0.13E-03    0.29E-03    0.25E-06
   1      8    11.971     4.655    0.22E-03    0.24E-03    0.21E-06
  PAW_PBE Pt 04Feb2005                  :
 energy of atom  1       EATOM= -729.1176
 kinetic energy error for atom=    0.0021 (will be added to EATOM!!)
  PAW_PBE Fe 06Sep2000                  :
 energy of atom  2       EATOM= -594.3153
 kinetic energy error for atom=    0.0024 (will be added to EATOM!!)
  PAW_PBE Co 02Aug2007                  :
 energy of atom  3       EATOM= -813.3670
 kinetic energy error for atom=    0.0026 (will be added to EATOM!!)
  PAW_PBE Cu 22Jun2005                  :
 energy of atom  4       EATOM=-1390.9808
 kinetic energy error for atom=    0.0036 (will be added to EATOM!!)
  PAW_PBE Ni 02Aug2007                  :
 energy of atom  5       EATOM=-1077.6739
 kinetic energy error for atom=    0.0027 (will be added to EATOM!!)
  PAW_PBE H 15Jun2001                   :
 energy of atom  6       EATOM=  -12.4884
 kinetic energy error for atom=    0.0008 (will be added to EATOM!!)
 
 
 POSCAR: 10.96                                   
  positions in direct lattice
  velocities in cartesian coordinates
 exchange correlation table for  LEXCH =        8
   RHO(1)=    0.500       N(1)  =     2000
   RHO(2)=  100.500       N(2)  =     4000
 


--------------------------------------------------------------------------------------------------------


 ion  position               nearest neighbor table
   1  0.787  0.880  0.313-  49 2.59  59 2.62  28 2.64  19 2.73  33 2.75  61 2.75  11 2.75  29 2.75
                            60 2.76   4 2.80   2 2.81  12 2.84
   2  0.043  0.881  0.311-  79 2.55  77 2.60  28 2.70  30 2.72  60 2.72  33 2.74  52 2.75   6 2.79
                            22 2.80   1 2.81   4 2.86  16 2.93
   3  0.279  0.379  0.316-  64 2.55  31 2.65  39 2.66  68 2.66  33 2.71   5 2.74  13 2.77  19 2.79
                            43 2.80  25 2.81  30 2.81  18 2.93
   4  0.870  0.965  0.418-  17 2.69  11 2.72   9 2.73  60 2.75  12 2.78   1 2.80   6 2.80  16 2.83
                             2 2.86
   5  0.118  0.465  0.420-  39 2.67  12 2.69   7 2.69  33 2.70  16 2.70  10 2.72   3 2.74  25 2.78
                            13 2.82
   6  0.127  0.963  0.416-   8 2.69  52 2.72  10 2.73  14 2.76   9 2.77   2 2.79   4 2.80  22 2.81
                            16 2.82
   7  0.876  0.457  0.420-  39 2.65  75 2.68   5 2.69   9 2.70  15 2.70  10 2.72  12 2.75  29 2.76
                            27 2.79
   8  0.374  0.960  0.415-  43 2.58  52 2.65  61 2.69   6 2.69  14 2.70  27 2.71  13 2.72  10 2.74
                            11 2.74
   9  0.872  0.214  0.414-  75 2.63  60 2.68   7 2.70  15 2.70  17 2.73   4 2.73   6 2.77  22 2.79
                            10 2.79
  10  0.127  0.213  0.416-  39 2.65  43 2.69  13 2.70   5 2.72   7 2.72   6 2.73   8 2.74  22 2.74
                             9 2.79
  11  0.625  0.959  0.417-  12 2.72  27 2.72   4 2.72  13 2.73   8 2.74   1 2.75  61 2.75  17 2.75
                            19 2.79
  12  0.873  0.710  0.420-  33 2.69   5 2.69  11 2.72  29 2.73  27 2.74   7 2.75  16 2.76   4 2.78
                             1 2.84
  13  0.376  0.208  0.418-  10 2.70  43 2.71   8 2.72  11 2.73  17 2.75  25 2.76  19 2.77   3 2.77
                             5 2.82
  14  0.379  0.711  0.417-  44 2.63  27 2.67  52 2.68   8 2.70  15 2.72  30 2.75   6 2.76  25 2.77
                            16 2.79
  15  0.627  0.462  0.417-  81 1.83  44 2.64  75 2.66   7 2.70   9 2.70  27 2.71  14 2.72  18 2.73
                            17 2.78  25 2.79
  16  0.127  0.706  0.421-  33 2.66   5 2.70  25 2.70  12 2.76  30 2.78  14 2.79   6 2.82   4 2.83
                             2 2.93
  17  0.625  0.210  0.416-  81 1.84   4 2.69  18 2.72   9 2.73  60 2.74  25 2.74  13 2.75  11 2.75
                            15 2.78  19 2.82
  18  0.547  0.377  0.315-  67 2.55  68 2.61  26 2.67  44 2.71  60 2.71  17 2.72  75 2.73  15 2.73
                            25 2.81  30 2.81  19 2.84   3 2.93
  19  0.534  0.125  0.312-  80 2.54  68 2.56  59 2.58  43 2.64   1 2.73  61 2.74  13 2.77  11 2.79
                             3 2.79  17 2.82  18 2.84  60 2.86
  20  0.552  0.123  0.049-  37 2.55  57 2.55  48 2.56  62 2.66  34 2.75  63 2.75  56 2.76  47 2.76
                            45 2.89
  21  0.118  0.455  0.128-  47 2.53  36 2.53  40 2.54  42 2.61  64 2.66  69 2.68  70 2.73  31 2.73
                            50 2.74  57 2.80  58 2.90  74 2.90
  22  0.046  0.135  0.312-  65 2.53  77 2.56  55 2.56  43 2.67  39 2.68  10 2.74  75 2.76   9 2.79
                             2 2.80  60 2.80   6 2.81  52 2.82  31 3.38
  23  0.033  0.135  0.038-  70 2.57  41 2.58  40 2.62  76 2.65  62 2.69  24 2.71  45 2.75  35 2.89
                            53 2.94
  24  0.132  0.957  0.134-  79 2.51  77 2.56  35 2.57  53 2.57  55 2.60  70 2.65  58 2.70  23 2.71
                            73 2.72  38 2.73  66 2.80  41 2.85
  25  0.374  0.460  0.419-  81 1.87  16 2.70  17 2.74  13 2.76  14 2.77   5 2.78  15 2.79  30 2.79
                             3 2.81  18 2.81
  26  0.457  0.549  0.219-  73 2.51  74 2.53  51 2.55  30 2.65  79 2.65  18 2.67  44 2.70  78 2.73
                            32 2.73  68 2.78  64 2.78  67 2.84
  27  0.622  0.712  0.418-  44 2.66  14 2.67  61 2.70  15 2.71   8 2.71  11 2.72  12 2.74  29 2.77
                             7 2.79
  28  0.956  0.783  0.218-  58 2.56  50 2.56  66 2.59   1 2.64  42 2.65  49 2.67  33 2.67   2 2.70
                            64 2.72  59 2.87  79 3.01  77 3.01
  29  0.798  0.623  0.317-  42 2.55  39 2.61  32 2.63  49 2.65  75 2.66  33 2.72  12 2.73   1 2.75
                             7 2.76  27 2.77  61 2.77  44 2.79
  30  0.288  0.631  0.315-  79 2.55  64 2.61  26 2.65  33 2.71  52 2.71   2 2.72  14 2.75  44 2.76
                            16 2.78  25 2.79   3 2.81  18 2.81
  31  0.199  0.277  0.225-  70 2.49  43 2.57  57 2.58  55 2.62  65 2.62  39 2.63   3 2.65  21 2.73
                            42 2.78  80 2.81  64 2.93  68 2.93  22 3.38
  32  0.705  0.552  0.221-  54 2.54  69 2.56  51 2.58  29 2.63  49 2.63  44 2.66  78 2.67  75 2.68
                            42 2.70  65 2.70  26 2.73  67 2.77
  33  0.041  0.633  0.321-  16 2.66  28 2.67  64 2.69  12 2.69   5 2.70   3 2.71  30 2.71  42 2.72
                            29 2.72   2 2.74   1 2.75  39 2.76
  34  0.792  0.862  0.051-  50 2.38  48 2.46  66 2.53  63 2.62  36 2.62  71 2.63  20 2.75  35 2.86
                            62 2.92
  35  0.053  0.862  0.044-  36 2.47  58 2.55  24 2.57  66 2.62  72 2.68  53 2.84  34 2.86  62 2.89
                            23 2.89
  36  0.046  0.641  0.046-  35 2.47  21 2.53  58 2.56  50 2.62  34 2.62  72 2.68  47 2.85  71 2.92
                            40 3.01
  37  0.628  0.229  0.134-  67 2.50  56 2.50  51 2.50  59 2.55  20 2.55  68 2.55  74 2.56  62 2.58
                            41 2.59  66 2.75  57 2.89
  38  0.383  0.953  0.133-  53 2.44  45 2.46  80 2.47  78 2.53  55 2.54  63 2.56  73 2.59  48 2.60
                            54 2.61  24 2.73  57 2.74  70 2.78
  39  0.035  0.384  0.321-  29 2.61  42 2.62  31 2.63  10 2.65   7 2.65   3 2.66  75 2.66   5 2.67
                            22 2.68  65 2.69  33 2.76  43 2.92
  40  0.016  0.382  0.041-  69 2.39  76 2.54  21 2.54  71 2.59  23 2.62  70 2.63  45 2.98  36 3.01

  41  0.870  0.217  0.132-  76 2.44  77 2.48  67 2.52  65 2.53  62 2.56  23 2.58  37 2.59  69 2.64
                            51 2.65  66 2.70  70 2.71  24 2.85
  42  0.956  0.541  0.224-  50 2.51  29 2.55  69 2.60  21 2.61  39 2.62  28 2.65  65 2.67  32 2.70
                            33 2.72  49 2.72  64 2.75  31 2.78
  43  0.299  0.115  0.319-  55 2.51  31 2.57   8 2.58  80 2.59  19 2.64  52 2.66  61 2.66  22 2.67
                            10 2.69  13 2.71   3 2.80  39 2.92
  44  0.542  0.627  0.320-  78 2.62  14 2.63  15 2.64  27 2.66  32 2.66  61 2.68  52 2.68  26 2.70
                            18 2.71  75 2.71  30 2.76  29 2.79
  45  0.293  0.115  0.045-  38 2.46  70 2.49  53 2.58  57 2.62  63 2.72  23 2.75  20 2.89  47 2.98
                            40 2.98
  46  0.552  0.623  0.048-  51 2.40  54 2.41  73 2.41  71 2.59  76 2.68  53 2.72  63 2.73  56 2.74
                            72 2.78
  47  0.306  0.380  0.047-  74 2.34  21 2.53  56 2.59  57 2.60  72 2.61  20 2.76  36 2.85  45 2.98

  48  0.624  0.945  0.136-  49 2.37  34 2.46  80 2.47  54 2.50  63 2.53  20 2.56  59 2.58  38 2.60
                            50 2.66  57 2.78  66 2.84
  49  0.708  0.790  0.221-  48 2.37  50 2.44  54 2.49   1 2.59  61 2.63  32 2.63  29 2.65  80 2.65
                            28 2.67  78 2.69  42 2.72  59 2.86
  50  0.861  0.697  0.132-  34 2.38  71 2.38  49 2.44  54 2.50  42 2.51  28 2.56  69 2.57  36 2.62
                            48 2.66  21 2.74
  51  0.628  0.458  0.130-  46 2.40  76 2.44  37 2.50  56 2.52  26 2.55  32 2.58  67 2.62  41 2.65
                            69 2.67  74 2.70  73 2.75  54 2.83
  52  0.298  0.873  0.317-  55 2.44  79 2.49  78 2.54   8 2.65  61 2.65  43 2.66  14 2.68  44 2.68
                            30 2.71   6 2.72   2 2.75  22 2.82
  53  0.306  0.873  0.045-  73 2.41  38 2.44  24 2.57  45 2.58  63 2.66  46 2.72  72 2.80  35 2.84
                            23 2.94
  54  0.623  0.718  0.131-  46 2.41  71 2.47  63 2.47  49 2.49  48 2.50  50 2.50  32 2.54  78 2.59
                            38 2.61  73 2.61  69 2.80  51 2.83
  55  0.230  0.024  0.228-  52 2.44  78 2.51  43 2.51  79 2.53  80 2.54  38 2.54  22 2.56  24 2.60
                            31 2.62  70 2.71  77 2.87
  56  0.543  0.378  0.040-  37 2.50  74 2.50  51 2.52  47 2.59  72 2.67  76 2.68  62 2.74  46 2.74
                            20 2.76
  57  0.377  0.206  0.137-  68 2.47  20 2.55  80 2.56  31 2.58  47 2.60  45 2.62  38 2.74  74 2.74
                            48 2.78  70 2.79  21 2.80  37 2.89
  58  0.148  0.703  0.137-  72 2.43  64 2.46  79 2.51  35 2.55  36 2.56  28 2.56  73 2.68  74 2.68
                            24 2.70  21 2.90
  59  0.704  0.053  0.221-  66 2.49  37 2.55  48 2.58  19 2.58  60 2.60   1 2.62  68 2.68  67 2.72
                            77 2.77  80 2.82  49 2.86  28 2.87
  60  0.794  0.128  0.315-  67 2.51  77 2.55  59 2.60   9 2.68  18 2.71   2 2.72  17 2.74   4 2.75
                             1 2.76  75 2.79  22 2.80  19 2.86
  61  0.541  0.872  0.316-  78 2.48  80 2.50  49 2.63  52 2.65  43 2.66  44 2.68   8 2.69  27 2.70
                            19 2.74   1 2.75  11 2.75  29 2.77
  62  0.792  0.128  0.041-  66 2.52  41 2.56  37 2.58  20 2.66  76 2.68  23 2.69  56 2.74  35 2.89
                            34 2.92
  63  0.548  0.875  0.041-  54 2.47  48 2.53  38 2.56  34 2.62  53 2.66  71 2.68  45 2.72  46 2.73
                            20 2.75
  64  0.208  0.539  0.223-  58 2.46   3 2.55  30 2.61  74 2.62  21 2.66  33 2.69  68 2.70  28 2.72
                            42 2.75  26 2.78  79 2.91  31 2.93
  65  0.948  0.303  0.223-  69 2.51  22 2.53  41 2.53  67 2.57  75 2.58  70 2.61  31 2.62  77 2.64
                            42 2.67  39 2.69  32 2.70
  66  0.870  0.971  0.133-  59 2.49  62 2.52  34 2.53  77 2.54  28 2.59  35 2.62  41 2.70  37 2.75
                            24 2.80  48 2.84
  67  0.718  0.294  0.226-  37 2.50  60 2.51  41 2.52  18 2.55  65 2.57  77 2.58  75 2.58  51 2.62
                            59 2.72  32 2.77  26 2.84
  68  0.457  0.296  0.222-  57 2.47  74 2.49  37 2.55  19 2.56  18 2.61   3 2.66  59 2.68  64 2.70
                            26 2.78  80 2.93  31 2.93
  69  0.872  0.457  0.130-  40 2.39  76 2.47  71 2.48  65 2.51  32 2.56  50 2.57  42 2.60  41 2.64
                            51 2.67  21 2.68  70 2.77  54 2.80
  70  0.124  0.203  0.132-  45 2.49  31 2.49  23 2.57  65 2.61  40 2.63  24 2.65  55 2.71  41 2.71
                            21 2.73  69 2.77  38 2.78  57 2.79
  71  0.787  0.625  0.044-  50 2.38  54 2.47  69 2.48  46 2.59  40 2.59  34 2.63  63 2.68  76 2.75
                            36 2.92
  72  0.299  0.621  0.048-  58 2.43  74 2.44  73 2.50  47 2.61  56 2.67  35 2.68  36 2.68  46 2.78
                            53 2.80
  73  0.386  0.716  0.131-  53 2.41  46 2.41  72 2.50  26 2.51  78 2.55  38 2.59  79 2.59  54 2.61
                            58 2.68  24 2.72  51 2.75  74 2.90
  74  0.385  0.452  0.131-  47 2.34  72 2.44  68 2.49  56 2.50  26 2.53  37 2.56  64 2.62  58 2.68
                            51 2.70  57 2.74  73 2.90  21 2.90
  75  0.793  0.383  0.319-  65 2.58  67 2.58   9 2.63  39 2.66  29 2.66  15 2.66   7 2.68  32 2.68
                            44 2.71  18 2.73  22 2.76  60 2.79
  76  0.789  0.373  0.044-  51 2.44  41 2.44  69 2.47  40 2.54  23 2.65  46 2.68  56 2.68  62 2.68
                            71 2.75
  77  0.954  0.059  0.221-  41 2.48  66 2.54  60 2.55  22 2.56  24 2.56  67 2.58   2 2.60  65 2.64
                            59 2.77  55 2.87  79 2.91  28 3.01
  78  0.461  0.796  0.226-  61 2.48  55 2.51  80 2.52  38 2.53  52 2.54  73 2.55  54 2.59  79 2.60
                            44 2.62  32 2.67  49 2.69  26 2.73
  79  0.222  0.797  0.225-  52 2.49  58 2.51  24 2.51  55 2.53  30 2.55   2 2.55  73 2.59  78 2.60
                            26 2.65  77 2.91  64 2.91  28 3.01
  80  0.461  0.026  0.224-  38 2.47  48 2.47  61 2.50  78 2.52  55 2.54  19 2.54  57 2.56  43 2.59
                            49 2.65  31 2.81  59 2.82  68 2.93
  81  0.547  0.376  0.459-  15 1.83  17 1.84  25 1.87
 
  LATTYP: Found a hexagonal cell.
 ALAT       =    10.9600000381
 C/A-ratio  =     2.0072992631
  
  Lattice vectors:
  
 A1 = (   5.4800000190,  -9.4916384585,   0.0000000000)
 A2 = ( -10.9600000381,   0.0000000000,   0.0000000000)
 A3 = (   0.0000000000,   0.0000000000, -22.0000000000)


Analysis of symmetry for initial positions (statically):
=====================================================================
 Subroutine PRICEL returns:
 Original cell was already a primitive cell.
 

 Routine SETGRP: Setting up the symmetry group for a 
 hexagonal supercell.


 Subroutine GETGRP returns: Found  1 space group operations
 (whereof  1 operations were pure point group operations)
 out of a pool of 24 trial point group operations.


The static configuration has the point symmetry C_1 .


Analysis of symmetry for dynamics (positions and initial velocities):
=====================================================================
 Subroutine PRICEL returns:
 Original cell was already a primitive cell.
 

 Routine SETGRP: Setting up the symmetry group for a 
 hexagonal supercell.


 Subroutine GETGRP returns: Found  1 space group operations
 (whereof  1 operations were pure point group operations)
 out of a pool of 24 trial point group operations.


The dynamic configuration has the point symmetry C_1 .


Analysis of constrained symmetry for selective dynamics:
=====================================================================
 Subroutine PRICEL returns:
 Original cell was already a primitive cell.
 

 Routine SETGRP: Setting up the symmetry group for a 
 hexagonal supercell.


 Subroutine GETGRP returns: Found  1 space group operations
 (whereof  1 operations were pure point group operations)
 out of a pool of 24 trial point group operations.


The constrained configuration has the point symmetry C_1 .


Analysis of structural, dynamic, and magnetic symmetry:
=====================================================================
 Subroutine PRICEL returns:
 Original cell was already a primitive cell.
 

 Routine SETGRP: Setting up the symmetry group for a 
 hexagonal supercell.


 Subroutine GETGRP returns: Found  1 space group operations
 (whereof  1 operations were pure point group operations)
 out of a pool of 24 trial point group operations.


The magnetic configuration has the point symmetry C_1 .


 Subroutine INISYM returns: Found  1 space group operations
 (whereof  1 operations are pure point group operations),
 and found     1 'primitive' translations

 
 
 KPOINTS: mesh auto                               

Automatic generation of k-mesh.
Space group operators:
 irot       det(A)        alpha          n_x          n_y          n_z        tau_x        tau_y        tau_z
    1     1.000000     0.000000     1.000000     0.000000     0.000000     0.000000     0.000000     0.000000
 
 Subroutine IBZKPT returns following result:
 ===========================================
 
 Found      4 irreducible k-points:
 
 Following reciprocal coordinates:
            Coordinates               Weight
  0.000000  0.000000  0.000000      1.000000
  0.500000 -0.000000  0.000000      1.000000
  0.000000  0.500000  0.000000      1.000000
  0.500000  0.500000  0.000000      1.000000
 
 Following cartesian coordinates:
            Coordinates               Weight
  0.000000  0.000000  0.000000      1.000000
  0.045620 -0.026339  0.000000      1.000000
  0.000000  0.052678  0.000000      1.000000
  0.045620  0.026339  0.000000      1.000000
 


--------------------------------------------------------------------------------------------------------




 Dimension of arrays:
   k-points           NKPTS =      4   k-points in BZ     NKDIM =      4   number of bands    NBANDS=    588
   number of dos      NEDOS =    301   number of ions     NIONS =     81
   non local maximal  LDIM  =      6   non local SUM 2l+1 LMDIM =     18
   total plane-waves  NPLWV = ******
   max r-space proj   IRMAX =   7247   max aug-charges    IRDMAX=  31567
   dimension x,y,z NGX =    84 NGY =   84 NGZ =  168
   dimension x,y,z NGXF=   168 NGYF=  168 NGZF=  336
   support grid    NGXF=   168 NGYF=  168 NGZF=  336
   ions per type =              32  13  10  13  12   1
   NGX,Y,Z   is equivalent  to a cutoff of  12.74, 12.74, 12.70 a.u.
   NGXF,Y,Z  is equivalent  to a cutoff of  25.48, 25.48, 25.39 a.u.

 SYSTEM =  Pt111                                   
 POSCAR =  10.96                                   

 Startparameter for this run:
   NWRITE =      2    write-flag & timer
   PREC   = accura    normal or accurate (medium, high low for compatibility)
   ISTART =      0    job   : 0-new  1-cont  2-samecut
   ICHARG =      2    charge: 1-file 2-atom 10-const
   ISPIN  =      2    spin polarized calculation?
   LNONCOLLINEAR =      F non collinear calculations
   LSORBIT =      F    spin-orbit coupling
   INIWAV =      1    electr: 0-lowe 1-rand  2-diag
   LASPH  =      F    aspherical Exc in radial PAW
   METAGGA=      F    non-selfconsistent MetaGGA calc.

 Electronic Relaxation 1
   ENCUT  =  550.0 eV  40.42 Ry    6.36 a.u.  20.96 20.96 42.07*2*pi/ulx,y,z
   ENINI  =  550.0     initial cutoff
   ENAUG  =  587.0 eV  augmentation charge cutoff
   NELM   =    200;   NELMIN=  2; NELMDL= -5     # of ELM steps 
   EDIFF  = 0.1E-04   stopping-criterion for ELM
   LREAL  =      T    real-space projection
   NLSPLINE    = F    spline interpolate recip. space projectors
   LCOMPAT=      F    compatible to vasp.4.4
   GGA_COMPAT  = T    GGA compatible to vasp.4.4-vasp.4.6
   LMAXPAW     = -100 max onsite density
   LMAXMIX     =    2 max onsite mixed and CHGCAR
   VOSKOWN=      0    Vosko Wilk Nusair interpolation
   ROPT   =   -0.00025  -0.00025  -0.00025  -0.00025
   ROPT   =   -0.00025  -0.00025
 Ionic relaxation
   EDIFFG = -.5E-01   stopping-criterion for IOM
   NSW    =    300    number of steps for IOM
   NBLOCK =      1;   KBLOCK =    300    inner block; outer block 
   IBRION =      2    ionic relax: 0-MD 1-quasi-New 2-CG
   NFREE  =      1    steps in history (QN), initial steepest desc. (CG)
   ISIF   =      2    stress and relaxation
   IWAVPR =     11    prediction:  0-non 1-charg 2-wave 3-comb
   ISYM   =      2    0-nonsym 1-usesym 2-fastsym
   LCORR  =      T    Harris-Foulkes like correction to forces

   POTIM  = 0.5000    time-step for ionic-motion
   TEIN   =    0.0    initial temperature
   TEBEG  =    0.0;   TEEND  =   0.0 temperature during run
   SMASS  =  -3.00    Nose mass-parameter (am)
   estimated Nose-frequenzy (Omega)   =  0.10E-29 period in steps =****** mass=  -0.275E-26a.u.
   SCALEE = 1.0000    scale energy and forces
   NPACO  =    256;   APACO  = 16.0  distance and # of slots for P.C.
   PSTRESS=    0.0 pullay stress

  Mass of Ions in am
   POMASS = 195.08 55.85 58.93 63.55 58.69  1.00
  Ionic Valenz
   ZVAL   =  10.00  8.00  9.00 11.00 10.00  1.00
  Atomic Wigner-Seitz radii
   RWIGS  =  -1.00 -1.00 -1.00 -1.00 -1.00 -1.00
  virtual crystal weights 
   VCA    =   1.00  1.00  1.00  1.00  1.00  1.00
   NELECT =     778.0000    total number of electrons
   NUPDOWN=      -1.0000    fix difference up-down

 DOS related values:
   EMIN   =  10.00;   EMAX   =-10.00  energy-range for DOS
   EFERMI =   0.00
   ISMEAR =     1;   SIGMA  =   0.10  broadening in eV -4-tet -1-fermi 0-gaus

 Electronic relaxation 2 (details)
   IALGO  =     68    algorithm
   LDIAG  =      T    sub-space diagonalisation (order eigenvalues)
   LSUBROT=      F    optimize rotation matrix (better conditioning)
   TURBO    =      0    0=normal 1=particle mesh
   IRESTART =      0    0=no restart 2=restart with 2 vectors
   NREBOOT  =      0    no. of reboots
   NMIN     =      0    reboot dimension
   EREF     =   0.00    reference energy to select bands
   IMIX   =      4    mixing-type and parameters
     AMIX     =   0.40;   BMIX     =  1.00
     AMIX_MAG =   1.60;   BMIX_MAG =  1.00
     AMIN     =   0.10
     WC   =   100.;   INIMIX=   1;  MIXPRE=   1;  MAXMIX= -45

 Intra band minimization:
   WEIMIN = 0.0010     energy-eigenvalue tresh-hold
   EBREAK =  0.43E-08  absolut break condition
   DEPER  =   0.30     relativ break condition  

   TIME   =   0.40     timestep for ELM

  volume/ion in A,a.u.               =      28.25       190.67
  Fermi-wavevector in a.u.,A,eV,Ry     =   1.142554  2.159113 17.761434  1.305429
  Thomas-Fermi vector in A             =   2.279251
 
 Write flags
   LWAVE        =      F    write WAVECAR
   LDOWNSAMPLE  =      F    k-point downsampling of WAVECAR
   LCHARG       =      F    write CHGCAR
   LVTOT        =      F    write LOCPOT, total local potential
   LVHAR        =      F    write LOCPOT, Hartree potential only
   LELF         =      F    write electronic localiz. function (ELF)
   LORBIT       =      0    0 simple, 1 ext, 2 COOP (PROOUT), +10 PAW based schemes


 Dipole corrections
   LMONO  =      F    monopole corrections only (constant potential shift)
   LDIPOL =      F    correct potential (dipole corrections)
   IDIPOL =      0    1-x, 2-y, 3-z, 4-all directions 
   EPSILON=  1.0000000 bulk dielectric constant

 Exchange correlation treatment:
   GGA     =    --    GGA type
   LEXCH   =     8    internal setting for exchange type
   VOSKOWN=      0    Vosko Wilk Nusair interpolation
   LHFCALC =     F    Hartree Fock is set to
   LHFONE  =     F    Hartree Fock one center treatment
   AEXX    =    0.0000 exact exchange contribution

 Linear response parameters
   LEPSILON=     F    determine dielectric tensor
   LRPA    =     F    only Hartree local field effects (RPA)
   LNABLA  =     F    use nabla operator in PAW spheres
   LVEL    =     F    velocity operator in full k-point grid
   LINTERFAST=   F  fast interpolation
   KINTER  =     0    interpolate to denser k-point grid
   CSHIFT  =0.1000    complex shift for real part using Kramers Kronig
   OMEGAMAX=  -1.0    maximum frequency
   DEG_THRESHOLD= 0.2000000E-02 threshold for treating states as degnerate
   RTIME   =   -0.100 relaxation time in fs
  (WPLASMAI=    0.000 imaginary part of plasma frequency in eV, 0.658/RTIME)
   DFIELD  = 0.0000000 0.0000000 0.0000000 field for delta impulse in time
 
 Orbital magnetization related:
   ORBITALMAG=     F  switch on orbital magnetization
   LCHIMAG   =     F  perturbation theory with respect to B field
   DQ        =  0.001000  dq finite difference perturbation B field
   LLRAUG    =     F  two centre corrections for induced B field



--------------------------------------------------------------------------------------------------------


 conjugate gradient relaxation of ions
   using selective dynamics as specified on POSCAR
 charge density and potential will be updated during run
 spin polarized calculation
 RMM-DIIS sequential band-by-band and
  variant of blocked Davidson during initial phase
 perform sub-space diagonalisation
    before iterative eigenvector-optimisation
 modified Broyden-mixing scheme, WC =      100.0
 initial mixing is a Kerker type mixing with AMIX =  0.4000 and BMIX =      1.0000
 Hartree-type preconditioning will be used
 using additional bands          199
 real space projection scheme for non local part
 use partial core corrections
 calculate Harris-corrections to forces 
   (improved forces if not selfconsistent)
 use gradient corrections 
 use of overlap-Matrix (Vanderbilt PP)
 Methfessel and Paxton  Order N= 1 SIGMA  =   0.10


--------------------------------------------------------------------------------------------------------


  energy-cutoff  :      550.00
  volume of cell :     2288.62
      direct lattice vectors                 reciprocal lattice vectors
    10.960000038  0.000000000  0.000000000     0.091240876 -0.052677944  0.000000000
     5.480000019  9.491638459  0.000000000     0.000000000  0.105355888  0.000000000
     0.000000000  0.000000000 22.000000000     0.000000000  0.000000000  0.045454545

  length of vectors
    10.960000038 10.960000038 22.000000000     0.105355888  0.105355888  0.045454545


 
 k-points in units of 2pi/SCALE and weight: mesh auto                               
   0.00000000  0.00000000  0.00000000       0.250
   0.04562044 -0.02633897  0.00000000       0.250
   0.00000000  0.05267794  0.00000000       0.250
   0.04562044  0.02633897  0.00000000       0.250
 
 k-points in reciprocal lattice and weights: mesh auto                               
   0.00000000  0.00000000  0.00000000       0.250
   0.50000000 -0.00000000  0.00000000       0.250
   0.00000000  0.50000000  0.00000000       0.250
   0.50000000  0.50000000  0.00000000       0.250
 
 position of ions in fractional coordinates (direct lattice) 
   0.78716449  0.87970585  0.31344225
   0.04319662  0.88111032  0.31121756
   0.27937409  0.37942210  0.31615760
   0.87038591  0.96519178  0.41779086
   0.11841422  0.46450531  0.41972217
   0.12704862  0.96312024  0.41612172
   0.87619266  0.45738127  0.42012405
   0.37433097  0.95980067  0.41476627
   0.87178949  0.21381248  0.41377741
   0.12696038  0.21253126  0.41607024
   0.62492667  0.95899808  0.41686898
   0.87286637  0.71014246  0.41962858
   0.37573352  0.20751009  0.41776323
   0.37876822  0.71085574  0.41662699
   0.62732869  0.46249768  0.41671967
   0.12713310  0.70603496  0.42099364
   0.62490615  0.21035146  0.41556533
   0.54747838  0.37696852  0.31506562
   0.53437436  0.12489005  0.31235717
   0.55221254  0.12299804  0.04920078
   0.11794475  0.45537765  0.12792996
   0.04637075  0.13453050  0.31192522
   0.03315463  0.13494865  0.03774463
   0.13163928  0.95747593  0.13402787
   0.37418077  0.46029497  0.41863696
   0.45666635  0.54926488  0.21932677
   0.62180385  0.71202303  0.41764148
   0.95580826  0.78314309  0.21838922
   0.79763967  0.62339900  0.31729172
   0.28848525  0.63107281  0.31539353
   0.19867921  0.27716880  0.22548113
   0.70458275  0.55232899  0.22136195
   0.04069391  0.63336152  0.32125108
   0.79203979  0.86196241  0.05119480
   0.05269812  0.86242103  0.04447354
   0.04570358  0.64080367  0.04585962
   0.62802628  0.22947321  0.13379689
   0.38250601  0.95344831  0.13273420
   0.03504671  0.38399698  0.32130802
   0.01619296  0.38187648  0.04120256
   0.87042992  0.21689071  0.13178577
   0.95634044  0.54143896  0.22370788
   0.29860935  0.11526463  0.31880519
   0.54166155  0.62711165  0.31984649
   0.29293662  0.11522657  0.04538329
   0.55201031  0.62334596  0.04788006
   0.30575695  0.38026450  0.04684287
   0.62395646  0.94531321  0.13639314
   0.70835970  0.79024108  0.22101343
   0.86054327  0.69699979  0.13214075
   0.62808223  0.45768459  0.13007643
   0.29803820  0.87315112  0.31715338
   0.30626685  0.87310724  0.04455942
   0.62261259  0.71817459  0.13071675
   0.23046238  0.02423308  0.22760230
   0.54282134  0.37838567  0.04018734
   0.37726985  0.20560459  0.13740413
   0.14805913  0.70314840  0.13720855
   0.70359996  0.05311632  0.22072131
   0.79392109  0.12835127  0.31461420
   0.54073425  0.87175520  0.31606711
   0.79165663  0.12783172  0.04067172
   0.54773916  0.87450772  0.04071654
   0.20818644  0.53936397  0.22290589
   0.94795453  0.30258048  0.22287095
   0.86952847  0.97069320  0.13305323
   0.71787264  0.29369263  0.22560096
   0.45652573  0.29586544  0.22240538
   0.87248998  0.45670095  0.13030569
   0.12436401  0.20322203  0.13195506
   0.78737920  0.62472875  0.04403860
   0.29932384  0.62113320  0.04802460
   0.38565111  0.71595064  0.13079951
   0.38471564  0.45153870  0.13110399
   0.79298767  0.38323269  0.31895592
   0.78933583  0.37328592  0.04383272
   0.95366904  0.05900888  0.22133645
   0.46069234  0.79603599  0.22564734
   0.22235697  0.79746984  0.22493899
   0.46083026  0.02618123  0.22414879
   0.54732300  0.37646405  0.45881112
 
 position of ions in cartesian coordinates  (Angst):
  13.44811096  8.34984988  6.89572954
   5.30191957  8.36318061  6.84678641
   5.14117321  3.60133740  6.95546711
  14.82868056  9.16125145  9.19139899
   3.84330900  4.40891644  9.23388780
   6.67035186  9.14158915  9.15467785
  12.10952093  4.34129761  9.24272919
   9.36237514  9.11008095  9.12485788
  10.72650525  2.02943079  9.10310296
   2.55615710  2.01726988  9.15354523
  12.10450585  9.10246305  9.17111752
  13.45819613  6.74041551  9.23182884
   5.25519469  1.96961077  9.19079099
   8.04678914  6.74718569  9.16579376
   9.41000971  4.38986078  9.16783266
   5.26245034  6.70142861  9.26186011
   8.00169741  1.99658005  9.14243719
   8.06615053  3.57804893  6.93144356
   6.54114050  1.18541117  6.87185763
   6.72627875  1.16745296  1.08241724
   3.78814394  4.32227997  2.81445913
   1.24545052  1.27691486  6.86235494
   1.10289336  1.28088383  0.83038189
   6.68973465  9.08801532  2.94861321
   6.62343770  4.36895340  9.21001319
   8.01503470  5.21342362  4.82518885
  10.71685646  6.75826521  9.18811253
  14.76728267  7.43331103  4.80456282
  12.15835732  5.91707794  6.98041784
   6.62007737  5.98991496  6.93865760
   3.69640915  2.63078603  4.96058484
  10.74898984  5.24250712  4.86996286
   3.91682634  6.01163853  7.06752370
  13.40431018  8.18143554  1.12628553
   5.30363869  8.18578859  0.97841786
   4.01251535  6.08227672  1.00891159
   8.14068118  2.17807670  2.94353159
   9.41716268  9.04978665  2.92015232
   2.48841543  3.64476049  7.06877639
   2.27015798  3.62463351  0.90645624
  10.72847306  2.05864821  2.89928695
  13.44857675  5.13914286  4.92157340
   3.90440865  1.09405020  7.01371425
   9.37318249  5.95231704  7.03662277
   3.84202698  1.09368897  0.99843245
   9.46596888  5.91657450  1.05336135
   5.43494565  3.60933318  1.03054316
  12.01887918  8.97257121  3.00064916
  12.09414346  7.50068258  4.86229550
  13.25111312  6.61567006  2.90709642
   9.39189277  4.34417664  2.86168140
   8.05136686  8.28763475  6.97737438
   8.14131234  8.28721821  0.98030720
  10.75943073  6.81665356  2.87576846
   2.65866499  0.23001167  5.00725050
   8.02287536  3.59149993  0.88412147
   5.26159074  1.95152445  3.02289083
   5.47598127  6.67403038  3.01858800
   8.00253296  0.50416089  4.85586878
   9.40474020  1.21826387  6.92151242
  10.70366591  8.27438522  6.95347636
   9.37707450  1.21333249  0.89477773
  10.79552355  8.30051111  0.89576394
   5.23743796  5.11944775  4.90392949
  12.04772275  2.87198450  4.90316101
  14.84943082  9.21346889  2.92717099
   9.47731985  2.78762430  4.96322106
   6.62486460  2.80824781  4.89291845
  12.06521145  4.33484034  2.86672527
   2.47668628  1.92891008  2.90301128
  12.05318968  5.92969947  0.96884915
   6.68439923  5.89557174  1.05654112
   8.15014567  6.79554461  2.87758921
   6.69091550  4.28584207  2.88428777
  10.79126002  3.63750618  7.01703021
  10.69672757  3.54309501  0.96431976
  10.77558135  0.56009099  4.86940190
   9.41146532  7.55568579  4.96424156
   6.80716718  7.56929543  4.94865781
   5.19417280  0.24850280  4.93127340
   8.06168308  3.57326062 10.09384469
 


--------------------------------------------------------------------------------------------------------


 k-point  1 :   0.0000 0.0000 0.0000  plane waves:   66973
 k-point  2 :   0.5000-0.0000 0.0000  plane waves:   67000
 k-point  3 :   0.0000 0.5000 0.0000  plane waves:   67000
 k-point  4 :   0.5000 0.5000 0.0000  plane waves:   67000

 maximum and minimum number of plane-waves per node :     16772    16723

 maximum number of plane-waves:     67000
 maximum index in each direction: 
   IXMAX=   20   IYMAX=   20   IZMAX=   42
   IXMIN=  -21   IYMIN=  -21   IZMIN=  -42


 real space projection operators:
  total allocation   :      72239.71 KBytes
  max/ min on nodes  :      18063.51      18052.50


 parallel 3D FFT for wavefunctions:
    minimum data exchange during FFTs selected (reduces bandwidth)
 parallel 3D FFT for charge:
    minimum data exchange during FFTs selected (reduces bandwidth)


 total amount of memory used by VASP MPI-rank0   235710. kBytes
=======================================================================

   base      :      30000. kBytes
   nonlr-proj:      32179. kBytes
   fftplans  :      16144. kBytes
   grid      :      49182. kBytes
   one-center:        653. kBytes
   wavefun   :     107552. kBytes
 
     INWAV:  cpu time    0.0000: real time    0.0000
 Broyden mixing: mesh for mixing (old mesh)
   NGX = 41   NGY = 41   NGZ = 85
  (NGX  =168   NGY  =168   NGZ  =336)
  gives a total of 142885 points

 initial charge density was supplied:
 charge density of overlapping atoms calculated
 number of electron     778.0000000 magnetization     231.0000000
 keeping initial charge density in first step


--------------------------------------------------------------------------------------------------------


 Maximum index for non-local projection operator         1758
 Maximum index for augmentation-charges         1359 (set IRDMAX)


--------------------------------------------------------------------------------------------------------


 First call to EWALD:  gamma=   0.134
 Maximum number of real-space cells 4x 4x 2
 Maximum number of reciprocal cells 2x 2x 4

    FEWALD:  cpu time    0.0051: real time    0.0058


--------------------------------------- Iteration      1(   1)  ---------------------------------------


    POTLOK:  cpu time    0.4123: real time    0.4289
    SETDIJ:  cpu time    0.0437: real time    0.0512
     EDDAV:  cpu time   62.7553: real time   63.0211
       DOS:  cpu time    0.0039: real time    0.0231
    --------------------------------------------
      LOOP:  cpu time   63.2154: real time   63.5245

 eigenvalue-minimisations  :  9408
 total energy-change (2. order) : 0.7655547E+04  (-0.3284555E+05)
 number of electron     778.0000000 magnetization     231.0000000
 augmentation part      778.0000000 magnetization     231.0000000

 Free energy of the ion-electron system (eV)
  ---------------------------------------------------
  alpha Z        PSCENC =      2078.51929011
  Ewald energy   TEWEN  =    220273.11531519
  -Hartree energ DENC   =   -292070.81908015
  -exchange      EXHF   =         0.00000000
  -V(xc)+E(xc)   XCENC  =      1376.13143073
  PAW double counting   =     64136.80006862   -66038.70876209
  entropy T*S    EENTRO =         0.00261510
  eigenvalues    EBANDS =      7681.85135434
  atomic energy  EATOM  =     70218.65458108
  Solvation  Ediel_sol  =         0.00000000
  ---------------------------------------------------
  free energy    TOTEN  =      7655.54681293 eV

  energy without entropy =     7655.54419783  energy(sigma->0) =     7655.54594123


--------------------------------------------------------------------------------------------------------




--------------------------------------- Iteration      1(   2)  ---------------------------------------


     EDDAV:  cpu time   63.0002: real time   63.2019
       DOS:  cpu time    0.0026: real time    0.0027
    --------------------------------------------
      LOOP:  cpu time   63.0027: real time   63.2046

 eigenvalue-minimisations  :  9408
 total energy-change (2. order) :-0.6883164E+04  (-0.6171962E+04)
 number of electron     778.0000000 magnetization     231.0000000
 augmentation part      778.0000000 magnetization     231.0000000

 Free energy of the ion-electron system (eV)
  ---------------------------------------------------
  alpha Z        PSCENC =      2078.51929011
  Ewald energy   TEWEN  =    220273.11531519
  -Hartree energ DENC   =   -292070.81908015
  -exchange      EXHF   =         0.00000000
  -V(xc)+E(xc)   XCENC  =      1376.13143073
  PAW double counting   =     64136.80006862   -66038.70876209
  entropy T*S    EENTRO =        -0.00388495
  eigenvalues    EBANDS =       798.69344768
  atomic energy  EATOM  =     70218.65458108
  Solvation  Ediel_sol  =         0.00000000
  ---------------------------------------------------
  free energy    TOTEN  =       772.38240622 eV

  energy without entropy =      772.38629117  energy(sigma->0) =      772.38370120


--------------------------------------------------------------------------------------------------------




--------------------------------------- Iteration      1(   3)  ---------------------------------------


     EDDAV:  cpu time   62.9704: real time   63.1332
       DOS:  cpu time    0.0028: real time    0.0030
    --------------------------------------------
      LOOP:  cpu time   62.9732: real time   63.1363

 eigenvalue-minimisations  :  9408
 total energy-change (2. order) :-0.1150502E+04  (-0.9326996E+03)
 number of electron     778.0000000 magnetization     231.0000000
 augmentation part      778.0000000 magnetization     231.0000000

 Free energy of the ion-electron system (eV)
  ---------------------------------------------------
  alpha Z        PSCENC =      2078.51929011
  Ewald energy   TEWEN  =    220273.11531519
  -Hartree energ DENC   =   -292070.81908015
  -exchange      EXHF   =         0.00000000
  -V(xc)+E(xc)   XCENC  =      1376.13143073
  PAW double counting   =     64136.80006862   -66038.70876209
  entropy T*S    EENTRO =         0.01063555
  eigenvalues    EBANDS =      -351.82312972
  atomic energy  EATOM  =     70218.65458108
  Solvation  Ediel_sol  =         0.00000000
  ---------------------------------------------------
  free energy    TOTEN  =      -378.11965068 eV

  energy without entropy =     -378.13028624  energy(sigma->0) =     -378.12319587


--------------------------------------------------------------------------------------------------------




--------------------------------------- Iteration      1(   4)  ---------------------------------------


     EDDAV:  cpu time   75.6060: real time   75.8553
       DOS:  cpu time    0.0029: real time    0.0215
    --------------------------------------------
      LOOP:  cpu time   75.6089: real time   75.8768

 eigenvalue-minimisations  : 11940
 total energy-change (2. order) :-0.1137468E+03  (-0.1036334E+03)
 number of electron     778.0000000 magnetization     231.0000000
 augmentation part      778.0000000 magnetization     231.0000000

 Free energy of the ion-electron system (eV)
  ---------------------------------------------------
  alpha Z        PSCENC =      2078.51929011
  Ewald energy   TEWEN  =    220273.11531519
  -Hartree energ DENC   =   -292070.81908015
  -exchange      EXHF   =         0.00000000
  -V(xc)+E(xc)   XCENC  =      1376.13143073
  PAW double counting   =     64136.80006862   -66038.70876209
  entropy T*S    EENTRO =        -0.00555445
  eigenvalues    EBANDS =      -465.55371635
  atomic energy  EATOM  =     70218.65458108
  Solvation  Ediel_sol  =         0.00000000
  ---------------------------------------------------
  free energy    TOTEN  =      -491.86642731 eV

  energy without entropy =     -491.86087286  energy(sigma->0) =     -491.86457583


--------------------------------------------------------------------------------------------------------




--------------------------------------- Iteration      1(   5)  ---------------------------------------


     EDDAV:  cpu time   71.7775: real time   72.0016
       DOS:  cpu time    0.0031: real time    0.0271
    CHARGE:  cpu time    3.9671: real time    3.9898
    MIXING:  cpu time    0.0121: real time    0.0178
    --------------------------------------------
      LOOP:  cpu time   75.7598: real time   76.0363

 eigenvalue-minimisations  : 11196
 total energy-change (2. order) :-0.4355781E+01  (-0.4317537E+01)
 number of electron     778.0000019 magnetization     216.7359565
 augmentation part      335.2449536 magnetization     183.5905828

 Broyden mixing:
  rms(total) = 0.11333E+02    rms(broyden)= 0.11333E+02
  rms(prec ) = 0.11715E+02
  weight for this iteration     100.00

 Free energy of the ion-electron system (eV)
  ---------------------------------------------------
  alpha Z        PSCENC =      2078.51929011
  Ewald energy   TEWEN  =    220273.11531519
  -Hartree energ DENC   =   -292070.81908015
  -exchange      EXHF   =         0.00000000
  -V(xc)+E(xc)   XCENC  =      1376.13143073
  PAW double counting   =     64136.80006862   -66038.70876209
  entropy T*S    EENTRO =        -0.00494808
  eigenvalues    EBANDS =      -469.91010385
  atomic energy  EATOM  =     70218.65458108
  Solvation  Ediel_sol  =         0.00000000
  ---------------------------------------------------
  free energy    TOTEN  =      -496.22220844 eV

  energy without entropy =     -496.21726036  energy(sigma->0) =     -496.22055908


--------------------------------------------------------------------------------------------------------




--------------------------------------- Iteration      1(   6)  ---------------------------------------


    POTLOK:  cpu time    0.3834: real time    0.4308
    SETDIJ:  cpu time    0.0336: real time    0.0339
    EDDIAG:  cpu time   11.5238: real time   11.5754
  RMM-DIIS:  cpu time   38.0385: real time   38.2036
    ORTHCH:  cpu time    1.3793: real time    1.3844
       DOS:  cpu time    0.0024: real time    0.0024
    CHARGE:  cpu time    3.8770: real time    3.8894
    MIXING:  cpu time    0.0110: real time    0.0280
    --------------------------------------------
      LOOP:  cpu time   55.2490: real time   55.5479

 eigenvalue-minimisations  :  9647
 total energy-change (2. order) :-0.2597540E+03  (-0.1014214E+03)
 number of electron     778.0000022 magnetization     213.1530637
 augmentation part      407.4896373 magnetization     178.9743225

 Broyden mixing:
  rms(total) = 0.21369E+02    rms(broyden)= 0.21369E+02
  rms(prec ) = 0.28283E+02
  weight for this iteration     100.00

 eigenvalues of (default mixing * dielectric matrix)
  average eigenvalue GAMMA=   0.1924
  0.1924

 Free energy of the ion-electron system (eV)
  ---------------------------------------------------
  alpha Z        PSCENC =      2078.51929011
  Ewald energy   TEWEN  =    220273.11531519
  -Hartree energ DENC   =   -290467.37286911
  -exchange      EXHF   =         0.00000000
  -V(xc)+E(xc)   XCENC  =      1331.49005323
  PAW double counting   =     68481.85815071   -70159.32233384
  entropy T*S    EENTRO =         0.00867118
  eigenvalues    EBANDS =     -2512.92710718
  atomic energy  EATOM  =     70218.65458108
  Solvation  Ediel_sol  =         0.00000000
  ---------------------------------------------------
  free energy    TOTEN  =      -755.97624864 eV

  energy without entropy =     -755.98491982  energy(sigma->0) =     -755.97913903


--------------------------------------------------------------------------------------------------------




--------------------------------------- Iteration      1(   7)  ---------------------------------------


    POTLOK:  cpu time    0.3829: real time    0.3900
    SETDIJ:  cpu time    0.0333: real time    0.0334
    EDDIAG:  cpu time   11.4317: real time   11.5514
  RMM-DIIS:  cpu time   37.3499: real time   37.4417
    ORTHCH:  cpu time    1.3891: real time    1.3926
       DOS:  cpu time    0.0025: real time    0.0025
    CHARGE:  cpu time    3.8280: real time    3.8373
    MIXING:  cpu time    0.0114: real time    0.0115
    --------------------------------------------
      LOOP:  cpu time   54.4287: real time   54.6604

 eigenvalue-minimisations  :  9426
 total energy-change (2. order) : 0.2590810E+03  (-0.1580588E+02)
 number of electron     778.0000026 magnetization     208.4406607
 augmentation part      374.0633912 magnetization     165.1963367

 Broyden mixing:
  rms(total) = 0.14268E+02    rms(broyden)= 0.14268E+02
  rms(prec ) = 0.18329E+02
  weight for this iteration     100.00

 eigenvalues of (default mixing * dielectric matrix)
  average eigenvalue GAMMA=   0.2554
  0.3382  0.1725

 Free energy of the ion-electron system (eV)
  ---------------------------------------------------
  alpha Z        PSCENC =      2078.51929011
  Ewald energy   TEWEN  =    220273.11531519
  -Hartree energ DENC   =   -291110.30339128
  -exchange      EXHF   =         0.00000000
  -V(xc)+E(xc)   XCENC  =      1349.50257686
  PAW double counting   =     69395.17341141   -71221.24324844
  entropy T*S    EENTRO =        -0.00535939
  eigenvalues    EBANDS =     -1480.30843258
  atomic energy  EATOM  =     70218.65458108
  Solvation  Ediel_sol  =         0.00000000
  ---------------------------------------------------
  free energy    TOTEN  =      -496.89525705 eV

  energy without entropy =     -496.88989766  energy(sigma->0) =     -496.89347059


--------------------------------------------------------------------------------------------------------




--------------------------------------- Iteration      1(   8)  ---------------------------------------


    POTLOK:  cpu time    0.3867: real time    0.3890
    SETDIJ:  cpu time    0.0334: real time    0.0335
    EDDIAG:  cpu time   11.3818: real time   11.4527
  RMM-DIIS:  cpu time   37.3688: real time   37.4817
    ORTHCH:  cpu time    1.3888: real time    1.3924
       DOS:  cpu time    0.0025: real time    0.0026
    CHARGE:  cpu time    3.7125: real time    3.7216
    MIXING:  cpu time    0.0113: real time    0.0115
    --------------------------------------------
      LOOP:  cpu time   54.2858: real time   54.4850

 eigenvalue-minimisations  :  9443
 total energy-change (2. order) : 0.2664230E+02  (-0.1396458E+02)
 number of electron     778.0000014 magnetization     201.1497092
 augmentation part      375.0248049 magnetization     163.4916478

 Broyden mixing:
  rms(total) = 0.15795E+02    rms(broyden)= 0.15795E+02
  rms(prec ) = 0.18392E+02
  weight for this iteration     100.00

 eigenvalues of (default mixing * dielectric matrix)
  average eigenvalue GAMMA=   0.3127
  0.5863  0.2664  0.0854

 Free energy of the ion-electron system (eV)
  ---------------------------------------------------
  alpha Z        PSCENC =      2078.51929011
  Ewald energy   TEWEN  =    220273.11531519
  -Hartree energ DENC   =   -291320.04760646
  -exchange      EXHF   =         0.00000000
  -V(xc)+E(xc)   XCENC  =      1356.86304335
  PAW double counting   =     70540.48608094   -72444.87168062
  entropy T*S    EENTRO =        -0.00083772
  eigenvalues    EBANDS =     -1172.97114461
  atomic energy  EATOM  =     70218.65458108
  Solvation  Ediel_sol  =         0.00000000
  ---------------------------------------------------
  free energy    TOTEN  =      -470.25295875 eV

  energy without entropy =     -470.25212103  energy(sigma->0) =     -470.25267951


--------------------------------------------------------------------------------------------------------




--------------------------------------- Iteration      1(   9)  ---------------------------------------


    POTLOK:  cpu time    0.3880: real time    0.3911
    SETDIJ:  cpu time    0.0333: real time    0.0334
    EDDIAG:  cpu time   11.3368: real time   11.3650
  RMM-DIIS:  cpu time   37.4257: real time   37.5665
    ORTHCH:  cpu time    1.3910: real time    1.3964
       DOS:  cpu time    0.0025: real time    0.0025
    CHARGE:  cpu time    3.7502: real time    3.7654
    MIXING:  cpu time    0.0122: real time    0.0124
    --------------------------------------------
      LOOP:  cpu time   54.3396: real time   54.5327

 eigenvalue-minimisations  :  9452
 total energy-change (2. order) : 0.6124476E+02  (-0.1615250E+02)
 number of electron     778.0000027 magnetization     193.4650927
 augmentation part      378.3966922 magnetization     146.5794106

 Broyden mixing:
  rms(total) = 0.13094E+02    rms(broyden)= 0.13094E+02
  rms(prec ) = 0.14805E+02
  weight for this iteration     100.00

 eigenvalues of (default mixing * dielectric matrix)
  average eigenvalue GAMMA=   0.3513
  0.8251  0.3562  0.1120  0.1120

 Free energy of the ion-electron system (eV)
  ---------------------------------------------------
  alpha Z        PSCENC =      2078.51929011
  Ewald energy   TEWEN  =    220273.11531519
  -Hartree energ DENC   =   -291114.09692665
  -exchange      EXHF   =         0.00000000
  -V(xc)+E(xc)   XCENC  =      1374.11277851
  PAW double counting   =     71883.15175895   -73843.99608523
  entropy T*S    EENTRO =         0.01503675
  eigenvalues    EBANDS =     -1278.48394247
  atomic energy  EATOM  =     70218.65458108
  Solvation  Ediel_sol  =         0.00000000
  ---------------------------------------------------
  free energy    TOTEN  =      -409.00819377 eV

  energy without entropy =     -409.02323052  energy(sigma->0) =     -409.01320602


--------------------------------------------------------------------------------------------------------




[...]
   -.503E+02 0.708E+02 -.140E+04   0.498E+02 -.710E+02 0.140E+04   0.386E+00 0.154E+00 0.216E+01   0.311E-01 0.624E-02 0.616E-01
   0.353E+02 0.575E+02 -.136E+04   -.348E+02 -.577E+02 0.136E+04   -.493E+00 0.269E+00 0.240E+01   -.295E-01 -.183E-01 0.683E-02
   0.359E+02 -.119E+02 -.146E+04   -.374E+02 0.120E+02 0.146E+04   0.151E+01 -.180E+00 0.188E+01   0.338E-02 0.142E-01 0.239E-01
   -.592E+01 0.415E+02 -.280E+04   0.624E+01 -.411E+02 0.279E+04   -.304E+00 -.363E+00 0.135E+01   -.279E-01 -.205E-01 0.377E-01
   -.182E+02 0.703E+01 -.279E+04   0.174E+02 -.639E+01 0.279E+04   0.727E+00 -.640E+00 0.198E+01   0.209E-01 0.151E-01 0.181E-01
   0.110E+02 -.127E+01 -.279E+04   -.109E+02 0.841E+00 0.279E+04   0.437E-01 0.428E+00 0.164E+01   -.563E-01 -.359E-02 0.517E-01
   -.285E+02 -.111E+02 -.284E+04   0.285E+02 0.103E+02 0.284E+04   -.979E-01 0.776E+00 0.201E+01   0.242E-01 0.114E-01 -.217E-01
   0.162E+02 -.250E+02 -.283E+04   -.166E+02 0.252E+02 0.283E+04   0.418E+00 -.194E+00 0.232E+01   0.272E-01 0.211E-01 0.526E-01
   -.233E+02 0.219E+02 -.282E+04   0.234E+02 -.219E+02 0.281E+04   -.850E-01 -.434E-01 0.177E+01   -.160E-01 -.153E-03 -.105E-01
   -.663E+01 0.320E+01 -.279E+04   0.725E+01 -.285E+01 0.279E+04   -.595E+00 -.377E+00 0.215E+01   -.127E-02 0.382E-01 0.135E-01
   -.194E+02 -.587E+01 -.282E+04   0.196E+02 0.549E+01 0.282E+04   -.292E+00 0.347E+00 0.135E+01   0.403E-01 0.696E-02 0.239E-01
   -.204E+02 -.488E+01 -.280E+04   0.205E+02 0.461E+01 0.280E+04   -.105E+00 0.265E+00 0.182E+01   0.304E-01 0.251E-02 0.427E-01
   -.938E+00 -.341E+02 -.280E+04   0.312E+00 0.333E+02 0.280E+04   0.623E+00 0.796E+00 0.174E+01   0.138E-01 0.330E-01 0.444E-02
   0.375E+02 0.212E+02 -.281E+04   -.367E+02 -.205E+02 0.281E+04   -.774E+00 -.662E+00 0.216E+01   -.322E-01 -.457E-01 0.271E-01
   0.251E+02 -.118E+02 -.282E+04   -.238E+02 0.126E+02 0.282E+04   -.134E+01 -.809E+00 0.165E+01   -.108E-01 -.858E-02 -.256E-01
   0.196E+01 -.842E+01 -.279E+04   -.223E+01 0.781E+01 0.279E+04   0.278E+00 0.633E+00 0.169E+01   -.185E-01 -.330E-01 0.410E-01
   0.284E+02 0.416E+01 -.281E+04   -.282E+02 -.456E+01 0.281E+04   -.144E+00 0.406E+00 0.109E+01   -.148E-01 -.147E-01 0.187E-01
   0.723E+02 -.576E+02 -.149E+04   -.710E+02 0.579E+02 0.149E+04   -.125E+01 -.298E+00 0.186E+01   0.428E-02 0.246E-02 0.789E-02
   0.202E+02 -.427E+02 -.144E+04   -.212E+02 0.423E+02 0.144E+04   0.102E+01 0.279E+00 0.232E+01   0.154E-01 0.386E-01 0.363E-01
   0.584E+02 0.326E+02 0.285E+04   -.582E+02 -.328E+02 -.285E+04   -.361E+00 0.152E+00 -.263E+01   -.424E-02 0.391E-01 -.257E-01
   0.136E+02 -.106E+02 0.161E+04   -.147E+02 0.112E+02 -.161E+04   0.110E+01 -.604E+00 0.992E+00   0.321E-01 0.341E-02 -.202E-01
   -.567E+02 0.149E+02 -.141E+04   0.577E+02 -.144E+02 0.141E+04   -.896E+00 -.503E+00 0.244E+01   -.325E-01 0.447E-01 0.116E-01
   -.737E+02 0.863E+02 0.295E+04   0.742E+02 -.847E+02 -.295E+04   -.378E+00 -.163E+01 -.255E+01   -.739E-02 0.966E-02 -.132E-01
   0.232E+02 -.479E+02 0.155E+04   -.228E+02 0.473E+02 -.154E+04   -.352E+00 0.548E+00 -.753E+00   -.159E-01 -.942E-02 -.238E-01
   0.218E+02 -.566E+01 -.279E+04   -.224E+02 0.593E+01 0.279E+04   0.679E+00 -.275E+00 0.783E+00   -.231E-01 0.224E-02 0.164E-01
   -.485E+01 0.520E+01 0.812E+01   0.497E+01 -.478E+01 -.916E+01   -.148E+00 -.491E+00 0.108E+01   -.345E-01 -.256E-01 0.113E-01
   -.203E+02 0.116E+02 -.283E+04   0.196E+02 -.116E+02 0.282E+04   0.687E+00 0.599E-01 0.192E+01   0.209E-01 -.177E-01 0.498E-02
   -.942E+00 0.401E+02 0.839E+02   -.170E+00 -.415E+02 -.839E+02   0.120E+01 0.143E+01 -.222E-01   0.333E-01 -.198E-01 -.592E-04
   -.645E+02 0.263E+01 -.143E+04   0.651E+02 -.373E+01 0.143E+04   -.631E+00 0.121E+01 0.273E+01   0.184E-01 -.428E-01 0.416E-01
   0.332E+02 0.308E+02 -.146E+04   -.331E+02 -.300E+02 0.146E+04   -.152E+00 -.651E+00 0.206E+01   -.236E-01 -.561E-01 0.181E-01
   -.635E+01 -.676E+02 -.480E+02   0.534E+01 0.670E+02 0.483E+02   0.111E+01 0.486E+00 -.229E+00   0.540E-02 0.427E-01 0.278E-03
   -.222E+02 -.201E+02 0.654E+01   0.229E+02 0.208E+02 -.709E+01   -.645E+00 -.758E+00 0.532E+00   -.481E-02 -.558E-01 0.422E-01
   0.153E+02 0.102E+02 -.116E+04   -.153E+02 -.104E+02 0.116E+04   0.157E-01 0.352E+00 0.200E+00   0.124E-01 -.656E-02 0.406E-01
   -.880E+02 -.992E+00 0.229E+04   0.882E+02 -.232E+00 -.229E+04   -.158E+00 0.124E+01 -.278E+01   0.173E-01 -.123E-01 -.230E-01
   0.250E+02 -.198E+02 0.234E+04   -.252E+02 0.179E+02 -.234E+04   0.357E+00 0.198E+01 -.293E+01   -.270E-02 -.190E-01 -.885E-02
   0.431E+02 0.234E+02 0.232E+04   -.427E+02 -.221E+02 -.232E+04   -.467E+00 -.141E+01 -.316E+01   0.199E-01 -.153E-01 -.236E-02
   0.316E+02 0.682E+02 0.119E+04   -.306E+02 -.674E+02 -.119E+04   -.974E+00 -.849E+00 -.108E+00   -.162E-01 0.171E-01 -.119E-01
   0.299E+02 -.767E+02 0.124E+04   -.298E+02 0.763E+02 -.124E+04   -.117E+00 0.359E+00 -.482E+00   -.179E-01 0.173E-01 -.263E-01
   -.617E+02 -.200E+02 -.117E+04   0.618E+02 0.202E+02 0.117E+04   -.146E+00 -.229E+00 0.419E+00   -.108E-01 0.171E-01 0.138E-01
   -.159E+03 0.111E+02 0.238E+04   0.157E+03 -.113E+02 -.237E+04   0.154E+01 0.849E-01 -.357E+01   0.839E-02 0.775E-02 -.346E-02
   -.458E+02 0.587E+02 0.123E+04   0.450E+02 -.583E+02 -.123E+04   0.896E+00 -.534E+00 -.486E+00   0.519E-02 0.351E-02 -.148E-01
   -.671E+02 -.720E+00 -.211E+02   0.668E+02 0.111E+01 0.211E+02   0.216E+00 -.417E+00 -.162E+00   0.174E-01 -.281E-01 0.301E-02
   0.161E+02 -.822E+02 -.119E+04   -.162E+02 0.820E+02 0.119E+04   0.153E+00 0.202E+00 0.727E+00   0.909E-02 0.504E-01 0.177E-01
   0.148E+02 0.260E+02 -.119E+04   -.150E+02 -.261E+02 0.119E+04   0.223E+00 0.842E-01 -.253E-01   -.641E-02 -.455E-01 0.105E-01
   -.415E+01 -.819E+02 0.233E+04   0.311E+01 0.803E+02 -.233E+04   0.103E+01 0.157E+01 -.332E+01   0.727E-02 0.260E-01 -.133E-01
   0.241E+02 -.281E+02 0.264E+04   -.240E+02 0.283E+02 -.264E+04   -.137E+00 -.169E+00 -.297E+01   -.135E-01 -.137E-01 -.266E-01
   0.179E+03 0.392E+02 0.265E+04   -.179E+03 -.384E+02 -.265E+04   -.421E+00 -.868E+00 -.303E+01   0.142E-01 0.227E-01 0.847E-02
   -.582E+02 -.528E+02 0.133E+04   0.575E+02 0.516E+02 -.133E+04   0.614E+00 0.116E+01 -.275E+00   0.179E-01 0.259E-01 -.463E-01
   -.766E+02 0.420E+02 0.174E+02   0.766E+02 -.418E+02 -.178E+02   -.101E+00 -.128E+00 0.408E+00   0.284E-01 -.257E-01 0.151E-01
   -.143E+03 0.846E+01 0.135E+04   0.143E+03 -.798E+01 -.135E+04   0.328E+00 -.503E+00 -.205E+00   0.396E-01 -.368E-01 -.401E-01
   -.123E+02 -.162E+02 0.133E+04   0.125E+02 0.159E+02 -.133E+04   -.181E+00 0.449E+00 -.228E+00   -.223E-01 -.230E-01 0.173E-02
   0.466E+02 0.216E+01 -.135E+04   -.465E+02 -.223E+01 0.135E+04   -.153E+00 0.122E+00 0.933E+00   -.273E-01 -.155E-01 0.849E-03
   0.708E+02 -.638E+02 0.266E+04   -.701E+02 0.639E+02 -.265E+04   -.707E+00 -.957E-01 -.326E+01   -.239E-01 0.215E-02 -.140E-01
   -.778E+01 0.920E+01 0.134E+04   0.784E+01 -.889E+01 -.134E+04   -.140E+00 -.342E+00 -.550E+00   0.591E-02 -.223E-01 -.287E-01
   0.388E+02 -.808E+02 -.619E+01   -.379E+02 0.803E+02 0.660E+01   -.833E+00 0.514E+00 -.516E+00   -.155E-01 0.312E-01 -.305E-01
   0.413E+02 0.179E+02 0.329E+04   -.415E+02 -.172E+02 -.329E+04   0.328E+00 -.612E+00 -.399E+01   -.568E-01 -.115E-02 -.994E-02
   0.776E+02 0.216E+01 0.164E+04   -.779E+02 -.278E+01 -.164E+04   0.151E+00 0.547E+00 -.142E+00   0.436E-02 0.702E-01 -.384E-01
   0.147E+03 -.468E+02 0.160E+04   -.146E+03 0.472E+02 -.160E+04   -.319E+00 -.311E+00 -.194E+00   0.823E-02 -.436E-01 -.305E-01
   0.252E+02 0.719E+02 0.101E+03   -.259E+02 -.717E+02 -.101E+03   0.622E+00 -.295E+00 0.611E-01   0.288E-01 0.386E-01 0.235E-01
   0.132E+02 0.570E+02 -.162E+04   -.129E+02 -.567E+02 0.162E+04   -.367E+00 -.295E+00 0.881E+00   -.204E-01 0.156E-01 0.330E-01
   -.436E+02 0.271E+02 -.162E+04   0.428E+02 -.269E+02 0.162E+04   0.922E+00 -.226E+00 0.182E+01   0.420E-01 -.656E-02 0.535E-01
   -.480E+00 0.139E+03 0.324E+04   0.553E+00 -.139E+03 -.323E+04   -.750E-01 -.698E-02 -.340E+01   0.193E-02 0.673E-02 -.194E-01
   -.536E+01 -.884E+02 0.328E+04   0.464E+01 0.882E+02 -.327E+04   0.530E+00 0.183E+00 -.335E+01   0.147E-01 0.151E-01 -.430E-01
   0.120E+03 0.627E+01 -.233E+02   -.120E+03 -.620E+01 0.238E+02   0.447E-01 -.147E+00 -.538E+00   0.152E-01 -.159E-01 -.132E-01
   -.125E+03 -.201E+02 0.285E+02   0.124E+03 0.199E+02 -.283E+02   0.309E+00 0.179E+00 -.214E+00   -.515E-02 0.276E-01 0.222E-01
   -.122E+02 0.108E+03 0.171E+04   0.122E+02 -.107E+03 -.171E+04   0.838E-01 -.939E+00 -.118E+01   0.168E-01 -.627E-02 -.263E-01
   0.336E+02 -.595E+02 0.799E+01   -.331E+02 0.584E+02 -.836E+01   -.503E+00 0.124E+01 0.271E+00   -.125E-02 0.157E-01 0.443E-01
   0.590E+02 -.129E+02 -.111E+02   -.583E+02 0.127E+02 0.114E+02   -.602E+00 0.226E+00 -.191E+00   0.857E-03 0.459E-01 -.686E-03
   -.953E+02 -.194E+00 0.150E+04   0.948E+02 0.391E+00 -.150E+04   0.482E+00 -.143E+00 -.395E+00   0.269E-01 -.121E-01 -.137E-01
   -.432E+02 0.737E+01 0.156E+04   0.437E+02 -.771E+01 -.156E+04   -.415E+00 0.380E+00 -.541E+00   0.397E-02 0.257E-01 -.180E-01
   -.124E+03 0.114E+01 0.297E+04   0.124E+03 -.114E+01 -.297E+04   -.339E+00 -.114E+00 -.223E+01   0.347E-01 -.163E-01 -.223E-01
   0.673E+02 -.695E+02 0.295E+04   -.679E+02 0.700E+02 -.295E+04   0.806E+00 -.392E+00 -.143E+01   -.401E-01 -.376E-01 0.452E-02
   0.204E+02 -.292E+02 0.153E+04   -.199E+02 0.291E+02 -.153E+04   -.382E+00 0.179E+00 -.397E-01   -.604E-01 -.237E-01 -.427E-02
   0.719E+02 0.543E-01 0.150E+04   -.712E+02 -.117E+00 -.149E+04   -.657E+00 0.885E-01 -.437E+00   -.373E-01 0.866E-02 -.305E-01
   -.285E+02 -.526E+02 -.150E+04   0.284E+02 0.527E+02 0.150E+04   0.175E+00 -.122E+00 0.331E+00   -.102E-01 0.389E-02 -.720E-02
   -.501E+02 0.683E+01 0.294E+04   0.506E+02 -.630E+01 -.294E+04   -.466E+00 -.375E+00 -.201E+01   0.149E-01 -.185E-01 -.262E-01
   -.499E+02 0.104E+03 0.856E+02   0.504E+02 -.103E+03 -.854E+02   -.437E+00 -.424E+00 -.336E+00   -.146E-01 0.127E-01 0.233E-02
   0.113E+00 0.583E+02 -.158E+02   -.206E+00 -.575E+02 0.157E+02   0.147E+00 -.825E+00 0.102E-03   -.278E-01 -.431E-01 -.117E-01
   0.847E+02 -.724E+01 -.270E+02   -.842E+02 0.790E+01 0.272E+02   -.498E+00 -.661E+00 -.212E+00   -.366E-01 -.463E-01 -.297E-01
   -.729E+01 -.789E+02 0.265E+02   0.682E+01 0.785E+02 -.266E+02   0.458E+00 0.470E+00 0.246E-01   -.301E-03 0.543E-01 0.581E-02
   -.376E+00 -.478E+00 -.330E+03   0.514E+00 0.510E+00 0.331E+03   -.172E+00 -.417E-01 -.143E+01   -.547E-02 -.465E-03 -.529E-03
 -----------------------------------------------------------------------------------------------
   -.132E+01 0.133E+00 0.242E+01   0.164E-12 -.272E-12 -.830E-11   0.140E+01 -.103E+00 -.256E+01   -.885E-01 -.142E-01 0.139E+00
 
 
 POSITION                                       TOTAL-FORCE (eV/Angst)
 -----------------------------------------------------------------------------------
     13.43880      8.35383      6.88739        -0.007167     -0.004151     -0.007080
      5.30313      8.36202      6.82387        -0.004815      0.001622     -0.033510
      5.14917      3.60017      6.96080        -0.000051     -0.000268     -0.015975
     14.87666      9.14022      9.12634        -0.007436      0.025384      0.021127
      3.84903      4.41740      9.23607        -0.007555      0.001094     -0.003790
      6.63802      9.10845      9.10997         0.016368      0.024116      0.020659
     12.11820      4.34012      9.23783        -0.002147     -0.002527     -0.001121
      9.36041      9.11245      9.13306         0.003251     -0.000755      0.001875
     10.76015      1.98997      9.10321         0.012886     -0.016750     -0.002506
      2.55848      2.01687      9.15296        -0.003289     -0.003617     -0.003169
     12.10811      9.10194      9.17110         0.007366      0.007067     -0.002878
     13.47785      6.75589      9.22221         0.003326      0.004769      0.001398
      5.23990      1.95706      9.18994         0.000859     -0.007839      0.001781
      8.03645      6.78459      9.16460         0.005087      0.000323     -0.009940
      9.44766      4.40048      9.21389        -0.007402      0.011171     -0.007928
      5.24868      6.74701      9.20120        -0.000373     -0.009365      0.012336
      8.01154      1.95100      9.18732         0.006122     -0.006959     -0.009717
      8.07600      3.58280      6.95495        -0.003708      0.006353     -0.012844
      6.54686      1.19604      6.87693        -0.000877     -0.013673     -0.011370
      6.72628      1.16745      1.08242        -0.012957     -0.004442     -0.014023
      3.78814      4.32228      2.81446        -0.007959     -0.011312     -0.043591
      1.25589      1.27891      6.85681         0.000935      0.000808      0.006544
      1.10289      1.28088      0.83038         0.014225     -0.011006      0.023728
      6.68973      9.08802      2.94861        -0.011018      0.005526     -0.019662
      6.59052      4.39536      9.25559         0.003122      0.018802     -0.012880
      8.01503      5.21342      4.82519         0.020579     -0.042488      0.059829
     10.72139      6.75813      9.17938        -0.005999     -0.019203      0.002807
     14.76728      7.43331      4.80456         0.018427     -0.001768     -0.027508
     12.16007      5.91401      6.97895        -0.005087     -0.000143      0.002228
      6.62976      5.98348      6.93633         0.004819      0.002675     -0.006610
      3.69641      2.63079      4.96058         0.007386     -0.013342     -0.001605
     10.74899      5.24251      4.86996        -0.022632     -0.000804      0.012218
      3.91365      6.00035      7.05297         0.002577      0.000173     -0.006944
     13.40431      8.18144      1.12629         0.014348     -0.005674      0.018229
      5.30364      8.18579      0.97842        -0.015496     -0.001976      0.028714
      4.01252      6.08228      1.00891        -0.007491     -0.009760      0.055038
      8.14068      2.17808      2.94353        -0.005848      0.011954     -0.001111
      9.41716      9.04979      2.92015         0.012797      0.013003     -0.000636
      2.49555      3.64439      7.06724        -0.006742      0.002712      0.002065
      2.27016      3.62463      0.90646        -0.009536     -0.002945      0.042225
     10.72847      2.05865      2.89929         0.008456      0.011523     -0.011005
     13.44858      5.13914      4.92157         0.003489     -0.016176     -0.010592
      3.91109      1.09218      7.01675         0.002737      0.006252     -0.004571
      9.36768      5.95111      7.04253         0.010293     -0.003687      0.003984
      3.84203      1.09369      0.99843        -0.009106      0.012101      0.045810
      9.46597      5.91657      1.05336        -0.005008      0.008369      0.002313
      5.43495      3.60933      1.03054        -0.029753      0.012031      0.021497
     12.01888      8.97257      3.00065         0.001564     -0.003353      0.002776
     12.09414      7.50068      4.86230        -0.008025      0.006328     -0.029060
     13.25111      6.61567      2.90710         0.002121     -0.005043     -0.024732
      9.39189      4.34418      2.86168        -0.003705      0.018107     -0.008533
      8.05397      8.29803      6.97072         0.002290     -0.009343      0.000786
      8.14131      8.28722      0.98031        -0.000298      0.011780      0.006090
     10.75943      6.81665      2.87577        -0.016415     -0.004997     -0.022332
      2.65866      0.23001      5.00725         0.009471     -0.002633     -0.033730
      8.02288      3.59150      0.88412         0.006385      0.014340      0.003312
      5.26159      1.95152      3.02289        -0.009162     -0.000724     -0.015351
      5.47598      6.67403      3.01859         0.004270     -0.005332     -0.014744
      8.00253      0.50416      4.85587         0.005060      0.017598     -0.001922
      9.40479      1.22911      6.91807         0.007249     -0.000832     -0.007726
     10.70028      8.27753      6.95490         0.006158     -0.007506     -0.006779
      9.37707      1.21333      0.89478        -0.004656     -0.002777      0.003559
     10.79552      8.30051      0.89576        -0.025081      0.011638      0.008555
      5.23744      5.11945      4.90393         0.017956     -0.014287      0.016855
     12.04772      2.87198      4.90316        -0.008539     -0.004288     -0.005367
     14.84943      9.21347      2.92717         0.003049      0.007792     -0.017602
      9.47732      2.78762      4.96322        -0.051701      0.027130      0.041653
      6.62486      2.80825      4.89292         0.052581      0.014433      0.033786
     12.06521      4.33484      2.86673         0.004326      0.005172     -0.024738
      2.47669      1.92891      2.90301         0.015980      0.017502     -0.028417
     12.05319      5.92970      0.96885        -0.005551     -0.032818      0.013705
      6.68440      5.89557      1.05654        -0.009358      0.006595     -0.006333
      8.15015      6.79554      2.87759         0.011406     -0.014670      0.013491
      6.69092      4.28584      2.88429         0.003158     -0.016687     -0.004574
     10.78988      3.63629      7.02130         0.003794      0.003897     -0.000624
     10.69673      3.54310      0.96432         0.005502      0.014787      0.009688
     10.77558      0.56009      4.86940         0.005200     -0.000877     -0.011392
      9.41147      7.55569      4.96424         0.000645     -0.022120     -0.004436
      6.80717      7.56930      4.94866         0.012507     -0.005159     -0.016771
      5.19417      0.24850      4.93127         0.020102      0.009271     -0.000455
      7.98739      3.55457     10.07638        -0.038284     -0.010119      0.027526
 -----------------------------------------------------------------------------------
    total drift:                               -0.013215      0.015848     -0.002940


--------------------------------------------------------------------------------------------------------



  FREE ENERGIE OF THE ION-ELECTRON SYSTEM (eV)
  ---------------------------------------------------
  free  energy   TOTEN  =      -506.53958318 eV

  energy  without entropy=     -506.56126479  energy(sigma->0) =     -506.54681038
 
 d Force = 0.3673310E-04[-0.461E-04, 0.120E-03]  d Energy = 0.6863907E-04-0.319E-04
 d Force = 0.1187782E+02[ 0.119E+02, 0.119E+02]  d Ewald  = 0.1187782E+02-0.259E-05


--------------------------------------------------------------------------------------------------------


    POTLOK:  cpu time    0.4213: real time    0.4450


--------------------------------------------------------------------------------------------------------




--------------------------------------------------------------------------------------------------------


  
 reached required accuracy - stopping structural energy minimisation
     LOOP+:  cpu time  437.8873: real time  439.9726
    4ORBIT:  cpu time    0.0000: real time    0.0000

 total amount of memory used by VASP MPI-rank0   235710. kBytes
=======================================================================

   base      :      30000. kBytes
   nonlr-proj:      32179. kBytes
   fftplans  :      16144. kBytes
   grid      :      49182. kBytes
   one-center:        653. kBytes
   wavefun   :     107552. kBytes
 
  
  
 General timing and accounting informations for this job:
 ========================================================
  
                  Total CPU time used (sec):    14370.493
                            User time (sec):    13938.409
                          System time (sec):      432.084
                         Elapsed time (sec):    14467.085
  
                   Maximum memory used (kb):      396924.
                   Average memory used (kb):           0.
  
                          Minor page faults:      8864342
                          Major page faults:          235
                 Voluntary context switches:         9610
