 vasp.5.4.4.18Apr17-6-g9f103f2a35 (build Nov 30 2020 22:55:02) complex          
  
 executed on             LinuxIFC date 2022.02.03  14:37:20
 running on   40 total cores
 distrk:  each k-point on   40 cores,    1 groups
 distr:  one band on NCORES_PER_BAND=   4 cores,   10 groups


--------------------------------------------------------------------------------------------------------


 INCAR:
 POTCAR:    PAW_PBE Pt 04Feb2005                  
 POTCAR:    PAW_PBE Co 02Aug2007                  
 POTCAR:    PAW_PBE Ni 02Aug2007                  
 POTCAR:    PAW_PBE Pt 04Feb2005                  
   VRHFIN =Pt: s1d9                                                             
   LEXCH  = PE                                                                  
   EATOM  =   729.1176 eV,   53.5886 Ry                                         
                                                                                
   TITEL  = PAW_PBE Pt 04Feb2005                                                
   LULTRA =        F    use ultrasoft PP ?                                      
   IUNSCR =        1    unscreen: 0-lin 1-nonlin 2-no                           
   RPACOR =    2.330    partial core radius                                     
   POMASS =  195.080; ZVAL   =   10.000    mass and valenz                      
   RCORE  =    2.600    outmost cutoff radius                                   
   RWIGS  =    2.750; RWIGS  =    1.455    wigner-seitz radius (au A)           
   ENMAX  =  230.283; ENMIN  =  172.712 eV                                      
   ICORE  =        3    local potential                                         
   LCOR   =        T    correct aug charges                                     
   LPAW   =        T    paw PP                                                  
   EAUG   =  358.966                                                            
   DEXC   =    0.000                                                            
   RMAX   =    2.658    core radius for proj-oper                               
   RAUG   =    1.300    factor for augmentation sphere                          
   RDEP   =    2.761    radius for radial grids                                 
   RDEPT  =    2.203    core radius for aug-charge                              
                                                                                
   Atomic configuration                                                         
   16 entries                                                                   
     n  l   j            E        occ.                                          
     1  0  0.50    -78401.1885   2.0000                                         
     2  0  0.50    -13770.7750   2.0000                                         
     2  1  1.50    -11931.0468   6.0000                                         
     3  0  0.50     -3234.7234   2.0000                                         
     3  1  1.50     -2699.2216   6.0000                                         
     3  2  2.50     -2119.5714  10.0000                                         
     4  0  0.50      -695.1528   2.0000                                         
     4  1  1.50      -519.6034   6.0000                                         
     4  2  2.50      -306.6786  10.0000                                         
     4  3  3.50       -70.1041  14.0000                                         
     5  0  0.50      -101.7747   2.0000                                         
     5  1  1.50       -55.9873   6.0000                                         
     5  2  2.50        -6.1423   9.0000                                         
     6  0  0.50        -5.6573   1.0000                                         
     6  1  1.50        -6.8029   0.0000                                         
     5  3  2.50        -1.3606   0.0000                                         
   Description                                                                  
     l       E           TYP  RCUT    TYP  RCUT                                 
     2     -6.1423404     23  2.500                                             
     2     -7.5029230     23  2.500                                             
     0     -5.6573207     23  2.500                                             
     0      0.7416693     23  2.500                                             
     1     -2.7211652     23  2.600                                             
     1     20.4087390     23  2.600                                             
     3     -1.3605826     23  2.500                                             
  local pseudopotential read in
  partial core-charges read in
  partial kinetic energy density read in
  atomic valenz-charges read in
  non local Contribution for L=           2  read in
    real space projection operators read in
  non local Contribution for L=           2  read in
    real space projection operators read in
  non local Contribution for L=           0  read in
    real space projection operators read in
  non local Contribution for L=           0  read in
    real space projection operators read in
  non local Contribution for L=           1  read in
    real space projection operators read in
  non local Contribution for L=           1  read in
    real space projection operators read in
    PAW grid and wavefunctions read in
 
   number of l-projection  operators is LMAX  =           6
   number of lm-projection operators is LMMAX =          18
 
 POTCAR:    PAW_PBE Co 02Aug2007                  
   VRHFIN =Co: d8 s1                                                            
   LEXCH  = PE                                                                  
   EATOM  =   813.3670 eV,   59.7808 Ry                                         
                                                                                
   TITEL  = PAW_PBE Co 02Aug2007                                                
   LULTRA =        F    use ultrasoft PP ?                                      
   IUNSCR =        1    unscreen: 0-lin 1-nonlin 2-no                           
   RPACOR =    2.000    partial core radius                                     
   POMASS =   58.933; ZVAL   =    9.000    mass and valenz                      
   RCORE  =    2.300    outmost cutoff radius                                   
   RWIGS  =    2.460; RWIGS  =    1.302    wigner-seitz radius (au A)           
   ENMAX  =  267.968; ENMIN  =  200.976 eV                                      
   RCLOC  =    1.203    cutoff for local pot                                    
   LCOR   =        T    correct aug charges                                     
   LPAW   =        T    paw PP                                                  
   EAUG   =  477.818                                                            
   DEXC   =    0.000                                                            
   RMAX   =    2.360    core radius for proj-oper                               
   RAUG   =    1.300    factor for augmentation sphere                          
   RDEP   =    2.393    radius for radial grids                                 
   RDEPT  =    1.864    core radius for aug-charge                              
                                                                                
   Atomic configuration                                                         
    9 entries                                                                   
     n  l   j            E        occ.                                          
     1  0  0.50     -7587.6674   2.0000                                         
     2  0  0.50      -893.6084   2.0000                                         
     2  1  1.50      -764.5805   6.0000                                         
     3  0  0.50       -97.5973   2.0000                                         
     3  1  1.50       -60.9648   6.0000                                         
     3  2  2.50        -4.2382   8.0000                                         
     4  0  0.50        -4.3746   1.0000                                         
     4  1  1.50        -4.0817   0.0000                                         
     4  3  2.50        -1.3606   0.0000                                         
   Description                                                                  
     l       E           TYP  RCUT    TYP  RCUT                                 
     2     -4.2382362     23  2.300                                             
     2     -5.5988188     23  2.300                                             
     0     -4.3745797     23  2.300                                             
     0      5.7660125     23  2.300                                             
     1     -2.7211652     23  2.300                                             
     1     16.9860234     23  2.300                                             
  local pseudopotential read in
  partial core-charges read in
  partial kinetic energy density read in
  atomic valenz-charges read in
  non local Contribution for L=           2  read in
    real space projection operators read in
  non local Contribution for L=           2  read in
    real space projection operators read in
  non local Contribution for L=           0  read in
    real space projection operators read in
  non local Contribution for L=           0  read in
    real space projection operators read in
  non local Contribution for L=           1  read in
    real space projection operators read in
  non local Contribution for L=           1  read in
    real space projection operators read in
    PAW grid and wavefunctions read in
 
   number of l-projection  operators is LMAX  =           6
   number of lm-projection operators is LMMAX =          18
 
 POTCAR:    PAW_PBE Ni 02Aug2007                  
   VRHFIN =Ni:                                                                  
   LEXCH  = PE                                                                  
   EATOM  =  1077.6739 eV,   79.2068 Ry                                         
                                                                                
   TITEL  = PAW_PBE Ni 02Aug2007                                                
   LULTRA =        F    use ultrasoft PP ?                                      
   IUNSCR =        1    unscreen: 0-lin 1-nonlin 2-no                           
   RPACOR =    2.000    partial core radius                                     
   POMASS =   58.690; ZVAL   =   10.000    mass and valenz                      
   RCORE  =    2.300    outmost cutoff radius                                   
   RWIGS  =    2.430; RWIGS  =    1.286    wigner-seitz radius (au A)           
   ENMAX  =  269.532; ENMIN  =  202.149 eV                                      
   RCLOC  =    1.201    cutoff for local pot                                    
   LCOR   =        T    correct aug charges                                     
   LPAW   =        T    paw PP                                                  
   EAUG   =  544.565                                                            
   DEXC   =    0.000                                                            
   RMAX   =    2.357    core radius for proj-oper                               
   RAUG   =    1.300    factor for augmentation sphere                          
   RDEP   =    2.390    radius for radial grids                                 
   RDEPT  =    1.838    core radius for aug-charge                              
                                                                                
   Atomic configuration                                                         
    9 entries                                                                   
     n  l   j            E        occ.                                          
     1  0  0.50     -8206.4253   2.0000                                         
     2  0  0.50      -976.1748   2.0000                                         
     2  1  1.50      -839.0571   6.0000                                         
     3  0  0.50      -105.9991   2.0000                                         
     3  1  1.50       -66.4603   6.0000                                         
     3  2  2.50        -4.6458   9.0000                                         
     4  0  0.50        -4.4926   1.0000                                         
     4  1  1.50        -4.0817   0.0000                                         
     4  3  2.50        -1.3606   0.0000                                         
   Description                                                                  
     l       E           TYP  RCUT    TYP  RCUT                                 
     2     -4.6457903     23  2.300                                             
     2     -6.0063729     23  2.300                                             
     0     -4.4925590     23  2.300                                             
     0      5.0102601     23  2.300                                             
     1     -2.7211652     23  2.300                                             
     1     16.5183231     23  2.300                                             
  local pseudopotential read in
  partial core-charges read in
  partial kinetic energy density read in
  atomic valenz-charges read in
  non local Contribution for L=           2  read in
    real space projection operators read in
  non local Contribution for L=           2  read in
    real space projection operators read in
  non local Contribution for L=           0  read in
    real space projection operators read in
  non local Contribution for L=           0  read in
    real space projection operators read in
  non local Contribution for L=           1  read in
    real space projection operators read in
  non local Contribution for L=           1  read in
    real space projection operators read in
    PAW grid and wavefunctions read in
 
   number of l-projection  operators is LMAX  =           6
   number of lm-projection operators is LMMAX =          18
 
 Optimization of the real space projectors (new method)

 maximal supplied QI-value         = 14.36
 optimisation between [QCUT,QGAM] = [ 11.92, 23.98] = [ 39.79,161.09] Ry 
 Optimized for a Real-space Cutoff    1.49 Angstroem

   l    n(q)    QCUT    max X(q) W(low)/X(q) W(high)/X(q)  e(spline) 
   2     10    11.920    66.195    0.79E-04    0.18E-03    0.24E-06
   2     10    11.920    64.643    0.81E-04    0.19E-03    0.24E-06
   0     11    11.920    95.520    0.28E-04    0.54E-04    0.18E-06
   0     11    11.920    63.403    0.27E-04    0.52E-04    0.17E-06
   1     10    11.920    19.961    0.18E-04    0.11E-03    0.23E-06
   1     10    11.920    13.289    0.25E-04    0.87E-04    0.19E-06
 Optimization of the real space projectors (new method)

 maximal supplied QI-value         = 16.25
 optimisation between [QCUT,QGAM] = [ 11.86, 23.89] = [ 39.41,159.82] Ry 
 Optimized for a Real-space Cutoff    1.33 Angstroem

   l    n(q)    QCUT    max X(q) W(low)/X(q) W(high)/X(q)  e(spline) 
   2      9    11.864    65.824    0.22E-03    0.53E-03    0.26E-06
   2      9    11.864    61.429    0.22E-03    0.53E-03    0.26E-06
   0      9    11.864    56.174    0.21E-03    0.32E-04    0.15E-06
   0      9    11.864    31.263    0.19E-03    0.30E-04    0.14E-06
   1      9    11.864    19.828    0.63E-04    0.30E-03    0.16E-06
   1      9    11.864    15.139    0.49E-04    0.25E-03    0.13E-06
 Optimization of the real space projectors (new method)

 maximal supplied QI-value         = 16.25
 optimisation between [QCUT,QGAM] = [ 11.86, 23.89] = [ 39.41,159.82] Ry 
 Optimized for a Real-space Cutoff    1.33 Angstroem

   l    n(q)    QCUT    max X(q) W(low)/X(q) W(high)/X(q)  e(spline) 
   2      9    11.864    60.317    0.21E-03    0.51E-03    0.25E-06
   2      9    11.864    55.921    0.21E-03    0.51E-03    0.26E-06
   0      9    11.864    51.690    0.22E-03    0.30E-04    0.17E-06
   0      9    11.864    30.015    0.20E-03    0.28E-04    0.15E-06
   1      9    11.864    18.849    0.76E-04    0.33E-03    0.17E-06
   1      9    11.864    14.624    0.60E-04    0.28E-03    0.15E-06
  PAW_PBE Pt 04Feb2005                  :
 energy of atom  1       EATOM= -729.1176
 kinetic energy error for atom=    0.0021 (will be added to EATOM!!)
  PAW_PBE Co 02Aug2007                  :
 energy of atom  2       EATOM= -813.3670
 kinetic energy error for atom=    0.0026 (will be added to EATOM!!)
  PAW_PBE Ni 02Aug2007                  :
 energy of atom  3       EATOM=-1077.6739
 kinetic energy error for atom=    0.0027 (will be added to EATOM!!)
 
 
 POSCAR: 11.26                                   
  positions in direct lattice
  velocities in cartesian coordinates
 exchange correlation table for  LEXCH =        8
   RHO(1)=    0.500       N(1)  =     2000
   RHO(2)=  100.500       N(2)  =     4000
 


--------------------------------------------------------------------------------------------------------


 ion  position               nearest neighbor table
   1  0.788  0.879  0.301-  49 2.47  59 2.56  60 2.65  28 2.70   4 2.74   2 2.74  29 2.74  19 2.79
                            12 2.85  11 2.85  61 2.87  33 2.95
   2  0.031  0.880  0.292-  79 2.49  77 2.55  60 2.72   1 2.74  28 2.74   4 2.81   6 2.85  16 2.90
                            30 2.92  33 3.01  22 3.16  52 3.26
   3  0.276  0.361  0.311-  64 2.55  68 2.62  31 2.62  39 2.67  33 2.71   5 2.71  30 2.75  13 2.76
                            25 2.78  19 2.80  43 2.80  18 2.88
   4  0.877  0.964  0.400-  60 2.70   9 2.72  17 2.73   1 2.74   6 2.75  16 2.76   2 2.81  12 2.81
                            11 2.87
   5  0.114  0.468  0.410-  39 2.60  33 2.69   3 2.71  12 2.72  16 2.76  10 2.77   7 2.78  25 2.84
                            13 3.00
   6  0.129  0.951  0.397-  52 2.59  22 2.71  16 2.75   4 2.75  14 2.78   8 2.80   2 2.85   9 2.96
                            10 2.97
   7  0.873  0.455  0.412-  75 2.54  39 2.57   5 2.78   9 2.79  10 2.80  27 2.80  29 2.82  15 2.85
                            12 2.93
   8  0.374  0.954  0.415-  52 2.54  43 2.54  61 2.69  13 2.78  27 2.80   6 2.80  10 2.84  11 2.85
                            14 2.88
   9  0.863  0.213  0.397-  75 2.60  22 2.67   4 2.72  17 2.73  15 2.75  60 2.78   7 2.79   6 2.96
                            10 3.00
  10  0.129  0.214  0.413-  22 2.64  43 2.68  13 2.72  39 2.77   5 2.77   7 2.80   8 2.84   6 2.97
                             9 3.00
  11  0.629  0.952  0.410-  61 2.64  12 2.72  19 2.74  27 2.75  17 2.78  13 2.79   8 2.85   1 2.85
                             4 2.87
  12  0.876  0.715  0.408-  29 2.67  16 2.70   5 2.72  11 2.72  33 2.81   4 2.81  27 2.84   1 2.85
                             7 2.93
  13  0.378  0.199  0.414-  43 2.69  10 2.72  19 2.73   3 2.76   8 2.78  11 2.79  25 2.80  17 2.80
                             5 3.00
  14  0.374  0.699  0.400-  52 2.52  44 2.55  15 2.73   6 2.78  25 2.80  16 2.81  30 2.85   8 2.88
                            27 2.90
  15  0.618  0.459  0.399-  75 2.54  44 2.60  14 2.73   9 2.75  25 2.78   7 2.85  18 2.85  17 2.85
                            27 2.86
  16  0.117  0.712  0.401-  30 2.66  12 2.70  33 2.74   6 2.75   5 2.76   4 2.76  14 2.81   2 2.90
                            25 2.92
  17  0.627  0.200  0.404-  18 2.69   9 2.73   4 2.73  11 2.78  19 2.79  13 2.80  25 2.81  60 2.82
                            15 2.85
  18  0.539  0.347  0.301-  67 2.46  26 2.60  68 2.67  60 2.68  17 2.69  19 2.70  25 2.81  15 2.85
                             3 2.88  30 2.94  75 3.18
  19  0.527  0.113  0.308-  59 2.47  80 2.51  68 2.57  43 2.61  61 2.64  18 2.70  13 2.73  11 2.74
                            17 2.79   1 2.79   3 2.80  60 2.92
  20  0.546  0.126  0.067-  48 2.50  57 2.52  47 2.52  62 2.53  37 2.60  56 2.66  34 2.70  63 2.89

  21  0.118  0.408  0.119-  47 2.44  40 2.48  36 2.49  69 2.60  57 2.64  42 2.67  64 2.70  70 2.72
                            31 2.74  50 3.30
  22  0.054  0.147  0.311-  77 2.42  65 2.51  55 2.52  43 2.58  39 2.63  10 2.64   9 2.67   6 2.71
                            75 2.90  52 3.05  31 3.06   2 3.16  60 3.21
  23  0.009  0.102  0.049-  40 2.49  62 2.55  70 2.57  41 2.59  45 2.66  76 2.69  24 2.70  35 2.74
                            53 3.07
  24  0.138  0.927  0.142-  79 2.46  35 2.50  77 2.54  58 2.54  53 2.56  55 2.59  38 2.59  73 2.64
                            70 2.65  23 2.70  66 2.83
  25  0.376  0.449  0.406-  30 2.76   3 2.78  15 2.78  13 2.80  14 2.80  17 2.81  18 2.81   5 2.84
                            16 2.92
  26  0.480  0.554  0.230-  74 2.50  44 2.51  73 2.52  51 2.59  79 2.60  18 2.60  78 2.62  30 2.62
                            32 2.66  67 2.70
  27  0.626  0.708  0.414-  44 2.49  61 2.69  11 2.75   8 2.80   7 2.80  29 2.80  12 2.84  15 2.86
                            14 2.90
  28  0.953  0.759  0.204-  58 2.53  50 2.61  66 2.61  42 2.62  36 2.63  33 2.66   1 2.70   2 2.74
                            64 2.80  49 2.88  34 3.22  59 3.23  35 3.30
  29  0.797  0.631  0.311-  39 2.60  32 2.61  49 2.61  75 2.62  42 2.63  33 2.64  44 2.66  12 2.67
                             1 2.74  27 2.80   7 2.82  61 2.83
  30  0.274  0.606  0.302-  79 2.44  33 2.60  64 2.61  26 2.62  16 2.66   3 2.75  25 2.76  14 2.85
                             2 2.92  18 2.94  52 3.30
  31  0.187  0.262  0.225-  70 2.52  57 2.57  65 2.58  55 2.59   3 2.62  39 2.62  43 2.63  42 2.72
                            80 2.73  21 2.74  68 2.76  64 2.79  22 3.06
  32  0.711  0.561  0.214-  69 2.53  51 2.56  54 2.61  29 2.61  49 2.62  26 2.66  65 2.66  50 2.66
                            42 2.68  75 2.69  78 2.71  67 2.73  44 2.74
  33  0.042  0.608  0.305-  42 2.46  64 2.51  39 2.51  30 2.60  29 2.64  28 2.66   5 2.69   3 2.71
                            16 2.74  12 2.81   1 2.95   2 3.01
  34  0.782  0.884  0.080-  48 2.38  35 2.38  50 2.53  66 2.54  36 2.55  62 2.67  20 2.70  28 3.22

  35  0.002  0.866  0.072-  36 2.37  34 2.38  66 2.43  24 2.50  58 2.60  23 2.74  62 2.75  28 3.30

  36  0.006  0.657  0.094-  50 2.33  35 2.37  58 2.38  21 2.49  34 2.55  28 2.63
  37  0.628  0.234  0.150-  41 2.41  56 2.42  59 2.43  67 2.44  62 2.45  68 2.50  51 2.50  74 2.51
                            20 2.60  66 2.60
  38  0.361  0.942  0.135-  53 2.40  45 2.41  63 2.42  57 2.43  48 2.45  55 2.45  54 2.46  78 2.48
                            80 2.54  73 2.59  24 2.59  70 2.83
  39  0.023  0.395  0.316-  42 2.47  33 2.51   7 2.57  65 2.58  75 2.58  29 2.60   5 2.60  31 2.62
                            22 2.63   3 2.67  10 2.77
  40  0.013  0.321  0.044-  69 2.32  76 2.45  21 2.48  23 2.49  70 2.51  45 2.63  71 2.93
  41  0.844  0.228  0.139-  67 2.35  76 2.37  77 2.38  37 2.41  62 2.44  51 2.48  69 2.48  66 2.49
                            65 2.58  23 2.59  70 2.61
  42  0.967  0.520  0.219-  33 2.46  39 2.47  50 2.48  64 2.48  65 2.50  28 2.62  29 2.63  69 2.65
                            21 2.67  32 2.68  31 2.72
  43  0.303  0.100  0.319-  52 2.45  80 2.47  55 2.52   8 2.54  22 2.58  61 2.58  19 2.61  31 2.63
                            10 2.68  13 2.69   3 2.80
  44  0.552  0.648  0.317-  61 2.46  78 2.48  27 2.49  26 2.51  14 2.55  52 2.55  15 2.60  29 2.66
                            75 2.73  32 2.74
  45  0.251  0.091  0.049-  38 2.41  57 2.45  53 2.48  70 2.50  63 2.54  40 2.63  23 2.66
  46  0.529  0.612  0.047-  54 2.37  73 2.44  51 2.45  71 2.47  72 2.53  53 2.63  56 2.72  76 2.87
                            63 3.07
  47  0.334  0.361  0.072-  74 2.29  56 2.44  21 2.44  57 2.50  72 2.50  20 2.52
  48  0.581  0.937  0.137-  49 2.29  63 2.35  34 2.38  54 2.38  80 2.38  38 2.45  59 2.46  20 2.50
                            57 2.63  50 2.74
  49  0.677  0.809  0.223-  48 2.29  50 2.34  61 2.46  78 2.47   1 2.47  59 2.54  80 2.57  29 2.61
                            32 2.62  54 2.79  28 2.88
  50  0.810  0.679  0.140-  36 2.33  49 2.34  54 2.38  71 2.39  42 2.48  69 2.52  34 2.53  28 2.61
                            32 2.66  48 2.74  21 3.30
  51  0.629  0.454  0.133-  56 2.40  76 2.44  46 2.45  41 2.48  37 2.50  67 2.53  32 2.56  26 2.59
                            74 2.59  69 2.66  73 2.78  54 2.83
  52  0.322  0.873  0.316-  55 2.36  79 2.41  61 2.42  78 2.44  43 2.45  14 2.52   8 2.54  44 2.55
                             6 2.59  22 3.05   2 3.26  30 3.30
  53  0.299  0.850  0.050-  73 2.39  38 2.40  45 2.48  24 2.56  63 2.58  46 2.63  72 2.82  23 3.07

  54  0.581  0.726  0.124-  46 2.37  50 2.38  48 2.38  73 2.40  71 2.42  63 2.42  38 2.46  78 2.50
                            32 2.61  49 2.79  51 2.83
  55  0.229  0.013  0.230-  52 2.36  80 2.44  79 2.44  38 2.45  43 2.52  22 2.52  78 2.56  24 2.59
                            31 2.59  77 2.61  70 2.62
  56  0.549  0.361  0.055-  51 2.40  37 2.42  47 2.44  74 2.52  76 2.56  62 2.60  72 2.61  20 2.66
                            46 2.72
  57  0.344  0.167  0.132-  38 2.43  45 2.45  80 2.47  47 2.50  20 2.52  68 2.55  31 2.57  48 2.63
                            21 2.64  70 2.71
  58  0.176  0.684  0.148-  36 2.38  72 2.39  64 2.41  73 2.43  28 2.53  79 2.53  24 2.54  74 2.56
                            35 2.60
  59  0.661  0.042  0.213-  66 2.38  37 2.43  48 2.46  19 2.47  49 2.54  68 2.55   1 2.56  80 2.59
                            60 2.69  28 3.23
  60  0.785  0.117  0.297-  67 2.46  77 2.53   1 2.65  18 2.68  59 2.69   4 2.70   2 2.72   9 2.78
                            17 2.82  19 2.92  22 3.21
  61  0.537  0.874  0.316-  52 2.42  44 2.46  49 2.46  78 2.48  80 2.52  43 2.58  19 2.64  11 2.64
                            27 2.69   8 2.69  29 2.83   1 2.87
  62  0.773  0.123  0.060-  66 2.43  41 2.44  37 2.45  20 2.53  23 2.55  56 2.60  76 2.63  34 2.67
                            35 2.75
  63  0.500  0.898  0.045-  48 2.35  54 2.42  38 2.42  45 2.54  53 2.58  20 2.89  46 3.07
  64  0.196  0.505  0.214-  58 2.41  42 2.48  33 2.51  74 2.52   3 2.55  30 2.61  68 2.66  21 2.70
                            31 2.79  28 2.80
  65  0.935  0.315  0.226-  69 2.40  75 2.40  67 2.41  77 2.43  42 2.50  22 2.51  70 2.53  39 2.58
                            41 2.58  31 2.58  32 2.66
  66  0.858  0.002  0.156-  77 2.38  59 2.38  62 2.43  35 2.43  41 2.49  34 2.54  37 2.60  28 2.61
                            24 2.83
  67  0.721  0.315  0.230-  41 2.35  75 2.39  65 2.41  37 2.44  18 2.46  60 2.46  51 2.53  26 2.70
                            77 2.70  32 2.73
  68  0.430  0.266  0.214-  74 2.43  37 2.50  57 2.55  59 2.55  19 2.57   3 2.62  80 2.64  64 2.66
                            18 2.67  31 2.76
  69  0.877  0.430  0.129-  40 2.32  71 2.34  65 2.40  41 2.48  76 2.49  50 2.52  32 2.53  21 2.60
                            42 2.65  70 2.65  51 2.66
  70  0.096  0.181  0.140-  45 2.50  40 2.51  31 2.52  65 2.53  23 2.57  41 2.61  55 2.62  24 2.65
                            69 2.65  57 2.71  21 2.72  77 2.83  38 2.83
  71  0.760  0.589  0.052-  69 2.34  50 2.39  54 2.42  46 2.47  76 2.56  40 2.93
  72  0.315  0.592  0.059-  58 2.39  74 2.39  73 2.42  47 2.50  46 2.53  56 2.61  53 2.82
  73  0.382  0.701  0.136-  53 2.39  54 2.40  72 2.42  58 2.43  46 2.44  79 2.49  26 2.52  38 2.59
                            78 2.60  24 2.64  74 2.69  51 2.78
  74  0.400  0.454  0.149-  47 2.29  72 2.39  68 2.43  26 2.50  37 2.51  56 2.52  64 2.52  58 2.56
                            51 2.59  73 2.69
  75  0.791  0.401  0.314-  67 2.39  65 2.40  15 2.54   7 2.54  39 2.58   9 2.60  29 2.62  32 2.69
                            44 2.73  22 2.90  18 3.18
  76  0.781  0.351  0.046-  41 2.37  51 2.44  40 2.45  69 2.49  71 2.56  56 2.56  62 2.63  23 2.69
                            46 2.87
  77  0.970  0.084  0.222-  41 2.38  66 2.38  22 2.42  65 2.43  60 2.53  24 2.54   2 2.55  55 2.61
                            67 2.70  70 2.83
  78  0.465  0.795  0.225-  52 2.44  49 2.47  44 2.48  79 2.48  38 2.48  61 2.48  80 2.48  54 2.50
                            55 2.56  73 2.60  26 2.62  32 2.71
  79  0.249  0.786  0.233-  52 2.41  30 2.44  55 2.44  24 2.46  78 2.48   2 2.49  73 2.49  58 2.53
                            26 2.60
  80  0.439  0.028  0.225-  48 2.38  55 2.44  57 2.47  43 2.47  78 2.48  19 2.51  61 2.52  38 2.54
                            49 2.57  59 2.59  68 2.64  31 2.73
 
  LATTYP: Found a hexagonal cell.
 ALAT       =    11.2227001190
 C/A-ratio  =     1.9603125600
  
  Lattice vectors:
  
 A1 = (   5.6113500595,  -9.7191434021,   0.0000000000)
 A2 = ( -11.2227001190,   0.0000000000,   0.0000000000)
 A3 = (   0.0000000000,   0.0000000000, -22.0000000000)


Analysis of symmetry for initial positions (statically):
=====================================================================
 Subroutine PRICEL returns:
 Original cell was already a primitive cell.
 

 Routine SETGRP: Setting up the symmetry group for a 
 hexagonal supercell.


 Subroutine GETGRP returns: Found  1 space group operations
 (whereof  1 operations were pure point group operations)
 out of a pool of 24 trial point group operations.


The static configuration has the point symmetry C_1 .


Analysis of symmetry for dynamics (positions and initial velocities):
=====================================================================
 Subroutine PRICEL returns:
 Original cell was already a primitive cell.
 

 Routine SETGRP: Setting up the symmetry group for a 
 hexagonal supercell.


 Subroutine GETGRP returns: Found  1 space group operations
 (whereof  1 operations were pure point group operations)
 out of a pool of 24 trial point group operations.


The dynamic configuration has the point symmetry C_1 .


Analysis of structural, dynamic, and magnetic symmetry:
=====================================================================
 Subroutine PRICEL returns:
 Original cell was already a primitive cell.
 

 Routine SETGRP: Setting up the symmetry group for a 
 hexagonal supercell.


 Subroutine GETGRP returns: Found  1 space group operations
 (whereof  1 operations were pure point group operations)
 out of a pool of 24 trial point group operations.


The magnetic configuration has the point symmetry C_1 .


 Subroutine INISYM returns: Found  1 space group operations
 (whereof  1 operations are pure point group operations),
 and found     1 'primitive' translations

 
 
 KPOINTS: mesh auto                               

Automatic generation of k-mesh.
Space group operators:
 irot       det(A)        alpha          n_x          n_y          n_z        tau_x        tau_y        tau_z
    1     1.000000     0.000000     1.000000     0.000000     0.000000     0.000000     0.000000     0.000000
 
 Subroutine IBZKPT returns following result:
 ===========================================
 
 Found      4 irreducible k-points:
 
 Following reciprocal coordinates:
            Coordinates               Weight
  0.000000  0.000000  0.000000      1.000000
  0.500000  0.000000  0.000000      1.000000
  0.000000  0.500000  0.000000      1.000000
  0.500000  0.500000  0.000000      1.000000
 
 Following cartesian coordinates:
            Coordinates               Weight
  0.000000  0.000000  0.000000      1.000000
  0.044553 -0.025722  0.000000      1.000000
  0.000000  0.051445  0.000000      1.000000
  0.044553  0.025722  0.000000      1.000000
 


--------------------------------------------------------------------------------------------------------




 Dimension of arrays:
   k-points           NKPTS =      4   k-points in BZ     NKDIM =      4   number of bands    NBANDS=    510
   number of dos      NEDOS =    301   number of ions     NIONS =     80
   non local maximal  LDIM  =      6   non local SUM 2l+1 LMDIM =     18
   total plane-waves  NPLWV = ******
   max r-space proj   IRMAX =   7929   max aug-charges    IRDMAX=  34542
   dimension x,y,z NGX =    90 NGY =   90 NGZ =  168
   dimension x,y,z NGXF=   180 NGYF=  180 NGZF=  336
   support grid    NGXF=   180 NGYF=  180 NGZF=  336
   ions per type =              32  23  25
   NGX,Y,Z   is equivalent  to a cutoff of  13.33, 13.33, 12.70 a.u.
   NGXF,Y,Z  is equivalent  to a cutoff of  26.66, 26.66, 25.39 a.u.

 SYSTEM =  Pt111                                   
 POSCAR =  11.26                                   

 Startparameter for this run:
   NWRITE =      2    write-flag & timer
   PREC   = accura    normal or accurate (medium, high low for compatibility)
   ISTART =      0    job   : 0-new  1-cont  2-samecut
   ICHARG =      2    charge: 1-file 2-atom 10-const
   ISPIN  =      2    spin polarized calculation?
   LNONCOLLINEAR =      F non collinear calculations
   LSORBIT =      F    spin-orbit coupling
   INIWAV =      1    electr: 0-lowe 1-rand  2-diag
   LASPH  =      F    aspherical Exc in radial PAW
   METAGGA=      F    non-selfconsistent MetaGGA calc.

 Electronic Relaxation 1
   ENCUT  =  550.0 eV  40.42 Ry    6.36 a.u.  21.46 21.46 42.07*2*pi/ulx,y,z
   ENINI  =  550.0     initial cutoff
   ENAUG  =  544.6 eV  augmentation charge cutoff
   NELM   =    200;   NELMIN=  2; NELMDL= -5     # of ELM steps 
   EDIFF  = 0.1E-04   stopping-criterion for ELM
   LREAL  =      T    real-space projection
   NLSPLINE    = F    spline interpolate recip. space projectors
   LCOMPAT=      F    compatible to vasp.4.4
   GGA_COMPAT  = T    GGA compatible to vasp.4.4-vasp.4.6
   LMAXPAW     = -100 max onsite density
   LMAXMIX     =    2 max onsite mixed and CHGCAR
   VOSKOWN=      0    Vosko Wilk Nusair interpolation
   ROPT   =   -0.00025  -0.00025  -0.00025
 Ionic relaxation
   EDIFFG = -.5E-01   stopping-criterion for IOM
   NSW    =    300    number of steps for IOM
   NBLOCK =      1;   KBLOCK =    300    inner block; outer block 
   IBRION =      2    ionic relax: 0-MD 1-quasi-New 2-CG
   NFREE  =      1    steps in history (QN), initial steepest desc. (CG)
   ISIF   =      2    stress and relaxation
   IWAVPR =     11    prediction:  0-non 1-charg 2-wave 3-comb
   ISYM   =      2    0-nonsym 1-usesym 2-fastsym
   LCORR  =      T    Harris-Foulkes like correction to forces

   POTIM  = 0.1000    time-step for ionic-motion
   TEIN   =    0.0    initial temperature
   TEBEG  =    0.0;   TEEND  =   0.0 temperature during run
   SMASS  =  -3.00    Nose mass-parameter (am)
   estimated Nose-frequenzy (Omega)   =  0.10E-29 period in steps =****** mass=  -0.288E-26a.u.
   SCALEE = 1.0000    scale energy and forces
   NPACO  =    256;   APACO  = 16.0  distance and # of slots for P.C.
   PSTRESS=    0.0 pullay stress

  Mass of Ions in am
   POMASS = 195.08 58.93 58.69
  Ionic Valenz
   ZVAL   =  10.00  9.00 10.00
  Atomic Wigner-Seitz radii
   RWIGS  =  -1.00 -1.00 -1.00
  virtual crystal weights 
   VCA    =   1.00  1.00  1.00
   NELECT =     777.0000    total number of electrons
   NUPDOWN=      -1.0000    fix difference up-down

 DOS related values:
   EMIN   =  10.00;   EMAX   =-10.00  energy-range for DOS
   EFERMI =   0.00
   ISMEAR =     1;   SIGMA  =   0.10  broadening in eV -4-tet -1-fermi 0-gaus

 Electronic relaxation 2 (details)
   IALGO  =     68    algorithm
   LDIAG  =      T    sub-space diagonalisation (order eigenvalues)
   LSUBROT=      F    optimize rotation matrix (better conditioning)
   TURBO    =      0    0=normal 1=particle mesh
   IRESTART =      0    0=no restart 2=restart with 2 vectors
   NREBOOT  =      0    no. of reboots
   NMIN     =      0    reboot dimension
   EREF     =   0.00    reference energy to select bands
   IMIX   =      4    mixing-type and parameters
     AMIX     =   0.40;   BMIX     =  1.00
     AMIX_MAG =   1.60;   BMIX_MAG =  1.00
     AMIN     =   0.10
     WC   =   100.;   INIMIX=   1;  MIXPRE=   1;  MAXMIX= -45

 Intra band minimization:
   WEIMIN = 0.0010     energy-eigenvalue tresh-hold
   EBREAK =  0.49E-08  absolut break condition
   DEPER  =   0.30     relativ break condition  

   TIME   =   0.40     timestep for ELM

  volume/ion in A,a.u.               =      30.00       202.42
  Fermi-wavevector in a.u.,A,eV,Ry     =   1.124171  2.124376 17.194514  1.263761
  Thomas-Fermi vector in A             =   2.260842
 
 Write flags
   LWAVE        =      F    write WAVECAR
   LDOWNSAMPLE  =      F    k-point downsampling of WAVECAR
   LCHARG       =      F    write CHGCAR
   LVTOT        =      F    write LOCPOT, total local potential
   LVHAR        =      F    write LOCPOT, Hartree potential only
   LELF         =      F    write electronic localiz. function (ELF)
   LORBIT       =      0    0 simple, 1 ext, 2 COOP (PROOUT), +10 PAW based schemes


 Dipole corrections
   LMONO  =      F    monopole corrections only (constant potential shift)
   LDIPOL =      F    correct potential (dipole corrections)
   IDIPOL =      0    1-x, 2-y, 3-z, 4-all directions 
   EPSILON=  1.0000000 bulk dielectric constant

 Exchange correlation treatment:
   GGA     =    --    GGA type
   LEXCH   =     8    internal setting for exchange type
   VOSKOWN=      0    Vosko Wilk Nusair interpolation
   LHFCALC =     F    Hartree Fock is set to
   LHFONE  =     F    Hartree Fock one center treatment
   AEXX    =    0.0000 exact exchange contribution

 Linear response parameters
   LEPSILON=     F    determine dielectric tensor
   LRPA    =     F    only Hartree local field effects (RPA)
   LNABLA  =     F    use nabla operator in PAW spheres
   LVEL    =     F    velocity operator in full k-point grid
   LINTERFAST=   F  fast interpolation
   KINTER  =     0    interpolate to denser k-point grid
   CSHIFT  =0.1000    complex shift for real part using Kramers Kronig
   OMEGAMAX=  -1.0    maximum frequency
   DEG_THRESHOLD= 0.2000000E-02 threshold for treating states as degnerate
   RTIME   =   -0.100 relaxation time in fs
  (WPLASMAI=    0.000 imaginary part of plasma frequency in eV, 0.658/RTIME)
   DFIELD  = 0.0000000 0.0000000 0.0000000 field for delta impulse in time
 
 Orbital magnetization related:
   ORBITALMAG=     F  switch on orbital magnetization
   LCHIMAG   =     F  perturbation theory with respect to B field
   DQ        =  0.001000  dq finite difference perturbation B field
   LLRAUG    =     F  two centre corrections for induced B field



--------------------------------------------------------------------------------------------------------


 conjugate gradient relaxation of ions
 charge density and potential will be updated during run
 spin polarized calculation
 RMM-DIIS sequential band-by-band and
  variant of blocked Davidson during initial phase
 perform sub-space diagonalisation
    before iterative eigenvector-optimisation
 modified Broyden-mixing scheme, WC =      100.0
 initial mixing is a Kerker type mixing with AMIX =  0.4000 and BMIX =      1.0000
 Hartree-type preconditioning will be used
 using additional bands          121
 real space projection scheme for non local part
 use partial core corrections
 calculate Harris-corrections to forces 
   (improved forces if not selfconsistent)
 use gradient corrections 
 use of overlap-Matrix (Vanderbilt PP)
 Methfessel and Paxton  Order N= 1 SIGMA  =   0.10


--------------------------------------------------------------------------------------------------------


  energy-cutoff  :      550.00
  volume of cell :     2399.65
      direct lattice vectors                 reciprocal lattice vectors
    11.222700119  0.000000000  0.000000000     0.089105116 -0.051444863  0.000000000
     5.611350060  9.719143402  0.000000000     0.000000000  0.102889726  0.000000000
     0.000000000  0.000000000 22.000000000     0.000000000  0.000000000  0.045454545

  length of vectors
    11.222700119 11.222700119 22.000000000     0.102889726  0.102889726  0.045454545


 
 k-points in units of 2pi/SCALE and weight: mesh auto                               
   0.00000000  0.00000000  0.00000000       0.250
   0.04455256 -0.02572243  0.00000000       0.250
   0.00000000  0.05144486  0.00000000       0.250
   0.04455256  0.02572243  0.00000000       0.250
 
 k-points in reciprocal lattice and weights: mesh auto                               
   0.00000000  0.00000000  0.00000000       0.250
   0.50000000  0.00000000  0.00000000       0.250
   0.00000000  0.50000000  0.00000000       0.250
   0.50000000  0.50000000  0.00000000       0.250
 
 position of ions in fractional coordinates (direct lattice) 
   0.78833802  0.87903994  0.30149466
   0.03149223  0.87960352  0.29175019
   0.27643902  0.36071835  0.31100976
   0.87726501  0.96391923  0.39952102
   0.11353492  0.46797559  0.41014155
   0.12909085  0.95054631  0.39735604
   0.87272060  0.45526775  0.41226492
   0.37428027  0.95388475  0.41525431
   0.86347061  0.21290297  0.39702663
   0.12893831  0.21363496  0.41312125
   0.62861568  0.95182918  0.40988397
   0.87566675  0.71450999  0.40846528
   0.37841088  0.19931657  0.41366368
   0.37350955  0.69948888  0.40003402
   0.61835736  0.45858668  0.39915027
   0.11708637  0.71160261  0.40063854
   0.62731006  0.20006060  0.40449634
   0.53910771  0.34686944  0.30113030
   0.52744650  0.11315482  0.30847840
   0.54569241  0.12647739  0.06683304
   0.11791659  0.40792499  0.11908862
   0.05366803  0.14740834  0.31068920
   0.00892895  0.10176852  0.04917651
   0.13783207  0.92691145  0.14197368
   0.37558765  0.44943734  0.40618595
   0.47979716  0.55399880  0.22971747
   0.62623863  0.70787618  0.41353837
   0.95252345  0.75898977  0.20420405
   0.79654605  0.63121910  0.31075913
   0.27409449  0.60624292  0.30247752
   0.18749030  0.26198206  0.22539890
   0.71089206  0.56100734  0.21410215
   0.04182083  0.60802243  0.30483360
   0.78196837  0.88367072  0.08012597
   0.00167860  0.86570870  0.07172203
   0.00649475  0.65686199  0.09367822
   0.62789021  0.23379040  0.14972974
   0.36050112  0.94235243  0.13470415
   0.02331847  0.39528470  0.31633329
   0.01296097  0.32139498  0.04442433
   0.84423970  0.22761319  0.13891977
   0.96744603  0.52048649  0.21885007
   0.30275132  0.09956808  0.31937273
   0.55196054  0.64800174  0.31710603
   0.25085454  0.09128101  0.04878728
   0.52913784  0.61162204  0.04697948
   0.33389242  0.36126594  0.07221963
   0.58147332  0.93651314  0.13694302
   0.67732667  0.80921239  0.22305304
   0.80979447  0.67906481  0.14024348
   0.62937817  0.45366950  0.13325724
   0.32159092  0.87271162  0.31640018
   0.29919813  0.84983568  0.05000644
   0.58103448  0.72612545  0.12392179
   0.22907234  0.01294552  0.22967573
   0.54871865  0.36069037  0.05545242
   0.34411655  0.16690962  0.13164412
   0.17554400  0.68420617  0.14761894
   0.66082635  0.04249037  0.21304482
   0.78530672  0.11671566  0.29716726
   0.53683366  0.87427183  0.31606365
   0.77284397  0.12278263  0.06048458
   0.50030742  0.89844953  0.04455515
   0.19571508  0.50522867  0.21438636
   0.93546177  0.31542046  0.22552712
   0.85824468  0.00195101  0.15611973
   0.72104290  0.31497628  0.22969726
   0.43002289  0.26577701  0.21377066
   0.87703755  0.42955743  0.12878365
   0.09634819  0.18069822  0.13969274
   0.75988870  0.58867799  0.05155611
   0.31527374  0.59151669  0.05925234
   0.38179216  0.70126590  0.13646584
   0.40042658  0.45377032  0.14884727
   0.79052511  0.40128159  0.31376841
   0.78089926  0.35148021  0.04598080
   0.96954404  0.08430315  0.22196820
   0.46486898  0.79463888  0.22533144
   0.24890496  0.78598962  0.23267623
   0.43862206  0.02771317  0.22450195
 
 position of ions in cartesian coordinates  (Angst):
  13.77988204  8.54351522  6.63288245
   5.28919107  8.54899274  6.41850425
   5.12650918  3.50587338  6.84221462
  15.25417034  9.36846919  8.78946254
   3.90014317  4.54832187  9.02311420
   6.78259593  9.23849589  8.74183289
  12.34894828  4.42481258  9.06982824
   9.55301644  9.27094268  9.13559474
  10.88514480  2.06923451  8.73458583
   2.64581650  2.07634881  9.08866753
  12.39581206  9.25096432  9.01744736
  13.83671100  6.94442510  8.98623622
   5.36522690  1.93718633  9.10060096
   8.11686264  6.79843271  8.80074839
   9.51292963  4.45706966  8.78130588
   5.30707655  6.91616779  8.81404788
   8.16272279  1.94441767  8.89891950
   7.99665003  3.37127379  6.62486664
   6.55432521  1.09976790  6.78652483
   6.83385120  1.22925189  1.47032698
   3.61235247  3.96468152  2.61994962
   1.42945997  1.43268282  6.83516233
   0.67126575  0.98910281  1.08188317
   6.74807265  9.00878530  3.12342105
   6.73705776  4.36814596  8.93609080
   8.49330084  5.38439383  5.05378437
  11.00022940  6.87995012  9.09784425
  14.94884240  7.37673046  4.49248916
  12.48138876  6.13490893  6.83670090
   6.47792153  5.89216190  6.65450539
   3.57422044  2.54624125  4.95877580
  11.12613698  5.45251083  4.71024739
   3.88116931  5.90945714  6.70633920
  13.73438227  8.58852246  1.76277137
   4.87663302  8.41394697  1.57788465
   3.75877116  6.38413590  2.06092090
   8.35850333  2.27224245  3.29405432
   9.33366537  9.15885838  2.96349132
   2.47977704  3.84182870  6.95933246
   1.94891684  3.12368389  0.97733531
  10.75186628  2.21220519  3.05623495
  13.77798860  5.05868282  4.81470165
   3.95639866  0.96771645  7.02620005
   9.83065217  6.29802183  6.97633264
   3.32747495  0.88717326  1.07332023
   9.37038068  5.94444230  1.03354859
   5.77436416  3.51119550  1.58883193
  11.78080373  9.10210551  3.01274644
  12.14220806  7.86485128  4.90716692
  12.89855082  6.59992829  3.08535659
   9.60902083  4.40927897  2.93165935
   8.50620889  8.48200935  6.96080406
   8.12653637  8.25967484  1.10014163
  10.59531978  7.05731733  2.72627938
   2.64345207  0.12581940  5.05286608
   8.18206475  3.50560142  1.21995326
   4.79850516  1.62221856  2.89617069
   5.80939796  6.64989784  3.24761674
   7.65468432  0.41297001  4.68698615
   9.46819424  1.13437620  6.53767979
  10.93056844  8.49717330  6.95340021
   9.36237240  1.19334199  1.33066085
  10.65631497  8.73215981  0.98021322
   5.03146660  4.91038993  4.71649990
  12.26834149  3.06561666  4.96159659
   9.64277050  0.01896212  3.43463404
   9.85949038  3.06129963  5.05333976
   6.31738572  2.58312482  4.70295446
  12.25312658  4.17493029  2.83324027
   2.09524784  1.75623189  3.07324021
  11.83128130  5.72144585  1.13423452
   6.85742987  5.74903551  1.30355140
   8.21978744  6.81570388  3.00224843
   7.04013147  4.41025877  3.27463986
  11.12355772  3.90011329  6.90290510
  10.73607676  3.41608656  1.01157751
  11.35395654  0.81935443  4.88330047
   9.67608211  7.72320924  4.95729164
   7.20384860  7.63914586  5.11887697
   5.07803211  0.26934830  4.93904295
 


--------------------------------------------------------------------------------------------------------


 k-point  1 :   0.0000 0.0000 0.0000  plane waves:   70321
 k-point  2 :   0.5000 0.0000 0.0000  plane waves:   70264
 k-point  3 :   0.0000 0.5000 0.0000  plane waves:   70264
 k-point  4 :   0.5000 0.5000 0.0000  plane waves:   70264

 maximum and minimum number of plane-waves per node :     17611    17530

 maximum number of plane-waves:     70321
 maximum index in each direction: 
   IXMAX=   21   IYMAX=   21   IZMAX=   42
   IXMIN=  -21   IYMIN=  -21   IZMIN=  -42


 real space projection operators:
  total allocation   :      70606.83 KBytes
  max/ min on nodes  :      18050.20      17254.69


 parallel 3D FFT for wavefunctions:
    minimum data exchange during FFTs selected (reduces bandwidth)
 parallel 3D FFT for charge:
    minimum data exchange during FFTs selected (reduces bandwidth)


 total amount of memory used by VASP MPI-rank0   255548. kBytes
=======================================================================

   base      :      30000. kBytes
   nonlr-proj:      32965. kBytes
   fftplans  :      20287. kBytes
   grid      :      54627. kBytes
   one-center:        622. kBytes
   wavefun   :     117047. kBytes
 
     INWAV:  cpu time    0.0000: real time    0.0000
 Broyden mixing: mesh for mixing (old mesh)
   NGX = 43   NGY = 43   NGZ = 85
  (NGX  =180   NGY  =180   NGZ  =336)
  gives a total of 157165 points

 initial charge density was supplied:
 charge density of overlapping atoms calculated
 number of electron     777.0000000 magnetization      80.0000000
 keeping initial charge density in first step


--------------------------------------------------------------------------------------------------------


 Maximum index for non-local projection operator         2137
 Maximum index for augmentation-charges         1782 (set IRDMAX)


--------------------------------------------------------------------------------------------------------


 First call to EWALD:  gamma=   0.132
 Maximum number of real-space cells 4x 4x 2
 Maximum number of reciprocal cells 2x 2x 4

    FEWALD:  cpu time    0.0038: real time    0.0038


--------------------------------------- Iteration      1(   1)  ---------------------------------------


    POTLOK:  cpu time    0.4676: real time    0.5025
    SETDIJ:  cpu time    0.0332: real time    0.0334
     EDDAV:  cpu time   63.1892: real time   63.3551
       DOS:  cpu time    0.0017: real time    0.0017
    --------------------------------------------
      LOOP:  cpu time   63.6916: real time   63.8928

 eigenvalue-minimisations  :  8160
 total energy-change (2. order) : 0.6847626E+04  (-0.3420984E+05)
 number of electron     777.0000000 magnetization      80.0000000
 augmentation part      777.0000000 magnetization      80.0000000

 Free energy of the ion-electron system (eV)
  ---------------------------------------------------
  alpha Z        PSCENC =      1748.28555847
  Ewald energy   TEWEN  =    237400.25499205
  -Hartree energ DENC   =   -307438.35070321
  -exchange      EXHF   =         0.00000000
  -V(xc)+E(xc)   XCENC  =      1274.03669173
  PAW double counting   =     62924.98983394   -64910.47720443
  entropy T*S    EENTRO =        -0.00044695
  eigenvalues    EBANDS =      6868.02928802
  atomic energy  EATOM  =     68980.85831443
  Solvation  Ediel_sol  =         0.00000000
  ---------------------------------------------------
  free energy    TOTEN  =      6847.62632406 eV

  energy without entropy =     6847.62677100  energy(sigma->0) =     6847.62647304


--------------------------------------------------------------------------------------------------------




--------------------------------------- Iteration      1(   2)  ---------------------------------------


     EDDAV:  cpu time   63.0259: real time   63.1765
       DOS:  cpu time    0.0018: real time    0.0018
    --------------------------------------------
      LOOP:  cpu time   63.0278: real time   63.1783

 eigenvalue-minimisations  :  8170
 total energy-change (2. order) :-0.6383291E+04  (-0.5886032E+04)
 number of electron     777.0000000 magnetization      80.0000000
 augmentation part      777.0000000 magnetization      80.0000000

 Free energy of the ion-electron system (eV)
  ---------------------------------------------------
  alpha Z        PSCENC =      1748.28555847
  Ewald energy   TEWEN  =    237400.25499205
  -Hartree energ DENC   =   -307438.35070321
  -exchange      EXHF   =         0.00000000
  -V(xc)+E(xc)   XCENC  =      1274.03669173
  PAW double counting   =     62924.98983394   -64910.47720443
  entropy T*S    EENTRO =         0.00195573
  eigenvalues    EBANDS =       484.73553976
  atomic energy  EATOM  =     68980.85831443
  Solvation  Ediel_sol  =         0.00000000
  ---------------------------------------------------
  free energy    TOTEN  =       464.33497847 eV

  energy without entropy =      464.33302275  energy(sigma->0) =      464.33432656


--------------------------------------------------------------------------------------------------------




--------------------------------------- Iteration      1(   3)  ---------------------------------------


     EDDAV:  cpu time   68.3849: real time   68.5479
       DOS:  cpu time    0.0020: real time    0.0020
    --------------------------------------------
      LOOP:  cpu time   68.3869: real time   68.5499

 eigenvalue-minimisations  :  9080
 total energy-change (2. order) :-0.8907749E+03  (-0.7453841E+03)
 number of electron     777.0000000 magnetization      80.0000000
 augmentation part      777.0000000 magnetization      80.0000000

 Free energy of the ion-electron system (eV)
  ---------------------------------------------------
  alpha Z        PSCENC =      1748.28555847
  Ewald energy   TEWEN  =    237400.25499205
  -Hartree energ DENC   =   -307438.35070321
  -exchange      EXHF   =         0.00000000
  -V(xc)+E(xc)   XCENC  =      1274.03669173
  PAW double counting   =     62924.98983394   -64910.47720443
  entropy T*S    EENTRO =        -0.00204861
  eigenvalues    EBANDS =      -406.03537831
  atomic energy  EATOM  =     68980.85831443
  Solvation  Ediel_sol  =         0.00000000
  ---------------------------------------------------
  free energy    TOTEN  =      -426.43994394 eV

  energy without entropy =     -426.43789533  energy(sigma->0) =     -426.43926107


--------------------------------------------------------------------------------------------------------




--------------------------------------- Iteration      1(   4)  ---------------------------------------


     EDDAV:  cpu time   70.3504: real time   70.5175
       DOS:  cpu time    0.0020: real time    0.0020
    --------------------------------------------
      LOOP:  cpu time   70.3524: real time   70.5195

 eigenvalue-minimisations  :  9410
 total energy-change (2. order) :-0.8710707E+02  (-0.7858325E+02)
 number of electron     777.0000000 magnetization      80.0000000
 augmentation part      777.0000000 magnetization      80.0000000

 Free energy of the ion-electron system (eV)
  ---------------------------------------------------
  alpha Z        PSCENC =      1748.28555847
  Ewald energy   TEWEN  =    237400.25499205
  -Hartree energ DENC   =   -307438.35070321
  -exchange      EXHF   =         0.00000000
  -V(xc)+E(xc)   XCENC  =      1274.03669173
  PAW double counting   =     62924.98983394   -64910.47720443
  entropy T*S    EENTRO =         0.00754278
  eigenvalues    EBANDS =      -493.15204123
  atomic energy  EATOM  =     68980.85831443
  Solvation  Ediel_sol  =         0.00000000
  ---------------------------------------------------
  free energy    TOTEN  =      -513.54701546 eV

  energy without entropy =     -513.55455825  energy(sigma->0) =     -513.54952972


--------------------------------------------------------------------------------------------------------




--------------------------------------- Iteration      1(   5)  ---------------------------------------


     EDDAV:  cpu time   70.7465: real time   70.9169
       DOS:  cpu time    0.0020: real time    0.0020
    CHARGE:  cpu time    5.1813: real time    5.1938
    MIXING:  cpu time    0.0101: real time    0.0108
    --------------------------------------------
      LOOP:  cpu time   75.9399: real time   76.1235

 eigenvalue-minimisations  :  9460
 total energy-change (2. order) :-0.2350237E+01  (-0.2335778E+01)
 number of electron     777.0000035 magnetization      78.6855032
 augmentation part      339.9516697 magnetization      59.5666895

 Broyden mixing:
  rms(total) = 0.92185E+01    rms(broyden)= 0.92184E+01
  rms(prec ) = 0.95261E+01
  weight for this iteration     100.00

 Free energy of the ion-electron system (eV)
  ---------------------------------------------------
  alpha Z        PSCENC =      1748.28555847
  Ewald energy   TEWEN  =    237400.25499205
  -Hartree energ DENC   =   -307438.35070321
  -exchange      EXHF   =         0.00000000
  -V(xc)+E(xc)   XCENC  =      1274.03669173
  PAW double counting   =     62924.98983394   -64910.47720443
  entropy T*S    EENTRO =         0.00739822
  eigenvalues    EBANDS =      -495.50213321
  atomic energy  EATOM  =     68980.85831443
  Solvation  Ediel_sol  =         0.00000000
  ---------------------------------------------------
  free energy    TOTEN  =      -515.89725201 eV

  energy without entropy =     -515.90465023  energy(sigma->0) =     -515.89971808


--------------------------------------------------------------------------------------------------------




--------------------------------------- Iteration      1(   6)  ---------------------------------------


    POTLOK:  cpu time    0.4525: real time    0.4536
    SETDIJ:  cpu time    0.0311: real time    0.0311
    EDDIAG:  cpu time   11.5129: real time   11.5404
  RMM-DIIS:  cpu time   40.1932: real time   40.2897
    ORTHCH:  cpu time    1.0732: real time    1.0758
       DOS:  cpu time    0.0021: real time    0.0021
    CHARGE:  cpu time    5.0467: real time    5.0589
    MIXING:  cpu time    0.0107: real time    0.0219
    --------------------------------------------
      LOOP:  cpu time   58.3223: real time   58.4734

 eigenvalue-minimisations  :  8189
 total energy-change (2. order) :-0.1315057E+03  (-0.8251222E+02)
 number of electron     777.0000048 magnetization      77.0670015
 augmentation part      393.5038974 magnetization      69.4405724

 Broyden mixing:
  rms(total) = 0.15658E+02    rms(broyden)= 0.15658E+02
  rms(prec ) = 0.17256E+02
  weight for this iteration     100.00

 eigenvalues of (default mixing * dielectric matrix)
  average eigenvalue GAMMA=   0.2979
  0.2979

 Free energy of the ion-electron system (eV)
  ---------------------------------------------------
  alpha Z        PSCENC =      1748.28555847
  Ewald energy   TEWEN  =    237400.25499205
  -Hartree energ DENC   =   -306276.57797553
  -exchange      EXHF   =         0.00000000
  -V(xc)+E(xc)   XCENC  =      1223.89927825
  PAW double counting   =     67763.40327102   -69547.85466662
  entropy T*S    EENTRO =        -0.00009588
  eigenvalues    EBANDS =     -1939.67161846
  atomic energy  EATOM  =     68980.85831443
  Solvation  Ediel_sol  =         0.00000000
  ---------------------------------------------------
  free energy    TOTEN  =      -647.40294227 eV

  energy without entropy =     -647.40284639  energy(sigma->0) =     -647.40291031


--------------------------------------------------------------------------------------------------------




--------------------------------------- Iteration      1(   7)  ---------------------------------------


    POTLOK:  cpu time    0.4517: real time    0.4528
    SETDIJ:  cpu time    0.0314: real time    0.0315
    EDDIAG:  cpu time   11.5214: real time   11.5490
  RMM-DIIS:  cpu time   40.2002: real time   40.2955
    ORTHCH:  cpu time    1.0681: real time    1.0707
       DOS:  cpu time    0.0019: real time    0.0019
    CHARGE:  cpu time    5.1011: real time    5.1132
    MIXING:  cpu time    0.0115: real time    0.0115
    --------------------------------------------
      LOOP:  cpu time   58.3873: real time   58.5261

 eigenvalue-minimisations  :  8191
 total energy-change (2. order) : 0.8555113E+02  (-0.3403235E+02)
 number of electron     777.0000032 magnetization      75.8147315
 augmentation part      369.2679627 magnetization      64.1897355

 Broyden mixing:
  rms(total) = 0.12991E+02    rms(broyden)= 0.12990E+02
  rms(prec ) = 0.16067E+02
  weight for this iteration     100.00

 eigenvalues of (default mixing * dielectric matrix)
  average eigenvalue GAMMA=   0.2805
  0.4032  0.1578

 Free energy of the ion-electron system (eV)
  ---------------------------------------------------
  alpha Z        PSCENC =      1748.28555847
  Ewald energy   TEWEN  =    237400.25499205
  -Hartree energ DENC   =   -306620.72399438
  -exchange      EXHF   =         0.00000000
  -V(xc)+E(xc)   XCENC  =      1230.67730233
  PAW double counting   =     69133.20984224   -71072.97272429
  entropy T*S    EENTRO =        -0.00356224
  eigenvalues    EBANDS =     -1361.43753831
  atomic energy  EATOM  =     68980.85831443
  Solvation  Ediel_sol  =         0.00000000
  ---------------------------------------------------
  free energy    TOTEN  =      -561.85180970 eV

  energy without entropy =     -561.84824747  energy(sigma->0) =     -561.85062229


--------------------------------------------------------------------------------------------------------




--------------------------------------- Iteration      1(   8)  ---------------------------------------


    POTLOK:  cpu time    0.4523: real time    0.4534
    SETDIJ:  cpu time    0.0315: real time    0.0316
    EDDIAG:  cpu time   11.5119: real time   11.5395
  RMM-DIIS:  cpu time   40.1257: real time   40.2212
    ORTHCH:  cpu time    1.0737: real time    1.0762
       DOS:  cpu time    0.0021: real time    0.0021
    CHARGE:  cpu time    5.1119: real time    5.1241
    MIXING:  cpu time    0.0114: real time    0.0118
    --------------------------------------------
      LOOP:  cpu time   58.3204: real time   58.4600

 eigenvalue-minimisations  :  8203
 total energy-change (2. order) :-0.6153937E+02  (-0.1253325E+02)
 number of electron     777.0000043 magnetization      74.1387947
 augmentation part      366.9944748 magnetization      63.6803956

 Broyden mixing:
  rms(total) = 0.15544E+02    rms(broyden)= 0.15544E+02
  rms(prec ) = 0.19194E+02
  weight for this iteration     100.00

 eigenvalues of (default mixing * dielectric matrix)
  average eigenvalue GAMMA=   0.2618
  0.4691  0.2236  0.0928

 Free energy of the ion-electron system (eV)
  ---------------------------------------------------
  alpha Z        PSCENC =      1748.28555847
  Ewald energy   TEWEN  =    237400.25499205
  -Hartree energ DENC   =   -306831.43821048
  -exchange      EXHF   =         0.00000000
  -V(xc)+E(xc)   XCENC  =      1232.52764408
  PAW double counting   =     70187.78485646   -72167.06934757
  entropy T*S    EENTRO =        -0.01808556
  eigenvalues    EBANDS =     -1174.57690525
  atomic energy  EATOM  =     68980.85831443
  Solvation  Ediel_sol  =         0.00000000
  ---------------------------------------------------
  free energy    TOTEN  =      -623.39118338 eV

  energy without entropy =     -623.37309781  energy(sigma->0) =     -623.38515485


--------------------------------------------------------------------------------------------------------




--------------------------------------- Iteration      1(   9)  ---------------------------------------


    POTLOK:  cpu time    0.4502: real time    0.4513
    SETDIJ:  cpu time    0.0315: real time    0.0316
    EDDIAG:  cpu time   11.5124: real time   11.5403
  RMM-DIIS:  cpu time   40.1964: real time   40.2921
    ORTHCH:  cpu time    1.0703: real time    1.0728
       DOS:  cpu time    0.0020: real time    0.0020
    CHARGE:  cpu time    5.0980: real time    5.1101
    MIXING:  cpu time    0.0114: real time    0.0114
    --------------------------------------------
      LOOP:  cpu time   58.3721: real time   58.5116

 eigenvalue-minimisations  :  8210
 total energy-change (2. order) : 0.7921352E+02  (-0.1263171E+02)
 number of electron     777.0000033 magnetization      72.9079561
 augmentation part      369.7500121 magnetization      59.9628205

 Broyden mixing:
  rms(total) = 0.13408E+02    rms(broyden)= 0.13408E+02
  rms(prec ) = 0.15912E+02
  weight for this iteration     100.00

 eigenvalues of (default mixing * dielectric matrix)
  average eigenvalue GAMMA=   0.2605
  0.4448  0.3993  0.1084  0.0894

 Free energy of the ion-electron system (eV)
  ---------------------------------------------------
  alpha Z        PSCENC =      1748.28555847
  Ewald energy   TEWEN  =    237400.25499205
  -Hartree energ DENC   =   -306657.49845197
  -exchange      EXHF   =         0.00000000
  -V(xc)+E(xc)   XCENC  =      1232.48085101
  PAW double counting   =     71212.64423750   -73224.08312831
  entropy T*S    EENTRO =         0.01124858
  eigenvalues    EBANDS =     -1237.13128527
  atomic energy  EATOM  =     68980.85831443
  Solvation  Ediel_sol  =         0.00000000
  ---------------------------------------------------
  free energy    TOTEN  =      -544.17766351 eV

  energy without entropy =     -544.18891210  energy(sigma->0) =     -544.18141304


--------------------------------------------------------------------------------------------------------




--------------------------------------- Iteration      1(  10)  ---------------------------------------


    POTLOK:  cpu time    0.4519: real time    0.4530
    SETDIJ:  cpu time    0.0312: real time    0.0312
    EDDIAG:  cpu time   11.5312: real time   11.5590
  RMM-DIIS:  cpu time   40.1641: real time   40.2593
    ORTHCH:  cpu time    1.0681: real time    1.0707
       DOS:  cpu time    0.0020: real time    0.0020
    CHARGE:  cpu time    5.1395: real time    5.1518
    MIXING:  cpu time    0.0118: real time    0.0119
    --------------------------------------------
      LOOP:  cpu time   58.3997: real time   58.5388

 eigenvalue-minimisations  :  8214
 total energy-change (2. order) : 0.4098618E+02  (-0.1045421E+02)
 number of electron     777.0000046 magnetization      70.3232296
 augmentation part      381.5670538 magnetization      56.2586023

 Broyden mixing:
  rms(total) = 0.88153E+01    rms(broyden)= 0.88151E+01
  rms(prec ) = 0.10815E+02
  weight for this iteration     100.00

 eigenvalues of (default mixing * dielectric matrix)
  average eigenvalue GAMMA=   0.3264
  0.6469  0.6469  0.1331  0.1331  0.0723

 Free energy of the ion-electron system (eV)
  ---------------------------------------------------
  alpha Z        PSCENC =      1748.28555847
  Ewald energy   TEWEN  =    237400.25499205
  -Hartree energ DENC   =   -306594.66301916
  -exchange      EXHF   =         0.00000000
  -V(xc)+E(xc)   XCENC  =      1231.55468694
  PAW double counting   =     71856.57060346   -73872.59254015
  entropy T*S    EENTRO =         0.00256709
  eigenvalues    EBANDS =     -1253.46264177
  atomic energy  EATOM  =     68980.85831443
  Solvation  Ediel_sol  =         0.00000000
  ---------------------------------------------------
  free energy    TOTEN  =      -503.19147864 eV

  energy without entropy =     -503.19404574  energy(sigma->0) =     -503.19233434


--------------------------------------------------------------------------------------------------------




--------------------------------------- Iteration      1(  11)  ---------------------------------------


    POTLOK:  cpu time    0.4528: real time    0.4539
    SETDIJ:  cpu time    0.0313: real time    0.0314
    EDDIAG:  cpu time   11.5121: real time   11.5397
  RMM-DIIS:  cpu time   40.3401: real time   40.4357
    ORTHCH:  cpu time    1.0632: real time    1.0657
       DOS:  cpu time    0.0022: real time    0.0022
    CHARGE:  cpu time    5.1358: real time    5.1479
    MIXING:  cpu time    0.0123: real time    0.0123
    --------------------------------------------
      LOOP:  cpu time   58.5498: real time   58.6890

 eigenvalue-minimisations  :  8211
 total energy-change (2. order) :-0.1948447E+02  (-0.9000126E+01)
 number of electron     777.0000037 magnetization      68.1639735
 augmentation part      366.0590811 magnetization      54.0238830

 Broyden mixing:
  rms(total) = 0.11758E+02    rms(broyden)= 0.11758E+02
  rms(prec ) = 0.13569E+02
  weight for this iteration     100.00

 eigenvalues of (default mixing * dielectric matrix)
  average eigenvalue GAMMA=   0.3531
  0.9994  0.6213  0.1841  0.1217  0.1217  0.0703

 Free energy of the ion-electron system (eV)
  ---------------------------------------------------
  alpha Z        PSCENC =      1748.28555847
  Ewald energy   TEWEN  =    237400.25499205
  -Hartree energ DENC   =   -306798.26134129
  -exchange      EXHF   =         0.00000000
  -V(xc)+E(xc)   XCENC  =      1233.52633258
  PAW double counting   =     73077.41298446   -75160.00030738
  entropy T*S    EENTRO =        -0.00794828
  eigenvalues    EBANDS =     -1004.74452939
  atomic energy  EATOM  =     68980.85831443
  Solvation  Ediel_sol  =         0.00000000
  ---------------------------------------------------
  free energy    TOTEN  =      -522.67594435 eV

  energy without entropy =     -522.66799607  energy(sigma->0) =     -522.67329492


--------------------------------------------------------------------------------------------------------




--------------------------------------- Iteration      1(  12)  ---------------------------------------


    POTLOK:  cpu time    0.4527: real time    0.4538
    SETDIJ:  cpu time    0.0315: real time    0.0316
    EDDIAG:  cpu time   11.5146: real time   11.5424
  RMM-DIIS:  cpu time   40.2522: real time   40.3476
    ORTHCH:  cpu time    1.0619: real time    1.0644
       DOS:  cpu time    0.0020: real time    0.0020
    CHARGE:  cpu time    5.1146: real time    5.1267
    MIXING:  cpu time    0.0126: real time    0.0127
    --------------------------------------------
      LOOP:  cpu time   58.4422: real time   58.5813

 eigenvalue-minimisations  :  8216
 total energy-change (2. order) : 0.1953895E+02  (-0.9719805E+01)
 number of electron     777.0000035 magnetization      66.9017536
 augmentation part      370.8524462 magnetization      51.9867463

 Broyden mixing:
  rms(total) = 0.10507E+02    rms(broyden)= 0.10507E+02
  rms(prec ) = 0.11903E+02
  weight for this iteration     100.00

 eigenvalues of (default mixing * dielectric matrix)
  average eigenvalue GAMMA=   0.3533
  1.1794  0.6269  0.2518  0.1275  0.1275  0.0691  0.0909

 Free energy of the ion-electron system (eV)
  ---------------------------------------------------
  alpha Z        PSCENC =      1748.28555847
  Ewald energy   TEWEN  =    237400.25499205
  -Hartree energ DENC   =   -306772.08187138
  -exchange      EXHF   =         0.00000000
  -V(xc)+E(xc)   XCENC  =      1234.37550584
  PAW double counting   =     73965.03907851   -76058.22161151
  entropy T*S    EENTRO =        -0.00667202
  eigenvalues    EBANDS =     -1001.64028555
  atomic energy  EATOM  =     68980.85831443
  Solvation  Ediel_sol  =         0.00000000
  ---------------------------------------------------
  free energy    TOTEN  =      -503.13699115 eV

  energy without entropy =     -503.13031913  energy(sigma->0) =     -503.13476715


--------------------------------------------------------------------------------------------------------




--------------------------------------- Iteration      1(  13)  ---------------------------------------


    POTLOK:  cpu time    0.4506: real time    0.4517
    SETDIJ:  cpu time    0.0317: real time    0.0318
    EDDIAG:  cpu time   11.5012: real time   11.5288
  RMM-DIIS:  cpu time   40.2162: real time   40.3116
    ORTHCH:  cpu time    1.0668: real time    1.0694
       DOS:  cpu time    0.0021: real time    0.0021
    CHARGE:  cpu time    5.0159: real time    5.0279
    MIXING:  cpu time    0.0131: real time    0.0132
    --------------------------------------------
      LOOP:  cpu time   58.2977: real time   58.4363

 eigenvalue-minimisations  :  8216
 total energy-change (2. order) : 0.4024408E+02  (-0.4567510E+01)
 number of electron     777.0000040 magnetization      66.0442667
 augmentation part      373.0049335 magnetization      48.6634746

 Broyden mixing:
  rms(total) = 0.70635E+01    rms(broyden)= 0.70634E+01
  rms(prec ) = 0.78958E+01
  weight for this iteration     100.00

 eigenvalues of (default mixing * dielectric matrix)
  average eigenvalue GAMMA=   0.3447
  1.3150  0.5650  0.3419  0.1340  0.1340  0.1147  0.0717  0.0810

 Free energy of the ion-electron system (eV)
  ---------------------------------------------------
  alpha Z        PSCENC =      1748.28555847
  Ewald energy   TEWEN  =    237400.25499205
  -Hartree energ DENC   =   -306775.70005982
  -exchange      EXHF   =         0.00000000
  -V(xc)+E(xc)   XCENC  =      1235.34728313
  PAW double counting   =     74382.88507117   -76487.43989242
  entropy T*S    EENTRO =         0.00248675
  eigenvalues    EBANDS =      -947.38666934
  atomic energy  EATOM  =     68980.85831443
  Solvation  Ediel_sol  =         0.00000000
  ---------------------------------------------------
  free energy    TOTEN  =      -462.89291559 eV

  energy without entropy =     -462.89540234  energy(sigma->0) =     -462.89374451


--------------------------------------------------------------------------------------------------------




--------------------------------------- Iteration      1(  14)  ---------------------------------------


    POTLOK:  cpu time    0.4437: real time    0.4448
    SETDIJ:  cpu time    0.0317: real time    0.0318
    EDDIAG:  cpu time   11.5052: real time   11.5331
  RMM-DIIS:  cpu time   40.2832: real time   40.3787
    ORTHCH:  cpu time    1.0647: real time    1.0673
       DOS:  cpu time    0.0021: real time    0.0021
    CHARGE:  cpu time    5.1013: real time    5.1134
    MIXING:  cpu time    0.0134: real time    0.0134
    --------------------------------------------
      LOOP:  cpu time   58.4453: real time   58.5845

 eigenvalue-minimisations  :  8217
 total energy-change (2. order) : 0.1071860E+02  (-0.2593589E+01)
 number of electron     777.0000040 magnetization      65.2590614
 augmentation part      372.9061731 magnetization      49.7928638

 Broyden mixing:
  rms(total) = 0.66509E+01    rms(broyden)= 0.66508E+01
  rms(prec ) = 0.75543E+01
  weight for this iteration     100.00

 eigenvalues of (default mixing * dielectric matrix)
  average eigenvalue GAMMA=   0.3361
  1.4146  0.4523  0.4523  0.2035  0.1153  0.1153  0.1103  0.0702  0.0907

 Free energy of the ion-electron system (eV)
  ---------------------------------------------------
  alpha Z        PSCENC =      1748.28555847
  Ewald energy   TEWEN  =    237400.25499205
  -Hartree energ DENC   =   -306747.42751963
  -exchange      EXHF   =         0.00000000
  -V(xc)+E(xc)   XCENC  =      1234.76207562
  PAW double counting   =     74622.54010847   -76737.93496551
  entropy T*S    EENTRO =         0.00314580
  eigenvalues    EBANDS =      -953.51602289
  atomic energy  EATOM  =     68980.85831443
  Solvation  Ediel_sol  =         0.00000000
  ---------------------------------------------------
  free energy    TOTEN  =      -452.17431318 eV

  energy without entropy =     -452.17745899  energy(sigma->0) =     -452.17536178


--------------------------------------------------------------------------------------------------------




--------------------------------------- Iteration      1(  15)  ---------------------------------------


    POTLOK:  cpu time    0.4525: real time    0.4536
    SETDIJ:  cpu time    0.0318: real time    0.0319
    EDDIAG:  cpu time   11.4955: real time   11.5230
  RMM-DIIS:  cpu time   40.1897: real time   40.2850
    ORTHCH:  cpu time    1.1772: real time    1.1814
       DOS:  cpu time    0.0021: real time    0.0021
    CHARGE:  cpu time    5.0575: real time    5.0695
    MIXING:  cpu time    0.0137: real time    0.0138
    --------------------------------------------
      LOOP:  cpu time   58.4200: real time   58.5604

 eigenvalue-minimisations  :  8217
 total energy-change (2. order) :-0.5507255E+01  (-0.2147236E+01)
 number of electron     777.0000039 magnetization      64.4924367
 augmentation part      371.7798872 magnetization      46.4657712

 Broyden mixing:
  rms(total) = 0.66023E+01    rms(broyden)= 0.66022E+01
  rms(prec ) = 0.73471E+01
  weight for this iteration     100.00

 eigenvalues of (default mixing * dielectric matrix)
  average eigenvalue GAMMA=   0.3449
  1.5728  0.5308  0.5308  0.2231  0.1250  0.1250  0.0981  0.0981  0.0725  0.0725

 Free energy of the ion-electron system (eV)
  ---------------------------------------------------
  alpha Z        PSCENC =      1748.28555847
  Ewald energy   TEWEN  =    237400.25499205
  -Hartree energ DENC   =   -306786.88005045
  -exchange      EXHF   =         0.00000000
  -V(xc)+E(xc)   XCENC  =      1234.55406643
  PAW double counting   =     74835.61618646   -76957.20931510
  entropy T*S    EENTRO =        -0.01811690
  eigenvalues    EBANDS =      -913.14320318
  atomic energy  EATOM  =     68980.85831443
  Solvation  Ediel_sol  =         0.00000000
  ---------------------------------------------------
  free energy    TOTEN  =      -457.68156780 eV

  energy without entropy =     -457.66345090  energy(sigma->0) =     -457.67552883


--------------------------------------------------------------------------------------------------------




--------------------------------------- Iteration      1(  16)  ---------------------------------------


    POTLOK:  cpu time    0.4542: real time    0.4553
    SETDIJ:  cpu time    0.0381: real time    0.0382
    EDDIAG:  cpu time   11.3971: real time   11.4244
  RMM-DIIS:  cpu time   40.1582: real time   40.2597
    ORTHCH:  cpu time    1.0603: real time    1.0628
       DOS:  cpu time    0.0021: real time    0.0021
    CHARGE:  cpu time    4.9769: real time    4.9888
    MIXING:  cpu time    0.0146: real time    0.0147
    --------------------------------------------
      LOOP:  cpu time   58.1016: real time   58.2459

 eigenvalue-minimisations  :  8212
 total energy-change (2. order) : 0.6257992E+01  (-0.1270158E+01)
 number of electron     777.0000040 magnetization      64.3764833
 augmentation part      371.2078759 magnetization      46.6077435

 Broyden mixing:
  rms(total) = 0.50198E+01    rms(broyden)= 0.50197E+01
  rms(prec ) = 0.55373E+01
  weight for this iteration     100.00

 eigenvalues of (default mixing * dielectric matrix)
  average eigenvalue GAMMA=   0.3271
  1.5963  0.5390  0.5390  0.2501  0.1284  0.1284  0.1006  0.1006  0.0695  0.0732
  0.0732

 Free energy of the ion-electron system (eV)
  ---------------------------------------------------
  alpha Z        PSCENC =      1748.28555847
  Ewald energy   TEWEN  =    237400.25499205
  -Hartree energ DENC   =   -306819.29024663
  -exchange      EXHF   =         0.00000000
  -V(xc)+E(xc)   XCENC  =      1234.41695014
  PAW double counting   =     75095.96645320   -77226.17522972
  entropy T*S    EENTRO =        -0.02095315
  eigenvalues    EBANDS =      -865.71941479
  atomic energy  EATOM  =     68980.85831443
  Solvation  Ediel_sol  =         0.00000000
  ---------------------------------------------------
  free energy    TOTEN  =      -451.42357600 eV

  energy without entropy =     -451.40262285  energy(sigma->0) =     -451.41659161


--------------------------------------------------------------------------------------------------------




--------------------------------------- Iteration      1(  17)  ---------------------------------------


    POTLOK:  cpu time    0.4527: real time    0.4538
    SETDIJ:  cpu time    0.0329: real time    0.0330
    EDDIAG:  cpu time   11.4033: real time   11.4306
  RMM-DIIS:  cpu time   40.1962: real time   40.2914
    ORTHCH:  cpu time    1.0625: real time    1.0650
       DOS:  cpu time    0.0021: real time    0.0021
    CHARGE:  cpu time    4.9419: real time    4.9537
    MIXING:  cpu time    0.0151: real time    0.0151
    --------------------------------------------
      LOOP:  cpu time   58.1067: real time   58.2447

 eigenvalue-minimisations  :  8213
 total energy-change (2. order) : 0.5813051E+01  (-0.4925897E+00)
 number of electron     777.0000039 magnetization      64.4305040
 augmentation part      371.9665733 magnetization      46.4739628

 Broyden mixing:
  rms(total) = 0.33424E+01    rms(broyden)= 0.33424E+01
  rms(prec ) = 0.36003E+01
  weight for this iteration     100.00

 eigenvalues of (default mixing * dielectric matrix)
  average eigenvalue GAMMA=   0.3243
  1.6361  0.5671  0.5671  0.2799  0.1410  0.1410  0.1368  0.1002  0.1002  0.0816
  0.0699  0.0711

 Free energy of the ion-electron system (eV)
  ---------------------------------------------------
  alpha Z        PSCENC =      1748.28555847
  Ewald energy   TEWEN  =    237400.25499205
  -Hartree energ DENC   =   -306821.45867028
  -exchange      EXHF   =         0.00000000
  -V(xc)+E(xc)   XCENC  =      1233.97057633
  PAW double counting   =     75152.52953544   -77281.27323945
  entropy T*S    EENTRO =        -0.00881494
  eigenvalues    EBANDS =      -858.76877705
  atomic energy  EATOM  =     68980.85831443
  Solvation  Ediel_sol  =         0.00000000
[...]

  length of vectors
    11.222700119 11.222700119 22.000000000     0.102889726  0.102889726  0.045454545


 FORCES acting on ions
    electron-ion (+dipol)            ewald-force                    non-local-force                 convergence-correction
 -----------------------------------------------------------------------------------------------
   -.139E+03 0.386E+02 -.131E+04   0.139E+03 -.384E+02 0.131E+04   0.418E+00 -.207E+00 0.252E+01   -.104E-02 0.241E-02 0.661E-02
   0.478E+02 0.617E+02 -.116E+04   -.481E+02 -.611E+02 0.116E+04   0.356E+00 -.454E+00 0.211E+01   -.963E-03 0.159E-02 0.214E-02
   -.636E+02 -.458E+02 -.147E+04   0.625E+02 0.462E+02 0.147E+04   0.115E+01 -.335E+00 0.187E+01   -.165E-02 -.605E-02 0.452E-02
   -.441E+02 0.171E+02 -.271E+04   0.444E+02 -.164E+02 0.271E+04   -.394E+00 -.736E+00 0.162E+01   -.206E-02 0.505E-03 0.140E-02
   -.690E+02 -.267E+02 -.284E+04   0.681E+02 0.275E+02 0.283E+04   0.878E+00 -.794E+00 0.249E+01   0.105E-02 -.116E-02 0.847E-03
   0.978E+02 0.618E+01 -.271E+04   -.974E+02 -.711E+01 0.270E+04   -.445E+00 0.974E+00 0.213E+01   0.409E-04 0.223E-02 0.278E-02
   0.128E+02 0.634E+01 -.292E+04   -.128E+02 -.734E+01 0.291E+04   -.641E-01 0.977E+00 0.281E+01   0.643E-03 0.151E-02 0.122E-02
   0.544E+02 0.808E+01 -.297E+04   -.547E+02 -.762E+01 0.297E+04   0.346E+00 -.451E+00 0.341E+01   0.478E-02 0.402E-02 -.301E-02
   0.181E+02 0.733E+02 -.273E+04   -.189E+02 -.728E+02 0.273E+04   0.785E+00 -.526E+00 0.206E+01   -.608E-03 -.105E-02 0.133E-02
   0.597E+02 0.127E+02 -.288E+04   -.587E+02 -.122E+02 0.288E+04   -.102E+01 -.451E+00 0.272E+01   0.459E-02 -.181E-02 -.235E-02
   -.965E+02 -.197E+02 -.284E+04   0.961E+02 0.191E+02 0.284E+04   0.381E+00 0.606E+00 0.169E+01   -.298E-02 0.821E-03 -.631E-03
   -.628E+02 -.339E+02 -.279E+04   0.630E+02 0.339E+02 0.279E+04   -.154E+00 0.195E-01 0.186E+01   -.104E-02 0.580E-03 0.180E-02
   -.452E+02 -.707E+02 -.287E+04   0.451E+02 0.701E+02 0.287E+04   0.978E-01 0.619E+00 0.214E+01   -.153E-02 -.242E-02 -.317E-02
   0.109E+03 0.542E+02 -.276E+04   -.108E+03 -.542E+02 0.275E+04   -.667E+00 0.270E-01 0.250E+01   0.407E-02 -.343E-02 0.275E-03
   0.844E+02 0.398E+02 -.274E+04   -.839E+02 -.389E+02 0.274E+04   -.527E+00 -.867E+00 0.211E+01   -.725E-03 0.387E-02 -.955E-03
   -.319E+02 -.320E+02 -.270E+04   0.314E+02 0.316E+02 0.270E+04   0.557E+00 0.358E+00 0.171E+01   -.162E-02 -.148E-02 0.273E-02
   -.361E+02 -.225E+02 -.277E+04   0.360E+02 0.222E+02 0.277E+04   0.834E-01 0.252E+00 0.185E+01   -.279E-02 -.113E-02 0.514E-03
   0.462E+02 -.604E+02 -.134E+04   -.451E+02 0.594E+02 0.133E+04   -.108E+01 0.972E+00 0.198E+01   -.188E-02 -.937E-03 0.640E-02
   -.110E+03 -.822E+02 -.148E+04   0.109E+03 0.817E+02 0.148E+04   0.120E+01 0.457E+00 0.234E+01   -.942E-02 -.240E-02 0.212E-02
   0.595E+02 0.540E+02 0.278E+04   -.587E+02 -.537E+02 -.277E+04   -.654E+00 -.428E+00 -.193E+01   -.159E-03 -.148E-02 0.944E-02
   -.118E+03 -.144E+03 0.196E+04   0.118E+03 0.145E+03 -.197E+04   -.148E+00 -.380E+00 0.135E+01   0.221E-02 0.234E-01 0.154E-01
   0.745E+02 0.681E+02 -.155E+04   -.738E+02 -.677E+02 0.155E+04   -.804E+00 -.435E+00 0.172E+01   0.605E-02 -.351E-02 0.619E-02
   0.785E+01 0.189E+03 0.297E+04   -.753E+01 -.187E+03 -.296E+04   -.210E+00 -.165E+01 -.199E+01   -.122E-01 -.101E-01 -.256E-03
   0.158E+03 0.253E+02 0.147E+04   -.158E+03 -.261E+02 -.147E+04   -.775E+00 0.950E+00 -.383E+00   -.205E-01 -.119E-01 0.249E-01
   -.199E+02 -.372E+02 -.276E+04   0.199E+02 0.367E+02 0.276E+04   -.714E-01 0.517E+00 0.189E+01   -.907E-03 -.175E-02 0.228E-02
   0.110E+03 0.905E+02 -.236E+03   -.110E+03 -.902E+02 0.236E+03   0.317E-01 -.315E+00 0.163E+00   0.418E-02 0.277E-02 0.910E-02
   -.554E+01 0.441E+02 -.293E+04   0.559E+01 -.437E+02 0.293E+04   -.575E-01 -.442E+00 0.275E+01   -.127E-02 0.141E-02 -.457E-02
   -.453E+02 -.460E+02 0.329E+03   0.451E+02 0.448E+02 -.330E+03   0.158E+00 0.122E+01 -.943E-01   0.478E-02 -.686E-02 -.274E-02
   -.852E+02 -.511E+02 -.145E+04   0.857E+02 0.505E+02 0.145E+04   -.438E+00 0.636E+00 0.201E+01   -.242E-02 -.134E-03 0.429E-02
   0.111E+02 0.731E+01 -.134E+04   -.118E+02 -.675E+01 0.134E+04   0.736E+00 -.512E+00 0.191E+01   0.541E-03 -.980E-03 0.398E-02
   -.651E+02 -.100E+03 -.299E+02   0.648E+02 0.100E+03 0.296E+02   0.373E+00 0.518E+00 0.259E+00   0.101E-01 -.195E-02 0.198E-01
   -.219E+02 -.287E+02 0.122E+03   0.225E+02 0.287E+02 -.123E+03   -.515E+00 -.717E-01 0.842E+00   -.311E-02 0.302E-02 0.119E-01
   -.663E+02 -.122E+03 -.121E+04   0.663E+02 0.121E+03 0.121E+04   0.204E-01 0.843E+00 0.716E+00   -.274E-02 -.216E-02 0.129E-03
   -.223E+01 0.110E+03 0.236E+04   0.348E+01 -.110E+03 -.236E+04   -.112E+01 -.358E+00 -.153E+01   0.190E-01 -.133E-01 0.941E-02
   0.775E+01 0.138E+03 0.248E+04   -.887E+01 -.137E+03 -.248E+04   0.106E+01 -.760E+00 -.242E+01   -.829E-02 -.164E-01 0.117E-01
   -.748E+01 0.875E+02 0.223E+04   0.735E+01 -.859E+02 -.223E+04   0.664E-01 -.138E+01 -.214E+01   0.766E-02 0.474E-02 0.845E-02
   0.126E+03 0.695E+02 0.107E+04   -.126E+03 -.696E+02 -.107E+04   -.284E+00 0.104E-01 0.260E-01   -.493E-02 0.239E-02 0.209E-01
   0.494E+02 -.603E+02 0.142E+04   -.490E+02 0.603E+02 -.142E+04   -.521E+00 0.175E-01 -.349E+00   0.873E-02 0.727E-03 0.400E-01
   -.696E+02 0.114E+02 -.141E+04   0.694E+02 -.112E+02 0.141E+04   0.160E+00 -.285E+00 0.284E+00   0.396E-02 0.106E-02 0.261E-02
   -.256E+03 -.128E+03 0.278E+04   0.255E+03 0.126E+03 -.277E+04   0.150E+01 0.153E+01 -.399E+01   0.624E-02 0.157E-01 -.183E-02
   -.165E+02 0.991E+02 0.131E+04   0.161E+02 -.990E+02 -.131E+04   0.431E+00 -.258E+00 -.683E+00   -.766E-02 -.423E-03 0.201E-01
   -.975E+02 -.854E+02 0.133E+03   0.974E+02 0.856E+02 -.132E+03   0.415E-01 -.179E+00 -.326E+00   0.574E-02 0.510E-02 0.560E-02
   0.167E+02 -.131E+03 -.148E+04   -.169E+02 0.130E+03 0.148E+04   0.199E+00 0.513E+00 0.287E+00   0.544E-02 -.617E-03 -.420E-03
   0.825E+02 0.132E+03 -.142E+04   -.825E+02 -.132E+03 0.142E+04   -.383E-01 -.625E+00 -.682E+00   0.161E-02 0.188E-02 0.267E-02
   -.797E+02 -.138E+03 0.273E+04   0.779E+02 0.137E+03 -.272E+04   0.156E+01 0.162E+01 -.329E+01   0.593E-02 0.118E-01 0.266E-02
   0.168E+02 -.253E+02 0.276E+04   -.173E+02 0.253E+02 -.276E+04   0.398E+00 -.127E+00 -.331E+01   0.562E-02 -.109E-01 0.119E-01
   0.228E+03 -.398E+02 0.247E+04   -.226E+03 0.395E+02 -.247E+04   -.130E+01 0.255E+00 -.199E+01   -.558E-02 0.838E-02 0.116E-01
   -.186E+03 -.299E+02 0.146E+04   0.186E+03 0.299E+02 -.146E+04   0.258E+00 -.171E-01 0.206E+00   0.887E-04 0.312E-02 0.241E-01
   -.191E+03 0.595E+02 0.364E+01   0.191E+03 -.592E+02 -.323E+01   0.355E+00 -.382E+00 -.480E+00   -.450E-02 0.167E-02 0.130E-01
   -.188E+03 -.403E+02 0.139E+04   0.188E+03 0.408E+02 -.139E+04   -.881E-01 -.437E+00 0.485E+00   0.156E-01 -.826E-02 0.952E-02
   0.267E+02 -.681E+02 0.135E+04   -.267E+02 0.677E+02 -.135E+04   -.547E-01 0.509E+00 -.410E-01   -.258E-02 0.674E-02 0.233E-01
   0.193E+03 0.431E+02 -.147E+04   -.193E+03 -.432E+02 0.147E+04   -.684E+00 0.137E+00 -.909E-02   0.921E-02 0.267E-02 -.104E-02
   0.180E+03 0.559E+01 0.273E+04   -.178E+03 -.570E+01 -.273E+04   -.187E+01 0.105E+00 -.326E+01   -.121E-01 -.431E-02 0.836E-02
   -.973E+02 0.354E+02 0.159E+04   0.975E+02 -.350E+02 -.159E+04   -.180E+00 -.420E+00 0.289E+00   0.659E-02 -.680E-02 0.245E-01
   0.113E+03 -.585E+02 -.105E+03   -.113E+03 0.584E+02 0.105E+03   -.402E+00 0.990E-01 -.151E+00   0.990E-02 -.230E-02 0.176E-01
   0.134E+03 0.310E+02 0.297E+04   -.134E+03 -.306E+02 -.296E+04   -.153E+00 -.304E+00 -.149E+01   -.259E-02 0.365E-02 0.124E-01
   -.527E+02 -.163E+03 0.172E+04   0.527E+02 0.162E+03 -.172E+04   -.611E-01 0.340E+00 0.145E+00   0.858E-02 0.181E-02 0.314E-01
   0.192E+03 -.967E+01 0.133E+04   -.193E+03 0.976E+01 -.134E+04   0.410E+00 -.541E-01 0.484E+00   -.189E-01 0.185E-02 0.675E-02
   -.126E+03 0.269E+02 0.196E+03   0.126E+03 -.268E+02 -.196E+03   0.408E+00 -.854E-01 -.345E+00   -.283E-02 0.735E-03 0.153E-01
   0.508E+01 0.571E+02 -.128E+04   -.494E+01 -.573E+02 0.128E+04   -.153E+00 0.160E+00 0.501E+00   -.111E-02 -.192E-02 0.628E-02
   -.130E+03 0.159E+02 -.162E+04   0.130E+03 -.156E+02 0.162E+04   0.322E+00 -.259E+00 0.514E+00   -.469E-02 0.392E-02 0.200E-02
   0.828E+02 0.198E+03 0.290E+04   -.828E+02 -.199E+03 -.289E+04   -.322E-01 -.538E-01 -.120E+01   -.603E-03 -.172E-01 0.642E-02
   -.194E+03 -.246E+02 0.312E+04   0.192E+03 0.251E+02 -.312E+04   0.215E+01 -.419E+00 -.409E+01   0.179E-01 -.145E-02 0.431E-02
   -.605E+01 -.411E+02 0.201E+03   0.634E+01 0.411E+02 -.201E+03   -.356E+00 -.788E-01 -.311E+00   -.591E-02 0.449E-02 0.366E-02
   -.837E+02 -.107E+02 -.813E+02   0.834E+02 0.102E+02 0.812E+02   0.288E+00 0.439E+00 -.171E-01   0.445E-02 0.775E-02 0.194E-01
   0.313E+02 0.203E+03 0.111E+04   -.315E+02 -.203E+03 -.111E+04   0.278E+00 -.432E+00 0.185E-01   0.327E-02 -.178E-01 0.141E-01
   0.146E+03 0.172E+02 -.221E+03   -.146E+03 -.178E+02 0.221E+03   0.240E+00 0.739E+00 -.513E+00   -.569E-02 0.491E-02 0.134E-01
   -.125E+02 -.963E+02 0.166E+03   0.129E+02 0.962E+02 -.165E+03   -.455E+00 0.110E-01 -.299E+00   -.545E-02 -.401E-02 0.151E-01
   -.170E+03 -.109E+03 0.165E+04   0.170E+03 0.110E+03 -.165E+04   0.242E-01 -.183E+00 -.334E+00   0.626E-02 0.198E-01 0.159E-01
   -.701E+02 0.675E+01 0.148E+04   0.704E+02 -.668E+01 -.148E+04   -.244E+00 -.125E+00 -.699E+00   0.543E-02 0.205E-02 0.248E-01
   -.272E+03 -.156E+03 0.302E+04   0.269E+03 0.155E+03 -.302E+04   0.225E+01 0.135E+01 -.367E+01   0.170E-01 0.230E-02 0.750E-02
   0.296E+03 -.678E+02 0.296E+04   -.294E+03 0.671E+02 -.296E+04   -.219E+01 0.764E+00 -.281E+01   -.220E-01 0.546E-03 0.143E-01
   0.876E+02 0.280E+02 0.150E+04   -.876E+02 -.283E+02 -.151E+04   0.108E+00 0.199E+00 0.480E-02   -.687E-02 -.110E-01 0.357E-01
   0.140E+03 0.123E+02 0.119E+04   -.140E+03 -.122E+02 -.119E+04   0.103E+00 -.292E-01 -.332E+00   -.168E-02 0.621E-02 0.219E-01
   0.879E+02 0.220E+02 -.157E+04   -.877E+02 -.220E+02 0.157E+04   -.163E+00 -.538E-01 -.298E+00   -.230E-02 0.531E-02 0.781E-02
   -.774E+00 -.994E+01 0.308E+04   0.758E+00 0.104E+02 -.307E+04   -.694E-01 -.408E+00 -.174E+01   0.246E-02 0.887E-02 0.579E-02
   0.637E+02 0.177E+03 -.563E+02   -.641E+02 -.177E+03 0.571E+02   0.443E+00 0.239E+00 -.830E+00   -.414E-02 -.115E-01 0.182E-01
   0.711E+01 0.967E+02 -.324E+02   -.734E+01 -.961E+02 0.325E+02   0.270E+00 -.663E+00 -.157E+00   0.153E-02 0.319E-02 0.187E-01
   0.229E+03 0.527E+02 -.248E+03   -.229E+03 -.524E+02 0.249E+03   0.350E+00 -.364E+00 -.576E+00   0.262E-03 -.421E-03 0.567E-02
   -.608E+02 -.117E+03 -.120E+02   0.609E+02 0.116E+03 0.117E+02   -.122E+00 0.280E+00 0.178E+00   -.426E-02 0.259E-02 0.214E-01
 -----------------------------------------------------------------------------------------------
   -.270E+01 -.143E+01 -.109E+02   -.711E-14 0.512E-12 0.157E-10   0.266E+01 0.148E+01 0.102E+02   0.152E-01 0.281E-02 0.737E+00
 
 
 POSITION                                       TOTAL-FORCE (eV/Angst)
 -----------------------------------------------------------------------------------
     13.77988      8.54352      6.63288         0.018870      0.001409     -0.007098
      5.28919      8.54899      6.41850         0.007260      0.005032      0.005273
      5.12651      3.50587      6.84221         0.010211      0.012652      0.020550
     15.25417      9.36847      8.78946        -0.001387     -0.003687     -0.000307
      3.90014      4.54832      9.02311         0.003833     -0.001726     -0.000968
      6.78260      9.23850      8.74183         0.009926      0.003447      0.007519
     12.34895      4.42481      9.06983        -0.000821     -0.001727      0.007266
      9.55302      9.27094      9.13559        -0.002872      0.002371      0.001117
     10.88514      2.06923      8.73459        -0.001033      0.002601      0.002192
      2.64582      2.07635      9.08867        -0.004654     -0.000653     -0.009479
     12.39581      9.25096      9.01745        -0.003960      0.008518     -0.006155
     13.83671      6.94443      8.98624        -0.003463      0.000014      0.004862
      5.36523      1.93719      9.10060        -0.003044     -0.001318     -0.004060
      8.11686      6.79843      8.80075         0.000487      0.006230      0.001537
      9.51293      4.45707      8.78131        -0.000381      0.004205      0.004437
      5.30708      6.91617      8.81405        -0.008930      0.004497      0.004931
      8.16272      1.94442      8.89892        -0.005307     -0.003433     -0.004052
      7.99665      3.37127      6.62487         0.000783      0.015849     -0.016779
      6.55433      1.09977      6.78652        -0.005224     -0.006622      0.009123
      6.83385      1.22925      1.47033        -0.005152      0.034505      0.000102
      3.61235      3.96468      2.61995        -0.008749      0.002197      0.001057
      1.42946      1.43268      6.83516         0.007421     -0.003630      0.010449
      0.67127      0.98910      1.08188        -0.016274     -0.019676     -0.001736
      6.74807      9.00879      3.12342        -0.013211      0.013344     -0.015490
      6.73706      4.36815      8.93609        -0.008802     -0.005056     -0.005242
      8.49330      5.38439      5.05378        -0.019774     -0.006226      0.030823
     11.00023      6.87995      9.09784         0.000477     -0.001799      0.005339
     14.94884      7.37673      4.49249         0.021752     -0.011341     -0.011072
     12.48139      6.13491      6.83670        -0.007254     -0.003853     -0.002477
      6.47792      5.89216      6.65451         0.018410      0.007060     -0.022022
      3.57422      2.54624      4.95878        -0.018916     -0.011456     -0.037236
     11.12614      5.45251      4.71025         0.018217      0.004294      0.007445
      3.88117      5.90946      6.70634         0.003964     -0.001150     -0.006937
     13.73438      8.58852      1.76277        -0.005883     -0.018178     -0.040459
      4.87663      8.41395      1.57788         0.012203      0.007385      0.018396
      3.75877      6.38414      2.06092         0.022283     -0.002285      0.017102
      8.35850      2.27224      3.29405        -0.004438     -0.002798      0.007175
      9.33367      9.15886      2.96349         0.002124     -0.005021      0.017447
      2.47978      3.84183      6.95933        -0.004383      0.006265      0.000194
      1.94892      3.12368      0.97734        -0.001251      0.008649      0.006793
     10.75187      2.21221      3.05623         0.004146      0.006695      0.002338
     13.77799      5.05868      4.81470        -0.014984      0.011354     -0.003216
      3.95640      0.96772      7.02620        -0.004380     -0.005156      0.000943
      9.83065      6.29802      6.97633        -0.001465      0.002102      0.004977
      3.32747      0.88717      1.07332        -0.002897      0.001419     -0.006202
      9.37038      5.94444      1.03355         0.022481      0.005910     -0.037908
      5.77436      3.51120      1.58883         0.005285      0.007714      0.002586
     11.78080      9.10211      3.01275        -0.012810     -0.005839      0.018646
     12.14221      7.86485      4.90717        -0.005505     -0.016508     -0.001786
     12.89855      6.59993      3.08536        -0.003506     -0.004580      0.020624
      9.60902      4.40928      2.93166        -0.007303     -0.012370      0.001341
      8.50621      8.48201      6.96080         0.003344      0.004526      0.005088
      8.12654      8.25967      1.10014        -0.018634      0.011508     -0.003842
     10.59532      7.05732      2.72628        -0.002486     -0.004405      0.010112
      2.64345      0.12582      5.05287         0.008001      0.002489     -0.012157
      8.18206      3.50560      1.21995        -0.009980     -0.030670      0.011197
      4.79851      1.62222      2.89617        -0.006670      0.000362      0.010471
      5.80940      6.64990      3.24762        -0.013654      0.004003     -0.022784
      7.65468      0.41297      4.68699        -0.005429     -0.003281     -0.007975
      9.46819      1.13438      6.53768        -0.013314      0.002315     -0.006600
     10.93057      8.49717      6.95340        -0.000822      0.007408      0.001734
      9.36237      1.19334      1.33066         0.027217      0.005864     -0.001507
     10.65631      8.73216      0.98021        -0.001575     -0.006468     -0.006892
      5.03147      4.91039      4.71650        -0.006887      0.007734     -0.008699
     12.26834      3.06562      4.96160         0.005837      0.006042     -0.006147
      9.64277      0.01896      3.43463         0.024735      0.003508      0.013450
      9.85949      3.06130      5.05334        -0.002802     -0.002877      0.004969
      6.31739      2.58312      4.70295         0.000988     -0.004551     -0.008713
     12.25313      4.17493      2.83324        -0.005833     -0.003337     -0.004083
      2.09525      1.75623      3.07324         0.004657      0.002495      0.017263
     11.83128      5.72145      1.13423         0.032210      0.004495     -0.002385
      6.85743      5.74904      1.30355        -0.004400     -0.004307      0.008018
      8.21979      6.81570      3.00225         0.004323      0.009966     -0.001158
      7.04013      4.41026      3.27464        -0.000562     -0.001030      0.004240
     11.12356      3.90011      6.90291         0.001147     -0.003105      0.006530
     10.73608      3.41609      1.01158         0.004943     -0.012824      0.006636
     11.35396      0.81935      4.88330        -0.009356     -0.000007     -0.008981
      9.67608      7.72321      4.95729         0.015033     -0.001929     -0.008388
      7.20385      7.63915      5.11888        -0.005643     -0.014412      0.011553
      5.07803      0.26935      4.93904        -0.006505     -0.009142     -0.002853
 -----------------------------------------------------------------------------------
    total drift:                               -0.021259      0.047473     -0.020501


--------------------------------------------------------------------------------------------------------



  FREE ENERGIE OF THE ION-ELECTRON SYSTEM (eV)
  ---------------------------------------------------
  free  energy   TOTEN  =      -499.64566582 eV

  energy  without entropy=     -499.67516783  energy(sigma->0) =     -499.65549982
 


--------------------------------------------------------------------------------------------------------


    POTLOK:  cpu time    0.4826: real time    0.4837


--------------------------------------------------------------------------------------------------------




--------------------------------------------------------------------------------------------------------


  
 reached required accuracy - stopping structural energy minimisation
     LOOP+:  cpu time 5219.1934: real time 5231.7913
    4ORBIT:  cpu time    0.0000: real time    0.0000

 total amount of memory used by VASP MPI-rank0   255548. kBytes
=======================================================================

   base      :      30000. kBytes
   nonlr-proj:      32965. kBytes
   fftplans  :      20287. kBytes
   grid      :      54627. kBytes
   one-center:        622. kBytes
   wavefun   :     117047. kBytes
 
  
  
 General timing and accounting informations for this job:
 ========================================================
  
                  Total CPU time used (sec):     5242.112
                            User time (sec):     5234.892
                          System time (sec):        7.220
                         Elapsed time (sec):     5255.430
  
                   Maximum memory used (kb):      758996.
                   Average memory used (kb):           0.
  
                          Minor page faults:      1862398
                          Major page faults:            0
                 Voluntary context switches:         3538
