 vasp.5.4.4.18Apr17-6-g9f103f2a35 (build Oct 25 2019 11:13:22) complex          
  
 executed on             LinuxIFC date 2021.10.14  06:51:50
 running on   48 total cores
 distrk:  each k-point on   48 cores,    1 groups
 distr:  one band on NCORES_PER_BAND=   4 cores,   12 groups


--------------------------------------------------------------------------------------------------------


 INCAR:
 POTCAR:    PAW_PBE Pt 04Feb2005                  
 POTCAR:    PAW_PBE Fe 06Sep2000                  
 POTCAR:    PAW_PBE Co 02Aug2007                  
 POTCAR:    PAW_PBE Cu 22Jun2005                  
 POTCAR:    PAW_PBE Ni 02Aug2007                  
 POTCAR:    PAW_PBE H 15Jun2001                   
 POTCAR:    PAW_PBE Pt 04Feb2005                  
   VRHFIN =Pt: s1d9                                                             
   LEXCH  = PE                                                                  
   EATOM  =   729.1176 eV,   53.5886 Ry                                         
                                                                                
   TITEL  = PAW_PBE Pt 04Feb2005                                                
   LULTRA =        F    use ultrasoft PP ?                                      
   IUNSCR =        1    unscreen: 0-lin 1-nonlin 2-no                           
   RPACOR =    2.330    partial core radius                                     
   POMASS =  195.080; ZVAL   =   10.000    mass and valenz                      
   RCORE  =    2.600    outmost cutoff radius                                   
   RWIGS  =    2.750; RWIGS  =    1.455    wigner-seitz radius (au A)           
   ENMAX  =  230.283; ENMIN  =  172.712 eV                                      
   ICORE  =        3    local potential                                         
   LCOR   =        T    correct aug charges                                     
   LPAW   =        T    paw PP                                                  
   EAUG   =  358.966                                                            
   DEXC   =    0.000                                                            
   RMAX   =    2.658    core radius for proj-oper                               
   RAUG   =    1.300    factor for augmentation sphere                          
   RDEP   =    2.761    radius for radial grids                                 
   RDEPT  =    2.203    core radius for aug-charge                              
                                                                                
   Atomic configuration                                                         
   16 entries                                                                   
     n  l   j            E        occ.                                          
     1  0  0.50    -78401.1885   2.0000                                         
     2  0  0.50    -13770.7750   2.0000                                         
     2  1  1.50    -11931.0468   6.0000                                         
     3  0  0.50     -3234.7234   2.0000                                         
     3  1  1.50     -2699.2216   6.0000                                         
     3  2  2.50     -2119.5714  10.0000                                         
     4  0  0.50      -695.1528   2.0000                                         
     4  1  1.50      -519.6034   6.0000                                         
     4  2  2.50      -306.6786  10.0000                                         
     4  3  3.50       -70.1041  14.0000                                         
     5  0  0.50      -101.7747   2.0000                                         
     5  1  1.50       -55.9873   6.0000                                         
     5  2  2.50        -6.1423   9.0000                                         
     6  0  0.50        -5.6573   1.0000                                         
     6  1  1.50        -6.8029   0.0000                                         
     5  3  2.50        -1.3606   0.0000                                         
   Description                                                                  
     l       E           TYP  RCUT    TYP  RCUT                                 
     2     -6.1423404     23  2.500                                             
     2     -7.5029230     23  2.500                                             
     0     -5.6573207     23  2.500                                             
     0      0.7416693     23  2.500                                             
     1     -2.7211652     23  2.600                                             
     1     20.4087390     23  2.600                                             
     3     -1.3605826     23  2.500                                             
  local pseudopotential read in
  partial core-charges read in
  partial kinetic energy density read in
  atomic valenz-charges read in
  non local Contribution for L=           2  read in
    real space projection operators read in
  non local Contribution for L=           2  read in
    real space projection operators read in
  non local Contribution for L=           0  read in
    real space projection operators read in
  non local Contribution for L=           0  read in
    real space projection operators read in
  non local Contribution for L=           1  read in
    real space projection operators read in
  non local Contribution for L=           1  read in
    real space projection operators read in
    PAW grid and wavefunctions read in
 
   number of l-projection  operators is LMAX  =           6
   number of lm-projection operators is LMMAX =          18
 
 POTCAR:    PAW_PBE Fe 06Sep2000                  
   VRHFIN =Fe:  d7 s1                                                           
   LEXCH  = PE                                                                  
   EATOM  =   594.3153 eV,   43.6809 Ry                                         
                                                                                
   TITEL  = PAW_PBE Fe 06Sep2000                                                
   LULTRA =        F    use ultrasoft PP ?                                      
   IUNSCR =        1    unscreen: 0-lin 1-nonlin 2-no                           
   RPACOR =    2.000    partial core radius                                     
   POMASS =   55.847; ZVAL   =    8.000    mass and valenz                      
   RCORE  =    2.300    outmost cutoff radius                                   
   RWIGS  =    2.460; RWIGS  =    1.302    wigner-seitz radius (au A)           
   ENMAX  =  267.882; ENMIN  =  200.911 eV                                      
   RCLOC  =    1.701    cutoff for local pot                                    
   LCOR   =        T    correct aug charges                                     
   LPAW   =        T    paw PP                                                  
   EAUG   =  511.368                                                            
   DEXC   =    0.000                                                            
   RMAX   =    2.356    core radius for proj-oper                               
   RAUG   =    1.300    factor for augmentation sphere                          
   RDEP   =    2.442    radius for radial grids                                 
   RDEPT  =    1.890    core radius for aug-charge                              
                                                                                
   Atomic configuration                                                         
    9 entries                                                                   
     n  l   j            E        occ.                                          
     1  0  0.50     -6993.8440   2.0000                                         
     2  0  0.50      -814.6047   2.0000                                         
     2  1  1.50      -693.3689   6.0000                                         
     3  0  0.50       -89.4732   2.0000                                         
     3  1  1.50       -55.6373   6.0000                                         
     3  2  2.50        -3.8151   7.0000                                         
     4  0  0.50        -4.2551   1.0000                                         
     4  1  1.50        -3.4015   0.0000                                         
     4  3  2.50        -1.3606   0.0000                                         
   Description                                                                  
     l       E           TYP  RCUT    TYP  RCUT                                 
     2     -3.8151135     23  2.300                                             
     2     -5.1756961     23  2.300                                             
     0     -4.2550963     23  2.300                                             
     0      7.2035603     23  2.300                                             
     1     -2.7211652     23  2.300                                             
     1     18.4316424     23  2.300                                             
  local pseudopotential read in
  partial core-charges read in
  partial kinetic energy density read in
  atomic valenz-charges read in
  non local Contribution for L=           2  read in
    real space projection operators read in
  non local Contribution for L=           2  read in
    real space projection operators read in
  non local Contribution for L=           0  read in
    real space projection operators read in
  non local Contribution for L=           0  read in
    real space projection operators read in
  non local Contribution for L=           1  read in
    real space projection operators read in
  non local Contribution for L=           1  read in
    real space projection operators read in
    PAW grid and wavefunctions read in
 
   number of l-projection  operators is LMAX  =           6
   number of lm-projection operators is LMMAX =          18
 
 POTCAR:    PAW_PBE Co 02Aug2007                  
   VRHFIN =Co: d8 s1                                                            
   LEXCH  = PE                                                                  
   EATOM  =   813.3670 eV,   59.7808 Ry                                         
                                                                                
   TITEL  = PAW_PBE Co 02Aug2007                                                
   LULTRA =        F    use ultrasoft PP ?                                      
   IUNSCR =        1    unscreen: 0-lin 1-nonlin 2-no                           
   RPACOR =    2.000    partial core radius                                     
   POMASS =   58.933; ZVAL   =    9.000    mass and valenz                      
   RCORE  =    2.300    outmost cutoff radius                                   
   RWIGS  =    2.460; RWIGS  =    1.302    wigner-seitz radius (au A)           
   ENMAX  =  267.968; ENMIN  =  200.976 eV                                      
   RCLOC  =    1.203    cutoff for local pot                                    
   LCOR   =        T    correct aug charges                                     
   LPAW   =        T    paw PP                                                  
   EAUG   =  477.818                                                            
   DEXC   =    0.000                                                            
   RMAX   =    2.360    core radius for proj-oper                               
   RAUG   =    1.300    factor for augmentation sphere                          
   RDEP   =    2.393    radius for radial grids                                 
   RDEPT  =    1.864    core radius for aug-charge                              
                                                                                
   Atomic configuration                                                         
    9 entries                                                                   
     n  l   j            E        occ.                                          
     1  0  0.50     -7587.6674   2.0000                                         
     2  0  0.50      -893.6084   2.0000                                         
     2  1  1.50      -764.5805   6.0000                                         
     3  0  0.50       -97.5973   2.0000                                         
     3  1  1.50       -60.9648   6.0000                                         
     3  2  2.50        -4.2382   8.0000                                         
     4  0  0.50        -4.3746   1.0000                                         
     4  1  1.50        -4.0817   0.0000                                         
     4  3  2.50        -1.3606   0.0000                                         
   Description                                                                  
     l       E           TYP  RCUT    TYP  RCUT                                 
     2     -4.2382362     23  2.300                                             
     2     -5.5988188     23  2.300                                             
     0     -4.3745797     23  2.300                                             
     0      5.7660125     23  2.300                                             
     1     -2.7211652     23  2.300                                             
     1     16.9860234     23  2.300                                             
  local pseudopotential read in
  partial core-charges read in
  partial kinetic energy density read in
  atomic valenz-charges read in
  non local Contribution for L=           2  read in
    real space projection operators read in
  non local Contribution for L=           2  read in
    real space projection operators read in
  non local Contribution for L=           0  read in
    real space projection operators read in
  non local Contribution for L=           0  read in
    real space projection operators read in
  non local Contribution for L=           1  read in
    real space projection operators read in
  non local Contribution for L=           1  read in
    real space projection operators read in
    PAW grid and wavefunctions read in
 
   number of l-projection  operators is LMAX  =           6
   number of lm-projection operators is LMMAX =          18
 
 POTCAR:    PAW_PBE Cu 22Jun2005                  
   VRHFIN =Cu: d10 p1                                                           
   LEXCH  = PE                                                                  
   EATOM  =  1390.9808 eV,  102.2342 Ry                                         
                                                                                
   TITEL  = PAW_PBE Cu 22Jun2005                                                
   LULTRA =        F    use ultrasoft PP ?                                      
   IUNSCR =        1    unscreen: 0-lin 1-nonlin 2-no                           
   RPACOR =    2.000    partial core radius                                     
   POMASS =   63.546; ZVAL   =   11.000    mass and valenz                      
   RCORE  =    2.300    outmost cutoff radius                                   
   RWIGS  =    2.200; RWIGS  =    1.164    wigner-seitz radius (au A)           
   ENMAX  =  295.446; ENMIN  =  221.585 eV                                      
   ICORE  =        3    local potential                                         
   LCOR   =        T    correct aug charges                                     
   LPAW   =        T    paw PP                                                  
   EAUG   =  586.980                                                            
   DEXC   =    0.000                                                            
   RMAX   =    2.344    core radius for proj-oper                               
   RAUG   =    1.300    factor for augmentation sphere                          
   RDEP   =    2.302    radius for radial grids                                 
   RDEPT  =    1.771    core radius for aug-charge                              
                                                                                
   Atomic configuration                                                         
    9 entries                                                                   
     n  l   j            E        occ.                                          
     1  0  0.50     -8850.2468   2.0000                                         
     2  0  0.50     -1062.3498   2.0000                                         
     2  1  1.50      -916.8226   6.0000                                         
     3  0  0.50      -114.6929   2.0000                                         
     3  1  1.50       -72.1325   6.0000                                         
     3  2  2.50        -5.0394  10.0000                                         
     4  0  0.50        -4.6097   1.0000                                         
     4  1  0.50        -4.0817   0.0000                                         
     4  3  2.50        -1.3606   0.0000                                         
   Description                                                                  
     l       E           TYP  RCUT    TYP  RCUT                                 
     2     -5.0393973     23  2.200                                             
     2     10.8846608     23  2.200                                             
     0     -4.6097109     23  2.200                                             
     0      8.2520465     23  2.200                                             
     1     -2.7211652     23  2.200                                             
     1     21.7055443     23  2.200                                             
     3      2.7211652     23  2.300                                             
  local pseudopotential read in
  partial core-charges read in
  partial kinetic energy density read in
  atomic valenz-charges read in
  non local Contribution for L=           2  read in
    real space projection operators read in
  non local Contribution for L=           2  read in
    real space projection operators read in
  non local Contribution for L=           0  read in
    real space projection operators read in
  non local Contribution for L=           0  read in
    real space projection operators read in
  non local Contribution for L=           1  read in
    real space projection operators read in
  non local Contribution for L=           1  read in
    real space projection operators read in
    PAW grid and wavefunctions read in
 
   number of l-projection  operators is LMAX  =           6
   number of lm-projection operators is LMMAX =          18
 
 POTCAR:    PAW_PBE Ni 02Aug2007                  
   VRHFIN =Ni:                                                                  
   LEXCH  = PE                                                                  
   EATOM  =  1077.6739 eV,   79.2068 Ry                                         
                                                                                
   TITEL  = PAW_PBE Ni 02Aug2007                                                
   LULTRA =        F    use ultrasoft PP ?                                      
   IUNSCR =        1    unscreen: 0-lin 1-nonlin 2-no                           
   RPACOR =    2.000    partial core radius                                     
   POMASS =   58.690; ZVAL   =   10.000    mass and valenz                      
   RCORE  =    2.300    outmost cutoff radius                                   
   RWIGS  =    2.430; RWIGS  =    1.286    wigner-seitz radius (au A)           
   ENMAX  =  269.532; ENMIN  =  202.149 eV                                      
   RCLOC  =    1.201    cutoff for local pot                                    
   LCOR   =        T    correct aug charges                                     
   LPAW   =        T    paw PP                                                  
   EAUG   =  544.565                                                            
   DEXC   =    0.000                                                            
   RMAX   =    2.357    core radius for proj-oper                               
   RAUG   =    1.300    factor for augmentation sphere                          
   RDEP   =    2.390    radius for radial grids                                 
   RDEPT  =    1.838    core radius for aug-charge                              
                                                                                
   Atomic configuration                                                         
    9 entries                                                                   
     n  l   j            E        occ.                                          
     1  0  0.50     -8206.4253   2.0000                                         
     2  0  0.50      -976.1748   2.0000                                         
     2  1  1.50      -839.0571   6.0000                                         
     3  0  0.50      -105.9991   2.0000                                         
     3  1  1.50       -66.4603   6.0000                                         
     3  2  2.50        -4.6458   9.0000                                         
     4  0  0.50        -4.4926   1.0000                                         
     4  1  1.50        -4.0817   0.0000                                         
     4  3  2.50        -1.3606   0.0000                                         
   Description                                                                  
     l       E           TYP  RCUT    TYP  RCUT                                 
     2     -4.6457903     23  2.300                                             
     2     -6.0063729     23  2.300                                             
     0     -4.4925590     23  2.300                                             
     0      5.0102601     23  2.300                                             
     1     -2.7211652     23  2.300                                             
     1     16.5183231     23  2.300                                             
  local pseudopotential read in
  partial core-charges read in
  partial kinetic energy density read in
  atomic valenz-charges read in
  non local Contribution for L=           2  read in
    real space projection operators read in
  non local Contribution for L=           2  read in
    real space projection operators read in
  non local Contribution for L=           0  read in
    real space projection operators read in
  non local Contribution for L=           0  read in
    real space projection operators read in
  non local Contribution for L=           1  read in
    real space projection operators read in
  non local Contribution for L=           1  read in
    real space projection operators read in
    PAW grid and wavefunctions read in
 
   number of l-projection  operators is LMAX  =           6
   number of lm-projection operators is LMMAX =          18
 
 POTCAR:    PAW_PBE H 15Jun2001                   
   VRHFIN =H: ultrasoft test                                                    
   LEXCH  = PE                                                                  
   EATOM  =    12.4884 eV,    0.9179 Ry                                         
                                                                                
   TITEL  = PAW_PBE H 15Jun2001                                                 
   LULTRA =        F    use ultrasoft PP ?                                      
   IUNSCR =        0    unscreen: 0-lin 1-nonlin 2-no                           
   RPACOR =    0.000    partial core radius                                     
   POMASS =    1.000; ZVAL   =    1.000    mass and valenz                      
   RCORE  =    1.100    outmost cutoff radius                                   
   RWIGS  =    0.700; RWIGS  =    0.370    wigner-seitz radius (au A)           
   ENMAX  =  250.000; ENMIN  =  200.000 eV                                      
   RCLOC  =    0.701    cutoff for local pot                                    
   LCOR   =        T    correct aug charges                                     
   LPAW   =        T    paw PP                                                  
   EAUG   =  400.000                                                            
   RMAX   =    1.123    core radius for proj-oper                               
   RAUG   =    1.200    factor for augmentation sphere                          
   RDEP   =    1.112    radius for radial grids                                 
   RDEPT  =    0.926    core radius for aug-charge                              
                                                                                
   Atomic configuration                                                         
    2 entries                                                                   
     n  l   j            E        occ.                                          
     1  0  0.50        -6.4927   1.0000                                         
     2  1  0.50        -3.4015   0.0000                                         
   Description                                                                  
     l       E           TYP  RCUT    TYP  RCUT                                 
     0     -6.4927494     23  1.100                                             
     0      6.8029130     23  1.100                                             
     1     -4.0817478     23  1.100                                             
  local pseudopotential read in
  atomic valenz-charges read in
  non local Contribution for L=           0  read in
    real space projection operators read in
  non local Contribution for L=           0  read in
    real space projection operators read in
  non local Contribution for L=           1  read in
    real space projection operators read in
    PAW grid and wavefunctions read in
 
   number of l-projection  operators is LMAX  =           3
   number of lm-projection operators is LMMAX =           5
 
 Optimization of the real space projectors (new method)

 maximal supplied QI-value         = 14.36
 optimisation between [QCUT,QGAM] = [ 11.92, 23.98] = [ 39.79,161.09] Ry 
 Optimized for a Real-space Cutoff    1.49 Angstroem

   l    n(q)    QCUT    max X(q) W(low)/X(q) W(high)/X(q)  e(spline) 
   2     10    11.920    66.195    0.79E-04    0.18E-03    0.24E-06
   2     10    11.920    64.643    0.81E-04    0.19E-03    0.24E-06
   0     11    11.920    95.520    0.28E-04    0.54E-04    0.18E-06
   0     11    11.920    63.403    0.27E-04    0.52E-04    0.17E-06
   1     10    11.920    19.961    0.18E-04    0.11E-03    0.23E-06
   1     10    11.920    13.289    0.25E-04    0.87E-04    0.19E-06
 Optimization of the real space projectors (new method)

 maximal supplied QI-value         = 16.25
 optimisation between [QCUT,QGAM] = [ 11.86, 23.89] = [ 39.41,159.82] Ry 
 Optimized for a Real-space Cutoff    1.49 Angstroem

   l    n(q)    QCUT    max X(q) W(low)/X(q) W(high)/X(q)  e(spline) 
   2     10    11.864    80.901    0.13E-03    0.23E-03    0.37E-06
   2     10    11.864    75.754    0.13E-03    0.23E-03    0.38E-06
   0     11    11.864    58.752    0.44E-04    0.11E-04    0.20E-06
   0     11    11.864    30.679    0.36E-04    0.10E-04    0.18E-06
   1     10    11.864    17.977    0.31E-04    0.45E-04    0.10E-06
   1     10    11.864    13.559    0.25E-04    0.37E-04    0.89E-07
 Optimization of the real space projectors (new method)

 maximal supplied QI-value         = 16.25
 optimisation between [QCUT,QGAM] = [ 11.86, 23.89] = [ 39.41,159.82] Ry 
 Optimized for a Real-space Cutoff    1.33 Angstroem

   l    n(q)    QCUT    max X(q) W(low)/X(q) W(high)/X(q)  e(spline) 
   2      9    11.864    65.824    0.22E-03    0.53E-03    0.26E-06
   2      9    11.864    61.429    0.22E-03    0.53E-03    0.26E-06
   0      9    11.864    56.174    0.21E-03    0.32E-04    0.15E-06
   0      9    11.864    31.263    0.19E-03    0.30E-04    0.14E-06
   1      9    11.864    19.828    0.63E-04    0.30E-03    0.16E-06
   1      9    11.864    15.139    0.49E-04    0.25E-03    0.13E-06
 Optimization of the real space projectors (new method)

 maximal supplied QI-value         = 16.25
 optimisation between [QCUT,QGAM] = [ 11.86, 23.89] = [ 39.41,159.82] Ry 
 Optimized for a Real-space Cutoff    1.49 Angstroem

   l    n(q)    QCUT    max X(q) W(low)/X(q) W(high)/X(q)  e(spline) 
   2     10    11.864     4.610    0.10E-03    0.20E-03    0.29E-06
   2     10    11.864     8.522    0.17E-03    0.33E-03    0.50E-06
   0     11    11.864    51.609    0.52E-04    0.55E-04    0.33E-06
   0     11    11.864    27.747    0.46E-04    0.52E-04    0.31E-06
   1     10    11.864    20.408    0.54E-04    0.25E-04    0.21E-06
   1     10    11.864    13.425    0.48E-04    0.22E-04    0.18E-06
 Optimization of the real space projectors (new method)

 maximal supplied QI-value         = 16.25
 optimisation between [QCUT,QGAM] = [ 11.86, 23.89] = [ 39.41,159.82] Ry 
 Optimized for a Real-space Cutoff    1.33 Angstroem

   l    n(q)    QCUT    max X(q) W(low)/X(q) W(high)/X(q)  e(spline) 
   2      9    11.864    60.317    0.21E-03    0.51E-03    0.25E-06
   2      9    11.864    55.921    0.21E-03    0.51E-03    0.26E-06
   0      9    11.864    51.690    0.22E-03    0.30E-04    0.17E-06
   0      9    11.864    30.015    0.20E-03    0.28E-04    0.15E-06
   1      9    11.864    18.849    0.76E-04    0.33E-03    0.17E-06
   1      9    11.864    14.624    0.60E-04    0.28E-03    0.15E-06
 Optimization of the real space projectors (new method)

 maximal supplied QI-value         = 34.20
 optimisation between [QCUT,QGAM] = [ 11.97, 23.94] = [ 40.13,160.53] Ry 
 Optimized for a Real-space Cutoff    1.18 Angstroem

   l    n(q)    QCUT    max X(q) W(low)/X(q) W(high)/X(q)  e(spline) 
   0      8    11.971    19.460    0.15E-03    0.31E-03    0.25E-06
   0      8    11.971    12.209    0.13E-03    0.29E-03    0.25E-06
   1      8    11.971     4.655    0.22E-03    0.24E-03    0.21E-06
  PAW_PBE Pt 04Feb2005                  :
 energy of atom  1       EATOM= -729.1176
 kinetic energy error for atom=    0.0021 (will be added to EATOM!!)
  PAW_PBE Fe 06Sep2000                  :
 energy of atom  2       EATOM= -594.3153
 kinetic energy error for atom=    0.0024 (will be added to EATOM!!)
  PAW_PBE Co 02Aug2007                  :
 energy of atom  3       EATOM= -813.3670
 kinetic energy error for atom=    0.0026 (will be added to EATOM!!)
  PAW_PBE Cu 22Jun2005                  :
 energy of atom  4       EATOM=-1390.9808
 kinetic energy error for atom=    0.0036 (will be added to EATOM!!)
  PAW_PBE Ni 02Aug2007                  :
 energy of atom  5       EATOM=-1077.6739
 kinetic energy error for atom=    0.0027 (will be added to EATOM!!)
  PAW_PBE H 15Jun2001                   :
 energy of atom  6       EATOM=  -12.4884
 kinetic energy error for atom=    0.0008 (will be added to EATOM!!)
 
 
 POSCAR: 10.66                                   
  positions in direct lattice
  velocities in cartesian coordinates
 exchange correlation table for  LEXCH =        8
   RHO(1)=    0.500       N(1)  =     2000
   RHO(2)=  100.500       N(2)  =     4000
 


--------------------------------------------------------------------------------------------------------


 ion  position               nearest neighbor table
   1  0.787  0.879  0.317-  49 2.62  28 2.62  59 2.64  19 2.66  33 2.68  61 2.68  29 2.70  60 2.70
                             2 2.74  11 2.76   4 2.84  12 2.84
   2  0.042  0.882  0.316-  79 2.56  77 2.60  60 2.65  30 2.66  28 2.67  52 2.69  33 2.69  22 2.71
                             1 2.74   6 2.79   4 2.87  16 2.94
   3  0.279  0.381  0.319-  64 2.57  39 2.59  33 2.61  31 2.63  68 2.71  19 2.73  43 2.73  30 2.73
                             5 2.77  13 2.79  25 2.84  18 2.84
   4  0.870  0.964  0.425-  81 1.81  17 2.63  11 2.64   9 2.67  12 2.70   6 2.72  16 2.74  60 2.83
                             1 2.84   2 2.87
   5  0.121  0.462  0.426-  16 2.63  12 2.64  10 2.65   7 2.65  13 2.70  25 2.70  39 2.71  33 2.72
                             3 2.77
   6  0.125  0.964  0.422-   8 2.63  10 2.65   9 2.68  14 2.69   4 2.72  16 2.74   2 2.79  52 2.80
                            22 2.86
   7  0.874  0.460  0.425-   9 2.64  15 2.64   5 2.65  10 2.66  12 2.66  39 2.69  27 2.69  75 2.75
                            29 2.79
   8  0.374  0.960  0.419-  43 2.60   6 2.63  14 2.64  27 2.65  13 2.66  11 2.67  10 2.67  52 2.68
                            61 2.71
   9  0.872  0.213  0.419-  15 2.64   7 2.64  17 2.66  75 2.66   4 2.67   6 2.68  10 2.69  60 2.71
                            22 2.80
  10  0.125  0.212  0.421-  13 2.64   5 2.65   6 2.65   7 2.66  39 2.66   8 2.67   9 2.69  43 2.72
                            22 2.77
  11  0.624  0.961  0.422-  81 1.87   4 2.64  13 2.66  27 2.66  12 2.66   8 2.67  17 2.67   1 2.76
                            19 2.81  61 2.82
  12  0.873  0.710  0.424-   5 2.64   7 2.66  27 2.66  11 2.66  33 2.69  16 2.69   4 2.70  29 2.78
                             1 2.84
  13  0.374  0.209  0.423-  10 2.64  11 2.66   8 2.66  17 2.67  25 2.69   5 2.70  43 2.75   3 2.79
                            19 2.81
  14  0.377  0.712  0.422-  27 2.61   8 2.64  15 2.65  44 2.67  25 2.68   6 2.69  16 2.70  52 2.73
                            30 2.75
  15  0.626  0.462  0.421-   9 2.64   7 2.64  27 2.65  14 2.65  25 2.68  17 2.68  44 2.69  75 2.71
                            18 2.76
  16  0.127  0.707  0.427-  25 2.63   5 2.63  12 2.69  14 2.70  33 2.71   4 2.74   6 2.74  30 2.84
                             2 2.94
  17  0.624  0.211  0.421-  81 1.82   4 2.63   9 2.66  25 2.66  11 2.67  13 2.67  15 2.68  18 2.75
                            60 2.77  19 2.85
  18  0.548  0.376  0.316-  67 2.56  60 2.62  75 2.63  68 2.65  26 2.66  44 2.66  30 2.74  17 2.75
                            19 2.75  15 2.76   3 2.84  25 2.86
  19  0.534  0.125  0.314-  80 2.55  68 2.57  43 2.58  59 2.60   1 2.66  61 2.66   3 2.73  18 2.75
                            60 2.78  13 2.81  11 2.81  17 2.85
  20  0.549  0.122  0.042-  37 2.55  57 2.55  48 2.57  62 2.66  63 2.70  34 2.71  45 2.73  47 2.74
                            56 2.74
  21  0.120  0.460  0.128-  40 2.52  36 2.53  47 2.53  42 2.60  64 2.62  69 2.62  70 2.66  50 2.67
                            31 2.71  58 2.71  57 2.74  74 2.75
  22  0.044  0.136  0.314-  65 2.52  55 2.54  77 2.57  43 2.60  39 2.61  75 2.64   2 2.71  60 2.71
                            52 2.75  10 2.77   9 2.80   6 2.86  31 3.41
  23  0.042  0.131  0.034-  70 2.57  40 2.60  41 2.61  45 2.64  62 2.65  76 2.65  24 2.69  35 2.76
                            53 2.81
  24  0.131  0.958  0.132-  79 2.52  77 2.55  35 2.57  53 2.58  55 2.59  70 2.64  38 2.66  58 2.66
                            73 2.67  23 2.69  66 2.73  41 2.75
  25  0.375  0.461  0.424-  16 2.63  17 2.66  15 2.68  14 2.68  13 2.69   5 2.70  30 2.82   3 2.84
                            18 2.86
  26  0.455  0.546  0.219-  73 2.50  74 2.54  51 2.55  79 2.63  64 2.65  30 2.66  18 2.66  68 2.69
                            78 2.69  32 2.70  44 2.74  67 2.75
  27  0.622  0.712  0.423-  14 2.61   8 2.65  15 2.65  11 2.66  12 2.66   7 2.69  44 2.70  61 2.77
                            29 2.78
  28  0.956  0.789  0.221-  58 2.56  66 2.58  50 2.58  42 2.61   1 2.62  49 2.64  64 2.66   2 2.67
                            33 2.70  59 2.74  79 2.80  77 2.81
  29  0.794  0.623  0.319-  42 2.56  39 2.56  75 2.60  32 2.62  44 2.67  33 2.67  49 2.68  61 2.70
                             1 2.70  12 2.78  27 2.78   7 2.79
  30  0.290  0.631  0.318-  79 2.56  64 2.61  52 2.63  26 2.66  44 2.66   2 2.66  33 2.67   3 2.73
                            18 2.74  14 2.75  25 2.82  16 2.84
  31  0.202  0.280  0.225-  70 2.51  55 2.58  43 2.58  65 2.59  57 2.60   3 2.63  39 2.66  21 2.71
                            80 2.72  42 2.74  68 2.79  64 2.83  22 3.41
  32  0.706  0.550  0.221-  54 2.53  69 2.56  51 2.58  49 2.60  29 2.62  42 2.62  78 2.64  65 2.65
                            75 2.68  44 2.69  26 2.70  67 2.72
  33  0.040  0.632  0.325-   3 2.61  30 2.67  39 2.67  29 2.67   1 2.68  12 2.69   2 2.69  28 2.70
                            64 2.70  16 2.71   5 2.72  42 2.73
  34  0.796  0.862  0.044-  50 2.39  66 2.51  48 2.52  36 2.55  71 2.58  63 2.62  20 2.71  62 2.79
                            35 2.80
  35  0.057  0.865  0.039-  58 2.54  72 2.55  36 2.56  24 2.57  66 2.62  53 2.68  23 2.76  62 2.76
                            34 2.80
  36  0.044  0.632  0.039-  21 2.53  34 2.55  35 2.56  58 2.58  50 2.59  47 2.67  72 2.69  71 2.74
                            40 2.76
  37  0.628  0.224  0.129-  51 2.51  67 2.52  56 2.52  74 2.53  20 2.55  68 2.56  59 2.56  41 2.57
                            62 2.59  66 2.69  57 2.76  48 2.95
  38  0.383  0.954  0.131-  53 2.46  45 2.47  80 2.47  78 2.53  73 2.56  63 2.56  48 2.56  54 2.58
                            55 2.58  57 2.65  24 2.66  70 2.70
  39  0.035  0.384  0.324-  29 2.56   3 2.59  75 2.60  22 2.61  42 2.65  10 2.66  31 2.66  33 2.67
                             7 2.69   5 2.71  65 2.74  43 2.82
  40  0.028  0.381  0.039-  69 2.42  21 2.52  71 2.54  76 2.54  70 2.56  23 2.60  36 2.76  45 2.84
                            47 2.85
  41  0.872  0.215  0.129-  76 2.45  65 2.52  77 2.53  67 2.53  37 2.57  62 2.57  69 2.59  23 2.61
                            51 2.61  70 2.68  66 2.68  24 2.75
  42  0.955  0.545  0.224-  50 2.55  29 2.56  69 2.60  21 2.60  28 2.61  32 2.62  49 2.65  39 2.65
                            65 2.65  64 2.69  33 2.73  31 2.74
  43  0.296  0.116  0.320-  55 2.52  52 2.57  31 2.58  19 2.58  61 2.59   8 2.60  22 2.60  80 2.64
                            10 2.72   3 2.73  13 2.75  39 2.82
  44  0.541  0.629  0.321-  61 2.59  52 2.60  78 2.63  30 2.66  18 2.66  14 2.67  29 2.67  75 2.68
                            15 2.69  32 2.69  27 2.70  26 2.74
  45  0.296  0.116  0.041-  38 2.47  70 2.49  57 2.57  53 2.58  23 2.64  63 2.65  20 2.73  47 2.83
                            40 2.84
  46  0.549  0.625  0.045-  51 2.38  73 2.39  54 2.41  71 2.57  53 2.59  63 2.60  76 2.62  56 2.63
                            72 2.66
  47  0.294  0.382  0.040-  74 2.41  21 2.53  57 2.64  72 2.65  56 2.66  36 2.67  20 2.74  45 2.83
                            40 2.85
  48  0.626  0.948  0.133-  49 2.39  54 2.48  80 2.49  34 2.52  59 2.56  63 2.56  38 2.56  20 2.57
                            50 2.58  57 2.68  66 2.72  37 2.95
  49  0.707  0.793  0.220-  48 2.39  50 2.47  54 2.48  80 2.57  32 2.60   1 2.62  61 2.63  28 2.64
                            78 2.64  42 2.65  29 2.68  59 2.73
  50  0.865  0.704  0.130-  34 2.39  71 2.42  49 2.47  54 2.49  42 2.55  48 2.58  28 2.58  69 2.58
                            36 2.59  21 2.67  66 2.81  58 2.90
  51  0.627  0.460  0.128-  46 2.38  76 2.44  56 2.51  37 2.51  26 2.55  32 2.58  41 2.61  67 2.62
                            73 2.63  69 2.64  74 2.65  54 2.72
  52  0.298  0.874  0.318-  55 2.44  79 2.52  78 2.52  61 2.56  43 2.57  44 2.60  30 2.63   8 2.68
                             2 2.69  14 2.73  22 2.75   6 2.80
  53  0.307  0.869  0.042-  73 2.42  38 2.46  63 2.57  24 2.58  45 2.58  46 2.59  72 2.61  35 2.68
                            23 2.81
  54  0.627  0.715  0.129-  46 2.41  71 2.46  63 2.48  48 2.48  49 2.48  50 2.49  32 2.53  38 2.58
                            73 2.58  78 2.62  69 2.70  51 2.72
  55  0.225  0.027  0.228-  52 2.44  78 2.48  79 2.51  43 2.52  80 2.54  22 2.54  31 2.58  38 2.58
                            24 2.59  70 2.72  77 2.75  65 2.90
  56  0.544  0.381  0.036-  74 2.50  51 2.51  37 2.52  76 2.61  46 2.63  72 2.64  47 2.66  62 2.72
                            20 2.74
  57  0.379  0.204  0.133-  68 2.46  80 2.54  20 2.55  45 2.57  31 2.60  47 2.64  38 2.65  74 2.66
                            70 2.66  48 2.68  21 2.74  37 2.76
  58  0.137  0.705  0.133-  72 2.46  64 2.50  35 2.54  28 2.56  79 2.57  36 2.58  74 2.66  24 2.66
                            73 2.70  21 2.71  50 2.90
  59  0.705  0.051  0.220-  66 2.52  48 2.56  37 2.56  19 2.60  68 2.61  67 2.61  60 2.62   1 2.64
                            77 2.69  80 2.71  49 2.73  28 2.74
  60  0.793  0.129  0.317-  67 2.53  77 2.57  59 2.62  18 2.62   2 2.65  75 2.67   1 2.70   9 2.71
                            22 2.71  17 2.77  19 2.78   4 2.83
  61  0.539  0.873  0.317-  78 2.49  80 2.52  52 2.56  43 2.59  44 2.59  49 2.63  19 2.66   1 2.68
                            29 2.70   8 2.71  27 2.77  11 2.82
  62  0.797  0.123  0.036-  66 2.53  41 2.57  37 2.59  23 2.65  20 2.66  76 2.68  56 2.72  35 2.76
                            34 2.79
  63  0.546  0.870  0.037-  54 2.48  38 2.56  48 2.56  53 2.57  46 2.60  34 2.62  71 2.63  45 2.65
                            20 2.70
  64  0.208  0.542  0.224-  58 2.50   3 2.57  30 2.61  21 2.62  26 2.65  28 2.66  68 2.66  74 2.67
                            42 2.69  33 2.70  79 2.76  31 2.83
  65  0.951  0.297  0.222-  69 2.52  22 2.52  41 2.52  67 2.55  77 2.58  31 2.59  75 2.61  70 2.61
                            32 2.65  42 2.65  39 2.74  55 2.90
  66  0.872  0.964  0.130-  34 2.51  59 2.52  62 2.53  77 2.58  28 2.58  35 2.62  41 2.68  37 2.69
                            48 2.72  24 2.73  50 2.81
  67  0.715  0.290  0.224-  37 2.52  60 2.53  41 2.53  77 2.54  65 2.55  18 2.56  59 2.61  51 2.62
                            75 2.63  32 2.72  68 2.74  26 2.75
  68  0.457  0.292  0.221-  57 2.46  74 2.54  37 2.56  19 2.57  59 2.61  18 2.65  64 2.66  26 2.69
                             3 2.71  67 2.74  80 2.78  31 2.79
  69  0.875  0.457  0.129-  40 2.42  71 2.45  76 2.46  65 2.52  32 2.56  50 2.58  41 2.59  42 2.60
                            21 2.62  51 2.64  70 2.68  54 2.70
  70  0.128  0.206  0.129-  45 2.49  31 2.51  40 2.56  23 2.57  65 2.61  24 2.64  21 2.66  57 2.66
                            41 2.68  69 2.68  38 2.70  55 2.72
  71  0.792  0.622  0.041-  50 2.42  69 2.45  54 2.46  40 2.54  46 2.57  34 2.58  76 2.61  63 2.63
                            36 2.74
  72  0.298  0.629  0.044-  74 2.46  58 2.46  73 2.47  35 2.55  53 2.61  56 2.64  47 2.65  46 2.66
                            36 2.69
  73  0.386  0.713  0.130-  46 2.39  53 2.42  72 2.47  26 2.50  78 2.54  38 2.56  54 2.58  79 2.63
                            51 2.63  24 2.67  58 2.70  74 2.80
  74  0.382  0.451  0.127-  47 2.41  72 2.46  56 2.50  37 2.53  68 2.54  26 2.54  51 2.65  57 2.66
                            58 2.66  64 2.67  21 2.75  73 2.80
  75  0.793  0.380  0.320-  29 2.60  39 2.60  65 2.61  67 2.63  18 2.63  22 2.64   9 2.66  60 2.67
                            44 2.68  32 2.68  15 2.71   7 2.75
  76  0.791  0.377  0.041-  51 2.44  41 2.45  69 2.46  40 2.54  56 2.61  71 2.61  46 2.62  23 2.65
                            62 2.68
  77  0.956  0.053  0.222-  41 2.53  67 2.54  24 2.55  22 2.57  60 2.57  66 2.58  65 2.58   2 2.60
                            59 2.69  79 2.74  55 2.75  28 2.81
  78  0.458  0.796  0.225-  55 2.48  61 2.49  80 2.50  52 2.52  38 2.53  73 2.54  79 2.59  54 2.62
                            44 2.63  49 2.64  32 2.64  26 2.69
  79  0.215  0.798  0.225-  55 2.51  24 2.52  52 2.52   2 2.56  30 2.56  58 2.57  78 2.59  73 2.63
                            26 2.63  77 2.74  64 2.76  28 2.80
  80  0.462  0.029  0.223-  38 2.47  48 2.49  78 2.50  61 2.52  55 2.54  57 2.54  19 2.55  49 2.57
                            43 2.64  59 2.71  31 2.72  68 2.78
  81  0.705  0.050  0.468-   4 1.81  17 1.82  11 1.87
 
  LATTYP: Found a hexagonal cell.
 ALAT       =    10.6599998474
 C/A-ratio  =     2.0637898982
  
  Lattice vectors:
  
 A1 = (   5.3299999237,  -9.2318306722,   0.0000000000)
 A2 = ( -10.6599998474,   0.0000000000,   0.0000000000)
 A3 = (   0.0000000000,   0.0000000000, -22.0000000000)


Analysis of symmetry for initial positions (statically):
=====================================================================
 Subroutine PRICEL returns:
 Original cell was already a primitive cell.
 

 Routine SETGRP: Setting up the symmetry group for a 
 hexagonal supercell.


 Subroutine GETGRP returns: Found  1 space group operations
 (whereof  1 operations were pure point group operations)
 out of a pool of 24 trial point group operations.


The static configuration has the point symmetry C_1 .


Analysis of symmetry for dynamics (positions and initial velocities):
=====================================================================
 Subroutine PRICEL returns:
 Original cell was already a primitive cell.
 

 Routine SETGRP: Setting up the symmetry group for a 
 hexagonal supercell.


 Subroutine GETGRP returns: Found  1 space group operations
 (whereof  1 operations were pure point group operations)
 out of a pool of 24 trial point group operations.


The dynamic configuration has the point symmetry C_1 .


Analysis of constrained symmetry for selective dynamics:
=====================================================================
 Subroutine PRICEL returns:
 Original cell was already a primitive cell.
 

 Routine SETGRP: Setting up the symmetry group for a 
 hexagonal supercell.


 Subroutine GETGRP returns: Found  1 space group operations
 (whereof  1 operations were pure point group operations)
 out of a pool of 24 trial point group operations.


The constrained configuration has the point symmetry C_1 .


Analysis of structural, dynamic, and magnetic symmetry:
=====================================================================
 Subroutine PRICEL returns:
 Original cell was already a primitive cell.
 

 Routine SETGRP: Setting up the symmetry group for a 
 hexagonal supercell.


 Subroutine GETGRP returns: Found  1 space group operations
 (whereof  1 operations were pure point group operations)
 out of a pool of 24 trial point group operations.


The magnetic configuration has the point symmetry C_1 .


 Subroutine INISYM returns: Found  1 space group operations
 (whereof  1 operations are pure point group operations),
 and found     1 'primitive' translations

 
 
 KPOINTS: mesh auto                               

Automatic generation of k-mesh.
Space group operators:
 irot       det(A)        alpha          n_x          n_y          n_z        tau_x        tau_y        tau_z
    1     1.000000     0.000000     1.000000     0.000000     0.000000     0.000000     0.000000     0.000000
 
 Subroutine IBZKPT returns following result:
 ===========================================
 
 Found      4 irreducible k-points:
 
 Following reciprocal coordinates:
            Coordinates               Weight
  0.000000  0.000000  0.000000      1.000000
  0.500000 -0.000000  0.000000      1.000000
  0.000000  0.500000  0.000000      1.000000
  0.500000  0.500000  0.000000      1.000000
 
 Following cartesian coordinates:
            Coordinates               Weight
  0.000000  0.000000  0.000000      1.000000
  0.046904 -0.027080  0.000000      1.000000
  0.000000  0.054160  0.000000      1.000000
  0.046904  0.027080  0.000000      1.000000
 


--------------------------------------------------------------------------------------------------------




 Dimension of arrays:
   k-points           NKPTS =      4   k-points in BZ     NKDIM =      4   number of bands    NBANDS=    588
   number of dos      NEDOS =    301   number of ions     NIONS =     81
   non local maximal  LDIM  =      6   non local SUM 2l+1 LMDIM =     18
   total plane-waves  NPLWV = ******
   max r-space proj   IRMAX =   7657   max aug-charges    IRDMAX=  33358
   dimension x,y,z NGX =    84 NGY =   84 NGZ =  168
   dimension x,y,z NGXF=   168 NGYF=  168 NGZF=  336
   support grid    NGXF=   168 NGYF=  168 NGZF=  336
   ions per type =              32  13  10  13  12   1
   NGX,Y,Z   is equivalent  to a cutoff of  13.10, 13.10, 12.70 a.u.
   NGXF,Y,Z  is equivalent  to a cutoff of  26.20, 26.20, 25.39 a.u.

 SYSTEM =  Pt111                                   
 POSCAR =  10.66                                   

 Startparameter for this run:
   NWRITE =      2    write-flag & timer
   PREC   = accura    normal or accurate (medium, high low for compatibility)
   ISTART =      0    job   : 0-new  1-cont  2-samecut
   ICHARG =      2    charge: 1-file 2-atom 10-const
   ISPIN  =      2    spin polarized calculation?
   LNONCOLLINEAR =      F non collinear calculations
   LSORBIT =      F    spin-orbit coupling
   INIWAV =      1    electr: 0-lowe 1-rand  2-diag
   LASPH  =      F    aspherical Exc in radial PAW
   METAGGA=      F    non-selfconsistent MetaGGA calc.

 Electronic Relaxation 1
   ENCUT  =  550.0 eV  40.42 Ry    6.36 a.u.  20.38 20.38 42.07*2*pi/ulx,y,z
   ENINI  =  550.0     initial cutoff
   ENAUG  =  587.0 eV  augmentation charge cutoff
   NELM   =    200;   NELMIN=  2; NELMDL= -5     # of ELM steps 
   EDIFF  = 0.1E-04   stopping-criterion for ELM
   LREAL  =      T    real-space projection
   NLSPLINE    = F    spline interpolate recip. space projectors
   LCOMPAT=      F    compatible to vasp.4.4
   GGA_COMPAT  = T    GGA compatible to vasp.4.4-vasp.4.6
   LMAXPAW     = -100 max onsite density
   LMAXMIX     =    2 max onsite mixed and CHGCAR
   VOSKOWN=      0    Vosko Wilk Nusair interpolation
   ROPT   =   -0.00025  -0.00025  -0.00025  -0.00025
   ROPT   =   -0.00025  -0.00025
 Ionic relaxation
   EDIFFG = -.5E-01   stopping-criterion for IOM
   NSW    =    300    number of steps for IOM
   NBLOCK =      1;   KBLOCK =    300    inner block; outer block 
   IBRION =      2    ionic relax: 0-MD 1-quasi-New 2-CG
   NFREE  =      1    steps in history (QN), initial steepest desc. (CG)
   ISIF   =      2    stress and relaxation
   IWAVPR =     11    prediction:  0-non 1-charg 2-wave 3-comb
   ISYM   =      2    0-nonsym 1-usesym 2-fastsym
   LCORR  =      T    Harris-Foulkes like correction to forces

   POTIM  = 0.5000    time-step for ionic-motion
   TEIN   =    0.0    initial temperature
   TEBEG  =    0.0;   TEEND  =   0.0 temperature during run
   SMASS  =  -3.00    Nose mass-parameter (am)
   estimated Nose-frequenzy (Omega)   =  0.10E-29 period in steps =****** mass=  -0.260E-26a.u.
   SCALEE = 1.0000    scale energy and forces
   NPACO  =    256;   APACO  = 16.0  distance and # of slots for P.C.
   PSTRESS=    0.0 pullay stress

  Mass of Ions in am
   POMASS = 195.08 55.85 58.93 63.55 58.69  1.00
  Ionic Valenz
   ZVAL   =  10.00  8.00  9.00 11.00 10.00  1.00
  Atomic Wigner-Seitz radii
   RWIGS  =  -1.00 -1.00 -1.00 -1.00 -1.00 -1.00
  virtual crystal weights 
   VCA    =   1.00  1.00  1.00  1.00  1.00  1.00
   NELECT =     778.0000    total number of electrons
   NUPDOWN=      -1.0000    fix difference up-down

 DOS related values:
   EMIN   =  10.00;   EMAX   =-10.00  energy-range for DOS
   EFERMI =   0.00
   ISMEAR =     1;   SIGMA  =   0.10  broadening in eV -4-tet -1-fermi 0-gaus

 Electronic relaxation 2 (details)
   IALGO  =     68    algorithm
   LDIAG  =      T    sub-space diagonalisation (order eigenvalues)
   LSUBROT=      F    optimize rotation matrix (better conditioning)
   TURBO    =      0    0=normal 1=particle mesh
   IRESTART =      0    0=no restart 2=restart with 2 vectors
   NREBOOT  =      0    no. of reboots
   NMIN     =      0    reboot dimension
   EREF     =   0.00    reference energy to select bands
   IMIX   =      4    mixing-type and parameters
     AMIX     =   0.40;   BMIX     =  1.00
     AMIX_MAG =   1.60;   BMIX_MAG =  1.00
     AMIN     =   0.10
     WC   =   100.;   INIMIX=   1;  MIXPRE=   1;  MAXMIX= -45

 Intra band minimization:
   WEIMIN = 0.0010     energy-eigenvalue tresh-hold
   EBREAK =  0.43E-08  absolut break condition
   DEPER  =   0.30     relativ break condition  

   TIME   =   0.40     timestep for ELM

  volume/ion in A,a.u.               =      26.73       180.38
  Fermi-wavevector in a.u.,A,eV,Ry     =   1.163891  2.199434 18.431011  1.354641
  Thomas-Fermi vector in A             =   2.300435
 
 Write flags
   LWAVE        =      F    write WAVECAR
   LDOWNSAMPLE  =      F    k-point downsampling of WAVECAR
   LCHARG       =      F    write CHGCAR
   LVTOT        =      F    write LOCPOT, total local potential
   LVHAR        =      F    write LOCPOT, Hartree potential only
   LELF         =      F    write electronic localiz. function (ELF)
   LORBIT       =      0    0 simple, 1 ext, 2 COOP (PROOUT), +10 PAW based schemes


 Dipole corrections
   LMONO  =      F    monopole corrections only (constant potential shift)
   LDIPOL =      F    correct potential (dipole corrections)
   IDIPOL =      0    1-x, 2-y, 3-z, 4-all directions 
   EPSILON=  1.0000000 bulk dielectric constant

 Exchange correlation treatment:
   GGA     =    --    GGA type
   LEXCH   =     8    internal setting for exchange type
   VOSKOWN=      0    Vosko Wilk Nusair interpolation
   LHFCALC =     F    Hartree Fock is set to
   LHFONE  =     F    Hartree Fock one center treatment
   AEXX    =    0.0000 exact exchange contribution

 Linear response parameters
   LEPSILON=     F    determine dielectric tensor
   LRPA    =     F    only Hartree local field effects (RPA)
   LNABLA  =     F    use nabla operator in PAW spheres
   LVEL    =     F    velocity operator in full k-point grid
   LINTERFAST=   F  fast interpolation
   KINTER  =     0    interpolate to denser k-point grid
   CSHIFT  =0.1000    complex shift for real part using Kramers Kronig
   OMEGAMAX=  -1.0    maximum frequency
   DEG_THRESHOLD= 0.2000000E-02 threshold for treating states as degnerate
   RTIME   =   -0.100 relaxation time in fs
  (WPLASMAI=    0.000 imaginary part of plasma frequency in eV, 0.658/RTIME)
   DFIELD  = 0.0000000 0.0000000 0.0000000 field for delta impulse in time
 
 Orbital magnetization related:
   ORBITALMAG=     F  switch on orbital magnetization
   LCHIMAG   =     F  perturbation theory with respect to B field
   DQ        =  0.001000  dq finite difference perturbation B field
   LLRAUG    =     F  two centre corrections for induced B field



--------------------------------------------------------------------------------------------------------


 conjugate gradient relaxation of ions
   using selective dynamics as specified on POSCAR
 charge density and potential will be updated during run
 spin polarized calculation
 RMM-DIIS sequential band-by-band and
  variant of blocked Davidson during initial phase
 perform sub-space diagonalisation
    before iterative eigenvector-optimisation
 modified Broyden-mixing scheme, WC =      100.0
 initial mixing is a Kerker type mixing with AMIX =  0.4000 and BMIX =      1.0000
 Hartree-type preconditioning will be used
 using additional bands          199
 real space projection scheme for non local part
 use partial core corrections
 calculate Harris-corrections to forces 
   (improved forces if not selfconsistent)
 use gradient corrections 
 use of overlap-Matrix (Vanderbilt PP)
 Methfessel and Paxton  Order N= 1 SIGMA  =   0.10


--------------------------------------------------------------------------------------------------------


  energy-cutoff  :      550.00
  volume of cell :     2165.05
      direct lattice vectors                 reciprocal lattice vectors
    10.659999847  0.000000000  0.000000000     0.093808632 -0.054160439  0.000000000
     5.329999924  9.231830672  0.000000000     0.000000000  0.108320878  0.000000000
     0.000000000  0.000000000 22.000000000     0.000000000  0.000000000  0.045454545

  length of vectors
    10.659999847 10.659999847 22.000000000     0.108320878  0.108320878  0.045454545


 
 k-points in units of 2pi/SCALE and weight: mesh auto                               
   0.00000000  0.00000000  0.00000000       0.250
   0.04690432 -0.02708022  0.00000000       0.250
   0.00000000  0.05416044  0.00000000       0.250
   0.04690432  0.02708022  0.00000000       0.250
 
 k-points in reciprocal lattice and weights: mesh auto                               
   0.00000000  0.00000000  0.00000000       0.250
   0.50000000 -0.00000000  0.00000000       0.250
   0.00000000  0.50000000  0.00000000       0.250
   0.50000000  0.50000000  0.00000000       0.250
 
 position of ions in fractional coordinates (direct lattice) 
   0.78698156  0.87934948  0.31670903
   0.04234848  0.88246863  0.31591121
   0.27906093  0.38077159  0.31860809
   0.87037601  0.96396705  0.42463440
   0.12086295  0.46246961  0.42579099
   0.12543563  0.96387204  0.42212371
   0.87404697  0.45970614  0.42522089
   0.37414116  0.96018450  0.41859529
   0.87209320  0.21346419  0.41866451
   0.12504209  0.21244796  0.42095965
   0.62402401  0.96062852  0.42207325
   0.87281104  0.70992359  0.42433242
   0.37420595  0.20933820  0.42297381
   0.37724820  0.71152838  0.42154660
   0.62552648  0.46180555  0.42118050
   0.12661411  0.70664851  0.42737501
   0.62411420  0.21111642  0.42062184
   0.54809608  0.37581131  0.31638217
   0.53418159  0.12488383  0.31438418
   0.54860226  0.12207837  0.04171946
   0.12037701  0.45967589  0.12832010
   0.04398259  0.13560906  0.31394450
   0.04184264  0.13051489  0.03430237
   0.13087669  0.95764103  0.13245935
   0.37478501  0.46119156  0.42416400
   0.45485914  0.54588982  0.21874999
   0.62218054  0.71199103  0.42264004
   0.95645968  0.78899581  0.22100756
   0.79431358  0.62283920  0.31869408
   0.29035371  0.63122911  0.31786704
   0.20217908  0.27972982  0.22528100
   0.70611390  0.54959934  0.22097174
   0.04036407  0.63157605  0.32455883
   0.79601056  0.86182010  0.04358326
   0.05654378  0.86511100  0.03922008
   0.04354811  0.63172365  0.03890931
   0.62768151  0.22351632  0.12936912
   0.38251648  0.95408414  0.13073287
   0.03528268  0.38373991  0.32354596
   0.02789537  0.38111357  0.03922688
   0.87238548  0.21524336  0.12909491
   0.95467932  0.54470465  0.22394960
   0.29644672  0.11628504  0.32044908
   0.54060553  0.62917590  0.32136700
   0.29593874  0.11566849  0.04109769
   0.54915757  0.62535345  0.04512996
   0.29444361  0.38188257  0.03954700
   0.62577798  0.94799811  0.13283874
   0.70705774  0.79324161  0.22005214
   0.86523064  0.70443471  0.12965162
   0.62674088  0.45978399  0.12791088
   0.29845064  0.87417220  0.31768696
   0.30656831  0.86859519  0.04153612
   0.62656079  0.71505450  0.12903147
   0.22515281  0.02743556  0.22759778
   0.54425403  0.38139876  0.03593963
   0.37883082  0.20414358  0.13341050
   0.13702030  0.70469682  0.13275664
   0.70477493  0.05064794  0.22041944
   0.79288205  0.12930665  0.31656623
   0.53879004  0.87299165  0.31663114
   0.79690904  0.12300803  0.03589815
   0.54639677  0.86991640  0.03703501
   0.20779659  0.54239767  0.22376022
   0.95111425  0.29749285  0.22182122
   0.87203635  0.96412677  0.12966428
   0.71537339  0.29000752  0.22356538
   0.45718173  0.29225077  0.22086730
   0.87549525  0.45703326  0.12894021
   0.12808024  0.20618715  0.12934578
   0.79201094  0.62176511  0.04149761
   0.29752238  0.62870438  0.04356032
   0.38614974  0.71252577  0.12966825
   0.38234618  0.45146388  0.12688447
   0.79315007  0.37965716  0.31998752
   0.79142063  0.37689392  0.04093851
   0.95561894  0.05311826  0.22176563
   0.45832980  0.79639200  0.22484809
   0.21473375  0.79774967  0.22502562
   0.46199744  0.02941329  0.22254954
   0.70450358  0.05031958  0.46840172
 
 position of ions in cartesian coordinates  (Angst):
  13.07615599  8.11800551  6.96759867
   5.15499251  8.14680092  6.95004655
   5.00430200  3.51521882  7.00937790
  14.41615247  8.89918061  9.34195677
   3.75336201  4.26944112  9.36740170
   6.47458174  8.89830346  9.28672158
  11.76757422  4.24392924  9.35485963
   9.10612809  8.86426075  9.20909647
  10.43427746  1.97066527  9.21061932
   2.46529630  1.96128357  9.26111228
  11.77224579  8.86835980  9.28561147
  13.08805823  6.55389440  9.33531328
   5.10480797  1.93257482  9.30542384
   7.81391199  6.56870955  9.27402517
   9.12953571  4.26331063  9.26597090
   5.11614291  6.52365937  9.40225030
   7.77830774  1.94899106  9.25368057
   7.84577839  3.46942635  6.96040778
   6.36000644  1.15290638  6.91645200
   6.49877769  1.12700682  0.91782815
   3.73329140  4.24365001  2.82304227
   1.19165074  1.25191993  6.90677896
   1.14168689  1.20489139  0.75465211
   6.49937211  8.84077982  2.91410569
   6.45335914  4.25764239  9.33160810
   7.75839111  5.03956240  4.81249981
  10.42735662  6.57298059  9.29808086
  14.40120767  7.28387573  4.86216630
  11.78711552  5.74994601  7.01126987
   6.45962155  5.82740022  6.99307492
   3.64618885  2.58241830  4.95618191
  10.45653852  5.07380801  4.86137834
   3.79658130  5.83060319  7.14029420
  13.07897347  7.95617723  0.95883175
   5.21379828  7.98655826  0.86284167
   3.83130979  5.83196573  0.85600479
   7.88242681  2.06346482  2.84612068
   9.16289403  8.80794326  2.87612304
   2.42144708  3.54262184  7.11801115
   2.32869997  3.51837592  0.86299137
  10.44687620  1.98709023  2.84008810
  13.08015720  5.02862111  4.92689116
   3.77992122  1.07352384  7.04987973
   9.11636234  5.80844539  7.07007403
   3.77121995  1.06783187  0.90414915
   9.18715339  5.77315714  0.99285907
   5.17420286  3.52547522  0.87003394
  11.72362308  8.75175804  2.92245229
  11.76521306  7.32307218  4.84114715
  12.97799537  6.50322193  2.85233561
   9.13170631  4.24464793  2.81403934
   7.84082150  8.07020973  6.98911306
   7.89763048  8.01872375  0.91379463
  10.49037833  6.60126203  2.83869239
   2.54636042  0.25328046  5.00715111
   7.83460323  3.52100880  0.79067188
   5.12642169  1.88461893  2.93503107
   5.21667036  6.50564171  2.92064609
   7.78285419  0.46757319  4.84922766
   9.14132700  1.19373713  6.96445700
  10.39654712  8.05931108  6.96588500
   9.15068307  1.13558928  0.78975929
  10.46124387  8.03092093  0.81477030
   5.10609115  5.00732347  4.92272485
  11.72451460  2.74640359  4.88006674
  14.43470298  8.90065509  2.85261421
   9.17162027  2.67730030  4.91843837
   6.43125380  2.69800961  4.85908059
  11.76876646  4.21925362  2.83668457
   2.46431279  1.90348482  2.84560726
  11.75684446  5.74003023  0.91294740
   6.52258279  5.80409234  0.95832694
   7.91411848  6.57791728  2.85270146
   6.48211261  4.16783809  2.79145838
  10.47855222  3.50493060  7.03972547
  10.44538833  3.47942085  0.90064720
  10.47001811  0.49037882  4.87884395
   9.13056487  7.35215612  4.94665795
   6.54106736  7.36468985  4.95056361
   5.08166545  0.27153855  4.89608981
   7.77821140  0.46454183 10.30483790
 


--------------------------------------------------------------------------------------------------------


 k-point  1 :   0.0000 0.0000 0.0000  plane waves:   63475
 k-point  2 :   0.5000-0.0000 0.0000  plane waves:   63428
 k-point  3 :   0.0000 0.5000 0.0000  plane waves:   63428
 k-point  4 :   0.5000 0.5000 0.0000  plane waves:   63428

 maximum and minimum number of plane-waves per node :     15884    15811

 maximum number of plane-waves:     63475
 maximum index in each direction: 
   IXMAX=   20   IYMAX=   20   IZMAX=   42
   IXMIN=  -20   IYMIN=  -20   IZMIN=  -42


 real space projection operators:
  total allocation   :      76347.33 KBytes
  max/ min on nodes  :      19104.90      19064.31


 parallel 3D FFT for wavefunctions:
    minimum data exchange during FFTs selected (reduces bandwidth)
 parallel 3D FFT for charge:
    minimum data exchange during FFTs selected (reduces bandwidth)


 total amount of memory used by VASP MPI-rank0   231984. kBytes
=======================================================================

   base      :      30000. kBytes
   nonlr-proj:      34034. kBytes
   fftplans  :      16133. kBytes
   grid      :      49182. kBytes
   one-center:        653. kBytes
   wavefun   :     101982. kBytes
 
     INWAV:  cpu time    0.0001: real time    0.0006
 Broyden mixing: mesh for mixing (old mesh)
   NGX = 41   NGY = 41   NGZ = 85
  (NGX  =168   NGY  =168   NGZ  =336)
  gives a total of 142885 points

 initial charge density was supplied:
 charge density of overlapping atoms calculated
 number of electron     778.0000000 magnetization     231.0000000
 keeping initial charge density in first step


--------------------------------------------------------------------------------------------------------


 Maximum index for non-local projection operator         1866
 Maximum index for augmentation-charges         1444 (set IRDMAX)


--------------------------------------------------------------------------------------------------------


 First call to EWALD:  gamma=   0.137
 Maximum number of real-space cells 4x 4x 2
 Maximum number of reciprocal cells 2x 2x 4

    FEWALD:  cpu time    0.0044: real time    0.0044


--------------------------------------- Iteration      1(   1)  ---------------------------------------


    POTLOK:  cpu time    0.3841: real time    0.6483
    SETDIJ:  cpu time    0.0344: real time    0.0348
     EDDAV:  cpu time   59.5072: real time   59.7981
       DOS:  cpu time    0.0024: real time    0.0239
    --------------------------------------------
      LOOP:  cpu time   59.9282: real time   60.5052

 eigenvalue-minimisations  :  9408
 total energy-change (2. order) : 0.7828965E+04  (-0.3294608E+05)
 number of electron     778.0000000 magnetization     231.0000000
 augmentation part      778.0000000 magnetization     231.0000000

 Free energy of the ion-electron system (eV)
  ---------------------------------------------------
  alpha Z        PSCENC =      2197.15539535
  Ewald energy   TEWEN  =    222780.97253280
  -Hartree energ DENC   =   -294923.32634699
  -exchange      EXHF   =         0.00000000
  -V(xc)+E(xc)   XCENC  =      1384.69347454
  PAW double counting   =     64136.80006862   -66038.70876209
  entropy T*S    EENTRO =         0.00540366
  eigenvalues    EBANDS =      8072.71891354
  atomic energy  EATOM  =     70218.65458108
  Solvation  Ediel_sol  =         0.00000000
  ---------------------------------------------------
  free energy    TOTEN  =      7828.96526051 eV

  energy without entropy =     7828.95985685  energy(sigma->0) =     7828.96345929


--------------------------------------------------------------------------------------------------------




--------------------------------------- Iteration      1(   2)  ---------------------------------------


     EDDAV:  cpu time   59.5429: real time   59.7176
       DOS:  cpu time    0.0024: real time    0.0026
    --------------------------------------------
      LOOP:  cpu time   59.5454: real time   59.7201

 eigenvalue-minimisations  :  9408
 total energy-change (2. order) :-0.6998113E+04  (-0.6260389E+04)
 number of electron     778.0000000 magnetization     231.0000000
 augmentation part      778.0000000 magnetization     231.0000000

 Free energy of the ion-electron system (eV)
  ---------------------------------------------------
  alpha Z        PSCENC =      2197.15539535
  Ewald energy   TEWEN  =    222780.97253280
  -Hartree energ DENC   =   -294923.32634699
  -exchange      EXHF   =         0.00000000
  -V(xc)+E(xc)   XCENC  =      1384.69347454
  PAW double counting   =     64136.80006862   -66038.70876209
  entropy T*S    EENTRO =         0.00213510
  eigenvalues    EBANDS =      1074.60962941
  atomic energy  EATOM  =     70218.65458108
  Solvation  Ediel_sol  =         0.00000000
  ---------------------------------------------------
  free energy    TOTEN  =       830.85270782 eV

  energy without entropy =      830.85057272  energy(sigma->0) =      830.85199612


--------------------------------------------------------------------------------------------------------




--------------------------------------- Iteration      1(   3)  ---------------------------------------


     EDDAV:  cpu time   59.4747: real time   59.6589
       DOS:  cpu time    0.0027: real time    0.0029
    --------------------------------------------
      LOOP:  cpu time   59.4774: real time   59.6618

 eigenvalue-minimisations  :  9408
 total energy-change (2. order) :-0.1206574E+04  (-0.9767327E+03)
 number of electron     778.0000000 magnetization     231.0000000
 augmentation part      778.0000000 magnetization     231.0000000

 Free energy of the ion-electron system (eV)
  ---------------------------------------------------
  alpha Z        PSCENC =      2197.15539535
  Ewald energy   TEWEN  =    222780.97253280
  -Hartree energ DENC   =   -294923.32634699
  -exchange      EXHF   =         0.00000000
  -V(xc)+E(xc)   XCENC  =      1384.69347454
  PAW double counting   =     64136.80006862   -66038.70876209
  entropy T*S    EENTRO =         0.00114436
  eigenvalues    EBANDS =      -131.96290942
  atomic energy  EATOM  =     70218.65458108
  Solvation  Ediel_sol  =         0.00000000
  ---------------------------------------------------
  free energy    TOTEN  =      -375.72082175 eV

  energy without entropy =     -375.72196611  energy(sigma->0) =     -375.72120320


--------------------------------------------------------------------------------------------------------




--------------------------------------- Iteration      1(   4)  ---------------------------------------


     EDDAV:  cpu time   70.7655: real time   71.0191
       DOS:  cpu time    0.0028: real time    0.0046
    --------------------------------------------
      LOOP:  cpu time   70.7683: real time   71.0237

 eigenvalue-minimisations  : 11772
 total energy-change (2. order) :-0.1170940E+03  (-0.1073693E+03)
 number of electron     778.0000000 magnetization     231.0000000
 augmentation part      778.0000000 magnetization     231.0000000

 Free energy of the ion-electron system (eV)
  ---------------------------------------------------
  alpha Z        PSCENC =      2197.15539535
  Ewald energy   TEWEN  =    222780.97253280
  -Hartree energ DENC   =   -294923.32634699
  -exchange      EXHF   =         0.00000000
  -V(xc)+E(xc)   XCENC  =      1384.69347454
  PAW double counting   =     64136.80006862   -66038.70876209
  entropy T*S    EENTRO =        -0.01748820
  eigenvalues    EBANDS =      -249.03828295
  atomic energy  EATOM  =     70218.65458108
  Solvation  Ediel_sol  =         0.00000000
  ---------------------------------------------------
  free energy    TOTEN  =      -492.81482784 eV

  energy without entropy =     -492.79733964  energy(sigma->0) =     -492.80899844


--------------------------------------------------------------------------------------------------------




--------------------------------------- Iteration      1(   5)  ---------------------------------------


     EDDAV:  cpu time   67.7595: real time   68.0279
       DOS:  cpu time    0.0029: real time    0.0133
    CHARGE:  cpu time    3.7087: real time    3.7242
    MIXING:  cpu time    0.0096: real time    0.0098
    --------------------------------------------
      LOOP:  cpu time   71.4806: real time   71.7753

 eigenvalue-minimisations  : 11148
 total energy-change (2. order) :-0.4378747E+01  (-0.4343877E+01)
 number of electron     778.0000011 magnetization     216.5377521
 augmentation part      335.0848541 magnetization     184.0834076

 Broyden mixing:
  rms(total) = 0.11729E+02    rms(broyden)= 0.11729E+02
  rms(prec ) = 0.12044E+02
  weight for this iteration     100.00

 Free energy of the ion-electron system (eV)
  ---------------------------------------------------
  alpha Z        PSCENC =      2197.15539535
  Ewald energy   TEWEN  =    222780.97253280
  -Hartree energ DENC   =   -294923.32634699
  -exchange      EXHF   =         0.00000000
  -V(xc)+E(xc)   XCENC  =      1384.69347454
  PAW double counting   =     64136.80006862   -66038.70876209
  entropy T*S    EENTRO =        -0.01537589
  eigenvalues    EBANDS =      -253.41914236
  atomic energy  EATOM  =     70218.65458108
  Solvation  Ediel_sol  =         0.00000000
  ---------------------------------------------------
  free energy    TOTEN  =      -497.19357494 eV

  energy without entropy =     -497.17819905  energy(sigma->0) =     -497.18844964


--------------------------------------------------------------------------------------------------------




--------------------------------------- Iteration      1(   6)  ---------------------------------------


    POTLOK:  cpu time    0.3564: real time    0.3776
    SETDIJ:  cpu time    0.0320: real time    0.0322
    EDDIAG:  cpu time   10.6377: real time   10.6756
  RMM-DIIS:  cpu time   37.0715: real time   37.1831
    ORTHCH:  cpu time    1.2108: real time    1.2145
       DOS:  cpu time    0.0026: real time    0.0026
    CHARGE:  cpu time    3.5894: real time    3.6001
    MIXING:  cpu time    0.0107: real time    0.0111
    --------------------------------------------
      LOOP:  cpu time   52.9111: real time   53.0968

 eigenvalue-minimisations  :  9545
 total energy-change (2. order) :-0.1583298E+03  (-0.9245089E+02)
 number of electron     778.0000015 magnetization     212.4216792
 augmentation part      406.0986857 magnetization     179.8395976

 Broyden mixing:
  rms(total) = 0.19579E+02    rms(broyden)= 0.19579E+02
  rms(prec ) = 0.25320E+02
  weight for this iteration     100.00

 eigenvalues of (default mixing * dielectric matrix)
  average eigenvalue GAMMA=   0.2261
  0.2261

 Free energy of the ion-electron system (eV)
  ---------------------------------------------------
  alpha Z        PSCENC =      2197.15539535
  Ewald energy   TEWEN  =    222780.97253280
  -Hartree energ DENC   =   -293318.59758806
  -exchange      EXHF   =         0.00000000
  -V(xc)+E(xc)   XCENC  =      1338.72945805
  PAW double counting   =     69079.40673086   -70772.20602781
  entropy T*S    EENTRO =         0.01358998
  eigenvalues    EBANDS =     -2179.65208283
  atomic energy  EATOM  =     70218.65458108
  Solvation  Ediel_sol  =         0.00000000
  ---------------------------------------------------
  free energy    TOTEN  =      -655.52341059 eV

  energy without entropy =     -655.53700057  energy(sigma->0) =     -655.52794058


--------------------------------------------------------------------------------------------------------




--------------------------------------- Iteration      1(   7)  ---------------------------------------


    POTLOK:  cpu time    0.3587: real time    0.3606
    SETDIJ:  cpu time    0.0320: real time    0.0321
    EDDIAG:  cpu time   10.5908: real time   10.6234
  RMM-DIIS:  cpu time   36.5337: real time   36.6423
    ORTHCH:  cpu time    1.2135: real time    1.2170
       DOS:  cpu time    0.0027: real time    0.0027
    CHARGE:  cpu time    3.5913: real time    3.6017
    MIXING:  cpu time    0.0118: real time    0.0120
    --------------------------------------------
      LOOP:  cpu time   52.3344: real time   52.4916

 eigenvalue-minimisations  :  9418
 total energy-change (2. order) : 0.1162660E+03  (-0.1657769E+02)
 number of electron     778.0000016 magnetization     207.7980741
 augmentation part      366.2116859 magnetization     165.0603514

 Broyden mixing:
  rms(total) = 0.15629E+02    rms(broyden)= 0.15628E+02
  rms(prec ) = 0.21069E+02
  weight for this iteration     100.00

 eigenvalues of (default mixing * dielectric matrix)
  average eigenvalue GAMMA=   0.2682
  0.3692  0.1672

 Free energy of the ion-electron system (eV)
  ---------------------------------------------------
  alpha Z        PSCENC =      2197.15539535
  Ewald energy   TEWEN  =    222780.97253280
  -Hartree energ DENC   =   -294001.71502275
  -exchange      EXHF   =         0.00000000
  -V(xc)+E(xc)   XCENC  =      1359.16343331
  PAW double counting   =     70136.34456653   -71989.77845443
  entropy T*S    EENTRO =        -0.00492228
  eigenvalues    EBANDS =     -1240.04947773
  atomic energy  EATOM  =     70218.65458108
  Solvation  Ediel_sol  =         0.00000000
  ---------------------------------------------------
  free energy    TOTEN  =      -539.25736814 eV

  energy without entropy =     -539.25244586  energy(sigma->0) =     -539.25572738


--------------------------------------------------------------------------------------------------------




--------------------------------------- Iteration      1(   8)  ---------------------------------------


    POTLOK:  cpu time    0.3586: real time    0.3607
    SETDIJ:  cpu time    0.0321: real time    0.0322
    EDDIAG:  cpu time   10.6111: real time   10.6773
  RMM-DIIS:  cpu time   36.2948: real time   37.0238
    ORTHCH:  cpu time    1.2142: real time    1.2179
       DOS:  cpu time    0.0024: real time    0.0024
    CHARGE:  cpu time    3.5551: real time    3.5656
    MIXING:  cpu time    0.0116: real time    0.0119
    --------------------------------------------
      LOOP:  cpu time   52.0801: real time   52.8918

 eigenvalue-minimisations  :  9433
 total energy-change (2. order) : 0.6137305E+02  (-0.1029853E+02)
 number of electron     778.0000013 magnetization     200.6147917
 augmentation part      371.6963495 magnetization     163.3866315

 Broyden mixing:
  rms(total) = 0.16110E+02    rms(broyden)= 0.16110E+02
  rms(prec ) = 0.18855E+02
  weight for this iteration     100.00

 eigenvalues of (default mixing * dielectric matrix)
  average eigenvalue GAMMA=   0.3059
  0.5752  0.2612  0.0812

 Free energy of the ion-electron system (eV)
  ---------------------------------------------------
  alpha Z        PSCENC =      2197.15539535
  Ewald energy   TEWEN  =    222780.97253280
  -Hartree energ DENC   =   -294264.74983734
  -exchange      EXHF   =         0.00000000
  -V(xc)+E(xc)   XCENC  =      1364.53004801
  PAW double counting   =     71329.33766286   -73250.80341430
  entropy T*S    EENTRO =         0.00315733
  eigenvalues    EBANDS =      -852.98444848
  atomic energy  EATOM  =     70218.65458108
  Solvation  Ediel_sol  =         0.00000000
  ---------------------------------------------------
  free energy    TOTEN  =      -477.88432270 eV

  energy without entropy =     -477.88748003  energy(sigma->0) =     -477.88537514


--------------------------------------------------------------------------------------------------------




--------------------------------------- Iteration      1(   9)  ---------------------------------------


    POTLOK:  cpu time    0.3585: real time    0.3608
    SETDIJ:  cpu time    0.0320: real time    0.0321
    EDDIAG:  cpu time   10.5873: real time   10.6181
  RMM-DIIS:  cpu time   36.6346: real time   36.7622
    ORTHCH:  cpu time    1.2170: real time    1.2204
       DOS:  cpu time    0.0025: real time    0.0025
    CHARGE:  cpu time    3.5956: real time    3.6063
    MIXING:  cpu time    0.0117: real time    0.0119
    --------------------------------------------
      LOOP:  cpu time   52.4392: real time   52.6144

 eigenvalue-minimisations  :  9444
 total energy-change (2. order) : 0.1005953E+03  (-0.1501049E+02)
 number of electron     778.0000010 magnetization     192.4315268
 augmentation part      373.5444168 magnetization     147.4474472

 Broyden mixing:
  rms(total) = 0.12571E+02    rms(broyden)= 0.12571E+02
  rms(prec ) = 0.14282E+02
  weight for this iteration     100.00

 eigenvalues of (default mixing * dielectric matrix)
  average eigenvalue GAMMA=   0.3646
  0.8809  0.3447  0.1398  0.0931

 Free energy of the ion-electron system (eV)
  ---------------------------------------------------
  alpha Z        PSCENC =      2197.15539535
  Ewald energy   TEWEN  =    222780.97253280
  -Hartree energ DENC   =   -293997.10944880
  -exchange      EXHF   =         0.00000000
  -V(xc)+E(xc)   XCENC  =      1381.18124421
  PAW double counting   =     72776.54089650   -74750.33829707
  entropy T*S    EENTRO =        -0.00518680
  eigenvalues    EBANDS =      -984.34074535
  atomic energy  EATOM  =     70218.65458108
  Solvation  Ediel_sol  =         0.00000000
  ---------------------------------------------------
  free energy    TOTEN  =      -377.28902809 eV

[...]
   -.148E+02 0.336E+02 -.290E+04   0.156E+02 -.337E+02 0.290E+04   -.858E+00 0.227E+00 0.324E+00   0.612E-01 -.490E-01 0.110E-01
   -.116E+02 0.625E+01 -.289E+04   0.111E+02 -.590E+01 0.289E+04   0.544E+00 -.378E+00 0.153E+01   -.276E-01 0.371E-01 -.725E-01
   -.343E+01 0.331E+01 -.288E+04   0.344E+01 -.362E+01 0.288E+04   0.630E-01 0.279E+00 0.108E+01   -.559E-01 -.410E-02 0.151E-01
   -.193E+02 -.472E+01 -.292E+04   0.193E+02 0.437E+01 0.292E+04   -.119E+00 0.375E+00 0.146E+01   0.821E-01 -.424E-01 -.530E-01
   0.179E+02 -.196E+02 -.290E+04   -.180E+02 0.196E+02 0.290E+04   0.233E+00 -.463E-01 0.195E+01   -.760E-01 0.308E-01 0.250E-01
   -.222E+02 0.125E+02 -.290E+04   0.223E+02 -.122E+02 0.290E+04   -.183E+00 -.353E+00 0.128E+01   0.452E-01 -.455E-01 -.282E-02
   -.100E+02 -.141E+01 -.287E+04   0.104E+02 0.166E+01 0.287E+04   -.342E+00 -.282E+00 0.165E+01   -.354E-01 0.441E-01 -.655E-01
   0.141E+01 0.105E+01 -.291E+04   -.207E+01 -.167E+01 0.291E+04   0.579E+00 0.615E+00 0.520E+00   0.720E-01 -.206E-01 0.346E-01
   -.131E+02 -.759E+00 -.288E+04   0.133E+02 0.165E+00 0.288E+04   -.232E+00 0.629E+00 0.134E+01   0.983E-01 -.292E-01 -.978E-02
   0.236E+01 -.217E+02 -.288E+04   -.293E+01 0.215E+02 0.288E+04   0.636E+00 0.165E+00 0.110E+01   -.531E-01 0.586E-01 -.382E-02
   0.236E+02 0.108E+02 -.290E+04   -.230E+02 -.107E+02 0.290E+04   -.491E+00 -.177E+00 0.148E+01   -.913E-01 0.289E-01 0.440E-01
   0.202E+02 -.160E+02 -.290E+04   -.199E+02 0.162E+02 0.290E+04   -.273E+00 -.183E+00 0.142E+01   0.208E-01 -.296E-01 0.321E-01
   -.309E+01 0.256E+01 -.288E+04   0.281E+01 -.298E+01 0.288E+04   0.311E+00 0.387E+00 0.118E+01   -.381E-01 0.182E-01 -.765E-02
   0.278E+02 -.194E+02 -.289E+04   -.278E+02 0.205E+02 0.289E+04   -.933E-01 -.111E+01 0.639E+00   0.447E-01 -.257E-01 0.262E-01
   0.689E+02 -.668E+02 -.151E+04   -.676E+02 0.668E+02 0.151E+04   -.119E+01 -.161E-01 0.156E+01   -.113E-01 -.781E-02 0.601E-02
   0.261E+02 -.412E+02 -.151E+04   -.272E+02 0.407E+02 0.151E+04   0.103E+01 0.486E+00 0.246E+01   0.226E-01 0.521E-01 0.700E-01
   0.376E+02 0.175E+02 0.299E+04   -.377E+02 -.178E+02 -.299E+04   0.178E-01 0.368E+00 -.256E+01   -.220E-02 0.466E-01 -.733E-01
   0.250E+02 -.271E+01 0.159E+04   -.259E+02 0.344E+01 -.160E+04   0.965E+00 -.694E+00 0.878E+00   0.406E-01 -.131E-02 -.373E-01
   -.673E+02 0.111E+02 -.146E+04   0.682E+02 -.106E+02 0.146E+04   -.871E+00 -.638E+00 0.263E+01   0.766E-02 0.807E-01 0.518E-01
   -.542E+02 0.531E+02 0.305E+04   0.549E+02 -.521E+02 -.305E+04   -.699E+00 -.995E+00 -.224E+01   -.934E-02 0.121E-01 -.235E-01
   0.560E+01 -.547E+02 0.157E+04   -.525E+01 0.542E+02 -.157E+04   -.327E+00 0.465E+00 -.790E+00   -.806E-01 0.137E-01 -.338E-01
   0.112E+02 -.206E+01 -.289E+04   -.113E+02 0.204E+01 0.289E+04   0.149E+00 -.453E-01 0.840E+00   -.682E-01 0.535E-01 0.135E-01
   -.179E+02 -.176E+01 0.165E+02   0.180E+02 0.211E+01 -.178E+02   -.538E-01 -.364E+00 0.125E+01   -.687E-01 -.453E-01 -.229E-01
   -.823E+01 0.145E+02 -.291E+04   0.774E+01 -.145E+02 0.290E+04   0.491E+00 0.693E-01 0.140E+01   0.361E-01 -.273E-01 0.405E-01
   0.154E+02 0.586E+02 0.112E+02   -.164E+02 -.598E+02 -.116E+02   0.991E+00 0.121E+01 0.302E+00   0.815E-01 -.342E-01 0.509E-01
   -.641E+02 0.831E+01 -.147E+04   0.643E+02 -.933E+01 0.147E+04   -.437E+00 0.121E+01 0.287E+01   0.137E+00 -.136E+00 0.650E-01
   0.287E+02 0.273E+02 -.152E+04   -.283E+02 -.266E+02 0.152E+04   -.274E+00 -.696E+00 0.227E+01   -.112E+00 0.163E-02 0.409E-01
   0.139E+02 -.648E+02 -.672E+02   -.147E+02 0.641E+02 0.674E+02   0.101E+01 0.547E+00 -.286E+00   -.699E-01 0.131E+00 0.838E-01
   -.213E+02 -.197E+02 0.365E+01   0.220E+02 0.204E+02 -.432E+01   -.790E+00 -.735E+00 0.652E+00   0.366E-01 -.125E+00 0.286E-01
   0.182E+02 0.149E+02 -.122E+04   -.183E+02 -.151E+02 0.122E+04   0.116E+00 0.386E+00 0.418E+00   -.940E-02 -.599E-01 0.246E-01
   -.635E+02 -.564E+01 0.241E+04   0.638E+02 0.436E+01 -.240E+04   -.348E+00 0.132E+01 -.278E+01   0.392E-01 -.930E-02 -.609E-01
   0.329E+02 -.165E+02 0.244E+04   -.328E+02 0.150E+02 -.244E+04   -.926E-01 0.161E+01 -.244E+01   -.136E-01 -.372E-01 -.236E-01
   0.172E+02 0.604E+01 0.244E+04   -.174E+02 -.532E+01 -.244E+04   0.154E+00 -.802E+00 -.296E+01   0.452E-01 -.203E-01 -.242E-01
   0.153E+02 0.549E+02 0.127E+04   -.144E+02 -.542E+02 -.127E+04   -.924E+00 -.772E+00 -.640E-01   0.780E-02 0.318E-01 -.380E-01
   0.302E+02 -.612E+02 0.126E+04   -.301E+02 0.609E+02 -.126E+04   -.102E+00 0.241E+00 -.419E+00   -.458E-01 0.268E-01 -.952E-01
   -.556E+02 -.228E+02 -.122E+04   0.558E+02 0.230E+02 0.122E+04   -.147E+00 -.237E+00 0.708E+00   0.258E-01 0.600E-02 0.117E-01
   -.111E+03 0.207E+02 0.245E+04   0.110E+03 -.205E+02 -.245E+04   0.554E+00 -.200E+00 -.283E+01   0.343E-01 0.717E-02 -.152E-01
   -.340E+02 0.486E+02 0.128E+04   0.331E+02 -.481E+02 -.128E+04   0.837E+00 -.533E+00 -.450E+00   0.233E-01 -.142E-01 0.343E-02
   -.490E+02 0.264E+01 -.402E+02   0.487E+02 -.215E+01 0.401E+02   0.230E+00 -.415E+00 -.107E+00   0.562E-01 -.925E-01 0.792E-01
   0.159E+02 -.818E+02 -.123E+04   -.159E+02 0.815E+02 0.123E+04   0.996E-01 0.224E+00 0.105E+01   -.760E-01 0.109E+00 0.669E-01
   0.126E+02 0.290E+02 -.122E+04   -.127E+02 -.290E+02 0.122E+04   0.101E+00 -.243E-01 0.294E+00   -.116E-01 -.360E-01 0.279E-01
   0.549E+01 -.628E+02 0.242E+04   -.621E+01 0.618E+02 -.242E+04   0.771E+00 0.101E+01 -.287E+01   0.393E-02 0.552E-01 -.460E-01
   0.843E+01 -.149E+02 0.272E+04   -.847E+01 0.152E+02 -.272E+04   0.923E-01 -.232E+00 -.239E+01   -.509E-01 -.352E-01 -.881E-01
   0.119E+03 0.347E+02 0.276E+04   -.119E+03 -.339E+02 -.276E+04   0.399E+00 -.839E+00 -.275E+01   0.134E-01 0.487E-01 -.141E-01
   -.420E+02 -.394E+02 0.140E+04   0.415E+02 0.383E+02 -.140E+04   0.472E+00 0.113E+01 -.406E+00   0.668E-01 0.367E-01 -.122E+00
   -.629E+02 0.591E+02 0.190E+02   0.628E+02 -.589E+02 -.198E+02   -.263E-01 -.201E+00 0.752E+00   0.858E-01 -.649E-01 0.486E-01
   -.976E+02 0.155E+02 0.139E+04   0.971E+02 -.150E+02 -.139E+04   0.497E+00 -.499E+00 -.146E+00   0.938E-01 -.528E-01 -.672E-01
   -.157E+02 0.100E+02 0.137E+04   0.159E+02 -.103E+02 -.137E+04   -.131E+00 0.300E+00 -.144E+00   -.316E-01 0.650E-02 -.761E-01
   0.445E+02 0.500E+01 -.138E+04   -.443E+02 -.518E+01 0.138E+04   -.234E+00 0.190E+00 0.133E+01   -.818E-01 0.360E-01 0.815E-01
   0.565E+02 -.800E+02 0.273E+04   -.561E+02 0.799E+02 -.273E+04   -.391E+00 0.210E+00 -.250E+01   -.237E-01 -.649E-01 -.582E-01
   -.136E+02 0.326E+01 0.136E+04   0.138E+02 -.294E+01 -.136E+04   -.131E+00 -.250E+00 -.459E+00   -.344E-01 -.805E-01 -.133E+00
   0.225E+02 -.704E+02 -.143E+02   -.216E+02 0.698E+02 0.146E+02   -.784E+00 0.577E+00 -.402E+00   -.988E-01 0.839E-01 0.401E-01
   0.460E+02 0.351E+02 0.340E+04   -.460E+02 -.343E+02 -.340E+04   -.813E-01 -.922E+00 -.388E+01   -.482E-01 0.871E-01 -.476E-01
   0.587E+02 -.616E+00 0.173E+04   -.589E+02 -.207E+00 -.173E+04   0.112E+00 0.761E+00 -.233E+00   -.175E-01 0.147E+00 -.106E+00
   0.105E+03 -.291E+02 0.169E+04   -.105E+03 0.291E+02 -.169E+04   -.158E+00 0.723E-02 -.301E-01   0.288E-02 -.565E-01 -.671E-01
   0.183E+02 0.676E+02 0.891E+02   -.190E+02 -.675E+02 -.896E+02   0.547E+00 -.248E+00 0.432E+00   0.137E+00 0.346E-01 0.460E-01
   0.149E+02 0.553E+02 -.170E+04   -.147E+02 -.550E+02 0.170E+04   -.279E+00 -.324E+00 0.139E+01   0.807E-01 -.342E-01 0.369E-01
   -.410E+02 0.291E+02 -.167E+04   0.402E+02 -.288E+02 0.166E+04   0.875E+00 -.289E+00 0.220E+01   0.121E-01 0.197E-02 0.141E+00
   -.233E+01 0.992E+02 0.335E+04   0.241E+01 -.996E+02 -.335E+04   -.125E+00 0.397E+00 -.308E+01   0.822E-02 -.141E-01 -.451E-01
   -.195E+02 -.830E+02 0.338E+04   0.185E+02 0.827E+02 -.338E+04   0.103E+01 0.327E+00 -.277E+01   -.121E-02 -.382E-01 -.118E+00
   0.107E+03 0.901E+01 -.534E+02   -.107E+03 -.882E+01 0.536E+02   -.163E-01 -.259E+00 -.321E+00   -.425E-01 -.426E-02 0.204E-01
   -.115E+03 -.344E+02 0.404E+02   0.115E+03 0.341E+02 -.405E+02   0.355E+00 0.188E+00 -.102E-01   0.385E-01 0.153E-01 0.725E-01
   -.985E+01 0.566E+02 0.179E+04   0.946E+01 -.561E+02 -.179E+04   0.333E+00 -.629E+00 -.728E+00   0.713E-01 -.531E-02 -.375E-01
   0.143E+02 -.702E+02 0.455E+02   -.140E+02 0.691E+02 -.462E+02   -.371E+00 0.128E+01 0.514E+00   0.547E-01 -.311E-01 0.250E-01
   0.548E+02 -.303E+02 0.108E+02   -.541E+02 0.299E+02 -.109E+02   -.690E+00 0.296E+00 0.227E+00   -.136E-01 0.976E-01 0.209E-02
   -.762E+02 0.467E+01 0.153E+04   0.756E+02 -.448E+01 -.153E+04   0.435E+00 -.855E-01 -.179E+00   0.427E-01 -.606E-01 -.175E-01
   -.176E+02 0.156E+02 0.160E+04   0.180E+02 -.160E+02 -.160E+04   -.386E+00 0.261E+00 -.464E+00   -.269E-01 0.703E-01 -.324E-01
   -.104E+03 -.256E+01 0.305E+04   0.104E+03 0.266E+01 -.305E+04   -.519E+00 -.551E-01 -.146E+01   -.603E-02 -.249E-01 -.806E-01
   0.740E+02 -.368E+02 0.305E+04   -.744E+02 0.374E+02 -.305E+04   0.346E+00 -.654E+00 -.971E+00   -.654E-02 -.588E-01 -.285E-01
   0.198E+02 -.340E+02 0.153E+04   -.194E+02 0.339E+02 -.153E+04   -.380E+00 0.215E+00 0.181E-01   -.749E-01 -.945E-01 -.121E+00
   0.582E+02 0.804E+01 0.159E+04   -.577E+02 -.812E+01 -.159E+04   -.485E+00 0.491E-01 -.138E+00   -.492E-01 0.430E-01 -.829E-01
   -.372E+02 -.684E+02 -.153E+04   0.369E+02 0.685E+02 0.153E+04   0.131E+00 -.476E-01 0.695E+00   0.126E+00 -.528E-01 0.125E-01
   -.498E+02 0.301E+02 0.303E+04   0.502E+02 -.295E+02 -.303E+04   -.406E+00 -.587E+00 -.194E+01   -.149E-01 0.280E-01 -.377E-01
   -.451E+02 0.752E+02 0.755E+02   0.456E+02 -.750E+02 -.756E+02   -.395E+00 -.314E+00 -.235E-01   -.130E-01 0.261E-01 0.251E-01
   0.690E-01 0.586E+02 -.108E+02   -.482E-01 -.577E+02 0.107E+02   0.858E-01 -.867E+00 -.397E-01   -.791E-01 -.721E-01 0.207E-01
   0.549E+02 0.303E+01 -.302E+02   -.545E+02 -.241E+01 0.301E+02   -.401E+00 -.627E+00 -.137E-01   -.953E-01 -.323E-01 0.108E-01
   0.152E+02 -.559E+02 0.291E+02   -.156E+02 0.553E+02 -.293E+02   0.370E+00 0.519E+00 0.127E+00   -.211E-02 0.108E+00 0.409E-01
   0.390E+00 -.110E+01 -.345E+03   -.436E+00 0.113E+01 0.347E+03   0.483E-01 -.637E-01 -.162E+01   0.906E-02 -.359E-02 0.894E-03
 -----------------------------------------------------------------------------------------------
   -.248E+01 -.824E+00 -.246E+01   -.617E-12 0.711E-14 -.864E-11   0.247E+01 0.855E+00 0.289E+01   0.528E-01 -.457E-01 -.436E+00
 
 
 POSITION                                       TOTAL-FORCE (eV/Angst)
 -----------------------------------------------------------------------------------
     13.06991      8.11905      6.97925        -0.004944      0.000818     -0.004513
      5.14662      8.14770      6.93725         0.011083     -0.003477     -0.015818
      5.00756      3.51776      7.00860         0.009533     -0.013970      0.004662
     14.47856      8.87168      9.34251        -0.016354      0.010516      0.007599
      3.75920      4.26991      9.38166         0.034816     -0.009821     -0.010131
      6.45670      8.87315      9.23825        -0.000026     -0.004383      0.010138
     11.76923      4.24408      9.34988        -0.027181      0.004448      0.001207
      9.10376      8.86368      9.21592         0.011619      0.013353     -0.005239
     10.45909      1.95662      9.21166         0.009822      0.005127     -0.003157
      2.46214      1.94930      9.25993        -0.003376     -0.016506      0.000462
     11.74466      8.85590      9.35410         0.012942      0.001879      0.006651
     13.10388      6.54298      9.33311         0.008112      0.001841     -0.000977
      5.08745      1.94177      9.29520         0.003944      0.002495      0.012540
      7.80044      6.57467      9.28071         0.008811      0.005753     -0.013329
      9.13073      4.26203      9.25824         0.016097      0.001223      0.005571
      5.11307      6.55513      9.33384         0.003729      0.004653      0.013139
      7.78452      1.97888      9.29523         0.009290     -0.031630      0.006668
      7.84111      3.46992      6.96807         0.006614     -0.004697      0.005963
      6.36989      1.15053      6.92820        -0.002858      0.001631      0.021632
      6.49878      1.12701      0.91783        -0.027394      0.018797      0.002142
      3.73329      4.24365      2.82304         0.018821     -0.010814     -0.039163
      1.19249      1.25675      6.89748         0.000521     -0.012406     -0.011531
      1.14169      1.20489      0.75465        -0.023176      0.004660     -0.013766
      6.49937      8.84078      2.91411        -0.016494      0.012069      0.006799
      6.44442      4.26434      9.34185        -0.007019     -0.001900     -0.006679
      7.76002      5.04233      4.80859        -0.002394     -0.007586     -0.002872
     10.42799      6.56412      9.28479        -0.000816     -0.014972      0.010097
     14.39464      7.28232      4.86206         0.007637      0.000367     -0.012928
     11.79387      5.74749      7.00621        -0.012264     -0.007482      0.005115
      6.46956      5.82636      6.98366        -0.003412     -0.007010     -0.011883
      3.64674      2.58001      4.95740         0.005386      0.002660     -0.002371
     10.45672      5.07469      4.86165        -0.003779     -0.004908      0.003483
      3.79667      5.82569      7.13385         0.003235      0.001959     -0.008676
     13.07897      7.95618      0.95883        -0.010440     -0.002583      0.033869
      5.21380      7.98656      0.86284         0.016750      0.010774      0.007420
      3.83131      5.83197      0.85600         0.022662     -0.016820     -0.009553
      7.88243      2.06346      2.84612        -0.023499     -0.011383      0.043858
      9.16289      8.80794      2.87612         0.031743      0.020301      0.035157
      2.42556      3.53920      7.12124        -0.004257     -0.000421     -0.009646
      2.32870      3.51838      0.86299         0.021513      0.004998     -0.032551
     10.44688      1.98709      2.84009        -0.016315      0.008818     -0.005754
     13.08271      5.02468      4.92386        -0.001550      0.005686     -0.002851
      3.78852      1.06757      7.04910         0.001031     -0.000829      0.005689
      9.11758      5.80946      7.06667         0.006027     -0.004240      0.004035
      3.77122      1.06783      0.90415        -0.001878      0.023205      0.000642
      9.18715      5.77316      0.99286        -0.014131      0.017628     -0.026608
      5.17420      3.52548      0.87003         0.021821      0.006241      0.028955
     11.72362      8.75176      2.92245        -0.000750      0.011306      0.043514
     11.76730      7.32585      4.84922        -0.005480      0.005720      0.001835
     12.97800      6.50322      2.85234         0.013215      0.009287     -0.014370
      9.13171      4.24465      2.81404         0.008816     -0.015175     -0.018063
      7.83545      8.07883      6.99474         0.003950      0.000810     -0.011551
      7.89763      8.01872      0.91379        -0.005713      0.012964      0.007273
     10.49038      6.60126      2.83869         0.016480      0.005539      0.028180
      2.55049      0.25179      5.00337         0.005916     -0.003660     -0.003704
      7.83460      3.52101      0.79067        -0.027897      0.007745     -0.001608
      5.12642      1.88462      2.93503        -0.018172      0.002742      0.001525
      5.21667      6.50564      2.92065        -0.000123      0.009940     -0.001550
      7.78618      0.46633      4.85394        -0.002245     -0.004662      0.000227
      9.13433      1.19389      6.97695         0.003172      0.002144     -0.007978
     10.39948      8.06119      6.97742         0.005695     -0.007407      0.003818
      9.15068      1.13559      0.78976        -0.017386      0.003850      0.009336
     10.46124      8.03092      0.81477        -0.019319      0.019220      0.015617
      5.10705      5.00612      4.92058         0.002801      0.003064     -0.002556
     11.72436      2.74723      4.87657         0.001200     -0.000828     -0.000190
     14.43470      8.90066      2.85261        -0.014917     -0.002141      0.009783
      9.17016      2.67509      4.92348        -0.005482      0.004056      0.001266
      6.43392      2.69611      4.86201        -0.002687     -0.003641     -0.000692
     11.76877      4.21925      2.83668        -0.020906     -0.017845     -0.032455
      2.46431      1.90348      2.84561        -0.004951      0.014814     -0.006393
     11.75684      5.74003      0.91295        -0.008745      0.018384     -0.011660
      6.52258      5.80409      0.95833        -0.006765     -0.024444      0.014632
      7.91412      6.57792      2.85270         0.011949      0.006395     -0.017716
      6.48211      4.16784      2.79146        -0.010949     -0.017435     -0.008399
     10.47486      3.50125      7.03617        -0.001638      0.004455      0.003441
     10.44539      3.47942      0.90065        -0.000744     -0.015049     -0.028205
     10.46907      0.48908      4.87537         0.002016     -0.001247      0.007906
      9.13740      7.35464      4.94979         0.003549      0.001374     -0.006866
      6.54491      7.36587      4.94227         0.004335     -0.003828     -0.000158
      5.08768      0.27221      4.90302        -0.000371     -0.000236     -0.014032
      7.79456      0.41633     10.31882         0.012151     -0.030275      0.006300
 -----------------------------------------------------------------------------------
    total drift:                                0.043512     -0.014706     -0.008442


--------------------------------------------------------------------------------------------------------



  FREE ENERGIE OF THE ION-ELECTRON SYSTEM (eV)
  ---------------------------------------------------
  free  energy   TOTEN  =      -510.33971933 eV

  energy  without entropy=     -510.36302361  energy(sigma->0) =     -510.34748743
 
 d Force = 0.1107050E-02[ 0.391E-03, 0.182E-02]  d Energy = 0.1030495E-02 0.766E-04
 d Force =-0.7358800E+01[-0.735E+01,-0.736E+01]  d Ewald  =-0.7358802E+01 0.197E-05


--------------------------------------------------------------------------------------------------------


    POTLOK:  cpu time    0.3778: real time    0.3791


--------------------------------------------------------------------------------------------------------


 Conjugate gradient step on ions:
 trial-energy change:   -0.001030  1 .order   -0.001107   -0.001823   -0.000391
  (g-gl).g = 0.118E-02      g.g   = 0.118E-02  gl.gl    = 0.181E-02
 g(Force)  = 0.118E-02   g(Stress)= 0.000E+00 ortho     =-0.208E-04
 gamma     =   0.65194
 trial     =   1.56737
 opt step  =   2.41090  (harmonic =   1.99488) maximal distance =0.01040115
 next E    =  -510.339813   (d E  =  -0.00112)


--------------------------------------------------------------------------------------------------------


  
 reached required accuracy - stopping structural energy minimisation
     LOOP+:  cpu time  598.2127: real time  600.9880
    4ORBIT:  cpu time    0.0000: real time    0.0000

 total amount of memory used by VASP MPI-rank0   231984. kBytes
=======================================================================

   base      :      30000. kBytes
   nonlr-proj:      34034. kBytes
   fftplans  :      16133. kBytes
   grid      :      49182. kBytes
   one-center:        653. kBytes
   wavefun   :     101982. kBytes
 
  
  
 General timing and accounting informations for this job:
 ========================================================
  
                  Total CPU time used (sec):    13303.876
                            User time (sec):    12940.971
                          System time (sec):      362.905
                         Elapsed time (sec):    13393.181
  
                   Maximum memory used (kb):      423812.
                   Average memory used (kb):           0.
  
                          Minor page faults:      3178057
                          Major page faults:          320
                 Voluntary context switches:        10158
