 vasp.5.4.4.18Apr17-6-g9f103f2a35 (build Oct 25 2019 11:13:22) complex          
  
 executed on             LinuxIFC date 2021.10.29  12:52:55
 running on   48 total cores
 distrk:  each k-point on   48 cores,    1 groups
 distr:  one band on NCORES_PER_BAND=   4 cores,   12 groups


--------------------------------------------------------------------------------------------------------


 INCAR:
 POTCAR:    PAW_PBE Pt 04Feb2005                  
 POTCAR:    PAW_PBE Fe 06Sep2000                  
 POTCAR:    PAW_PBE Co 02Aug2007                  
 POTCAR:    PAW_PBE Cu 22Jun2005                  
 POTCAR:    PAW_PBE Ni 02Aug2007                  
 POTCAR:    PAW_PBE H 15Jun2001                   
 POTCAR:    PAW_PBE Pt 04Feb2005                  
   VRHFIN =Pt: s1d9                                                             
   LEXCH  = PE                                                                  
   EATOM  =   729.1176 eV,   53.5886 Ry                                         
                                                                                
   TITEL  = PAW_PBE Pt 04Feb2005                                                
   LULTRA =        F    use ultrasoft PP ?                                      
   IUNSCR =        1    unscreen: 0-lin 1-nonlin 2-no                           
   RPACOR =    2.330    partial core radius                                     
   POMASS =  195.080; ZVAL   =   10.000    mass and valenz                      
   RCORE  =    2.600    outmost cutoff radius                                   
   RWIGS  =    2.750; RWIGS  =    1.455    wigner-seitz radius (au A)           
   ENMAX  =  230.283; ENMIN  =  172.712 eV                                      
   ICORE  =        3    local potential                                         
   LCOR   =        T    correct aug charges                                     
   LPAW   =        T    paw PP                                                  
   EAUG   =  358.966                                                            
   DEXC   =    0.000                                                            
   RMAX   =    2.658    core radius for proj-oper                               
   RAUG   =    1.300    factor for augmentation sphere                          
   RDEP   =    2.761    radius for radial grids                                 
   RDEPT  =    2.203    core radius for aug-charge                              
                                                                                
   Atomic configuration                                                         
   16 entries                                                                   
     n  l   j            E        occ.                                          
     1  0  0.50    -78401.1885   2.0000                                         
     2  0  0.50    -13770.7750   2.0000                                         
     2  1  1.50    -11931.0468   6.0000                                         
     3  0  0.50     -3234.7234   2.0000                                         
     3  1  1.50     -2699.2216   6.0000                                         
     3  2  2.50     -2119.5714  10.0000                                         
     4  0  0.50      -695.1528   2.0000                                         
     4  1  1.50      -519.6034   6.0000                                         
     4  2  2.50      -306.6786  10.0000                                         
     4  3  3.50       -70.1041  14.0000                                         
     5  0  0.50      -101.7747   2.0000                                         
     5  1  1.50       -55.9873   6.0000                                         
     5  2  2.50        -6.1423   9.0000                                         
     6  0  0.50        -5.6573   1.0000                                         
     6  1  1.50        -6.8029   0.0000                                         
     5  3  2.50        -1.3606   0.0000                                         
   Description                                                                  
     l       E           TYP  RCUT    TYP  RCUT                                 
     2     -6.1423404     23  2.500                                             
     2     -7.5029230     23  2.500                                             
     0     -5.6573207     23  2.500                                             
     0      0.7416693     23  2.500                                             
     1     -2.7211652     23  2.600                                             
     1     20.4087390     23  2.600                                             
     3     -1.3605826     23  2.500                                             
  local pseudopotential read in
  partial core-charges read in
  partial kinetic energy density read in
  atomic valenz-charges read in
  non local Contribution for L=           2  read in
    real space projection operators read in
  non local Contribution for L=           2  read in
    real space projection operators read in
  non local Contribution for L=           0  read in
    real space projection operators read in
  non local Contribution for L=           0  read in
    real space projection operators read in
  non local Contribution for L=           1  read in
    real space projection operators read in
  non local Contribution for L=           1  read in
    real space projection operators read in
    PAW grid and wavefunctions read in
 
   number of l-projection  operators is LMAX  =           6
   number of lm-projection operators is LMMAX =          18
 
 POTCAR:    PAW_PBE Fe 06Sep2000                  
   VRHFIN =Fe:  d7 s1                                                           
   LEXCH  = PE                                                                  
   EATOM  =   594.3153 eV,   43.6809 Ry                                         
                                                                                
   TITEL  = PAW_PBE Fe 06Sep2000                                                
   LULTRA =        F    use ultrasoft PP ?                                      
   IUNSCR =        1    unscreen: 0-lin 1-nonlin 2-no                           
   RPACOR =    2.000    partial core radius                                     
   POMASS =   55.847; ZVAL   =    8.000    mass and valenz                      
   RCORE  =    2.300    outmost cutoff radius                                   
   RWIGS  =    2.460; RWIGS  =    1.302    wigner-seitz radius (au A)           
   ENMAX  =  267.882; ENMIN  =  200.911 eV                                      
   RCLOC  =    1.701    cutoff for local pot                                    
   LCOR   =        T    correct aug charges                                     
   LPAW   =        T    paw PP                                                  
   EAUG   =  511.368                                                            
   DEXC   =    0.000                                                            
   RMAX   =    2.356    core radius for proj-oper                               
   RAUG   =    1.300    factor for augmentation sphere                          
   RDEP   =    2.442    radius for radial grids                                 
   RDEPT  =    1.890    core radius for aug-charge                              
                                                                                
   Atomic configuration                                                         
    9 entries                                                                   
     n  l   j            E        occ.                                          
     1  0  0.50     -6993.8440   2.0000                                         
     2  0  0.50      -814.6047   2.0000                                         
     2  1  1.50      -693.3689   6.0000                                         
     3  0  0.50       -89.4732   2.0000                                         
     3  1  1.50       -55.6373   6.0000                                         
     3  2  2.50        -3.8151   7.0000                                         
     4  0  0.50        -4.2551   1.0000                                         
     4  1  1.50        -3.4015   0.0000                                         
     4  3  2.50        -1.3606   0.0000                                         
   Description                                                                  
     l       E           TYP  RCUT    TYP  RCUT                                 
     2     -3.8151135     23  2.300                                             
     2     -5.1756961     23  2.300                                             
     0     -4.2550963     23  2.300                                             
     0      7.2035603     23  2.300                                             
     1     -2.7211652     23  2.300                                             
     1     18.4316424     23  2.300                                             
  local pseudopotential read in
  partial core-charges read in
  partial kinetic energy density read in
  atomic valenz-charges read in
  non local Contribution for L=           2  read in
    real space projection operators read in
  non local Contribution for L=           2  read in
    real space projection operators read in
  non local Contribution for L=           0  read in
    real space projection operators read in
  non local Contribution for L=           0  read in
    real space projection operators read in
  non local Contribution for L=           1  read in
    real space projection operators read in
  non local Contribution for L=           1  read in
    real space projection operators read in
    PAW grid and wavefunctions read in
 
   number of l-projection  operators is LMAX  =           6
   number of lm-projection operators is LMMAX =          18
 
 POTCAR:    PAW_PBE Co 02Aug2007                  
   VRHFIN =Co: d8 s1                                                            
   LEXCH  = PE                                                                  
   EATOM  =   813.3670 eV,   59.7808 Ry                                         
                                                                                
   TITEL  = PAW_PBE Co 02Aug2007                                                
   LULTRA =        F    use ultrasoft PP ?                                      
   IUNSCR =        1    unscreen: 0-lin 1-nonlin 2-no                           
   RPACOR =    2.000    partial core radius                                     
   POMASS =   58.933; ZVAL   =    9.000    mass and valenz                      
   RCORE  =    2.300    outmost cutoff radius                                   
   RWIGS  =    2.460; RWIGS  =    1.302    wigner-seitz radius (au A)           
   ENMAX  =  267.968; ENMIN  =  200.976 eV                                      
   RCLOC  =    1.203    cutoff for local pot                                    
   LCOR   =        T    correct aug charges                                     
   LPAW   =        T    paw PP                                                  
   EAUG   =  477.818                                                            
   DEXC   =    0.000                                                            
   RMAX   =    2.360    core radius for proj-oper                               
   RAUG   =    1.300    factor for augmentation sphere                          
   RDEP   =    2.393    radius for radial grids                                 
   RDEPT  =    1.864    core radius for aug-charge                              
                                                                                
   Atomic configuration                                                         
    9 entries                                                                   
     n  l   j            E        occ.                                          
     1  0  0.50     -7587.6674   2.0000                                         
     2  0  0.50      -893.6084   2.0000                                         
     2  1  1.50      -764.5805   6.0000                                         
     3  0  0.50       -97.5973   2.0000                                         
     3  1  1.50       -60.9648   6.0000                                         
     3  2  2.50        -4.2382   8.0000                                         
     4  0  0.50        -4.3746   1.0000                                         
     4  1  1.50        -4.0817   0.0000                                         
     4  3  2.50        -1.3606   0.0000                                         
   Description                                                                  
     l       E           TYP  RCUT    TYP  RCUT                                 
     2     -4.2382362     23  2.300                                             
     2     -5.5988188     23  2.300                                             
     0     -4.3745797     23  2.300                                             
     0      5.7660125     23  2.300                                             
     1     -2.7211652     23  2.300                                             
     1     16.9860234     23  2.300                                             
  local pseudopotential read in
  partial core-charges read in
  partial kinetic energy density read in
  atomic valenz-charges read in
  non local Contribution for L=           2  read in
    real space projection operators read in
  non local Contribution for L=           2  read in
    real space projection operators read in
  non local Contribution for L=           0  read in
    real space projection operators read in
  non local Contribution for L=           0  read in
    real space projection operators read in
  non local Contribution for L=           1  read in
    real space projection operators read in
  non local Contribution for L=           1  read in
    real space projection operators read in
    PAW grid and wavefunctions read in
 
   number of l-projection  operators is LMAX  =           6
   number of lm-projection operators is LMMAX =          18
 
 POTCAR:    PAW_PBE Cu 22Jun2005                  
   VRHFIN =Cu: d10 p1                                                           
   LEXCH  = PE                                                                  
   EATOM  =  1390.9808 eV,  102.2342 Ry                                         
                                                                                
   TITEL  = PAW_PBE Cu 22Jun2005                                                
   LULTRA =        F    use ultrasoft PP ?                                      
   IUNSCR =        1    unscreen: 0-lin 1-nonlin 2-no                           
   RPACOR =    2.000    partial core radius                                     
   POMASS =   63.546; ZVAL   =   11.000    mass and valenz                      
   RCORE  =    2.300    outmost cutoff radius                                   
   RWIGS  =    2.200; RWIGS  =    1.164    wigner-seitz radius (au A)           
   ENMAX  =  295.446; ENMIN  =  221.585 eV                                      
   ICORE  =        3    local potential                                         
   LCOR   =        T    correct aug charges                                     
   LPAW   =        T    paw PP                                                  
   EAUG   =  586.980                                                            
   DEXC   =    0.000                                                            
   RMAX   =    2.344    core radius for proj-oper                               
   RAUG   =    1.300    factor for augmentation sphere                          
   RDEP   =    2.302    radius for radial grids                                 
   RDEPT  =    1.771    core radius for aug-charge                              
                                                                                
   Atomic configuration                                                         
    9 entries                                                                   
     n  l   j            E        occ.                                          
     1  0  0.50     -8850.2468   2.0000                                         
     2  0  0.50     -1062.3498   2.0000                                         
     2  1  1.50      -916.8226   6.0000                                         
     3  0  0.50      -114.6929   2.0000                                         
     3  1  1.50       -72.1325   6.0000                                         
     3  2  2.50        -5.0394  10.0000                                         
     4  0  0.50        -4.6097   1.0000                                         
     4  1  0.50        -4.0817   0.0000                                         
     4  3  2.50        -1.3606   0.0000                                         
   Description                                                                  
     l       E           TYP  RCUT    TYP  RCUT                                 
     2     -5.0393973     23  2.200                                             
     2     10.8846608     23  2.200                                             
     0     -4.6097109     23  2.200                                             
     0      8.2520465     23  2.200                                             
     1     -2.7211652     23  2.200                                             
     1     21.7055443     23  2.200                                             
     3      2.7211652     23  2.300                                             
  local pseudopotential read in
  partial core-charges read in
  partial kinetic energy density read in
  atomic valenz-charges read in
  non local Contribution for L=           2  read in
    real space projection operators read in
  non local Contribution for L=           2  read in
    real space projection operators read in
  non local Contribution for L=           0  read in
    real space projection operators read in
  non local Contribution for L=           0  read in
    real space projection operators read in
  non local Contribution for L=           1  read in
    real space projection operators read in
  non local Contribution for L=           1  read in
    real space projection operators read in
    PAW grid and wavefunctions read in
 
   number of l-projection  operators is LMAX  =           6
   number of lm-projection operators is LMMAX =          18
 
 POTCAR:    PAW_PBE Ni 02Aug2007                  
   VRHFIN =Ni:                                                                  
   LEXCH  = PE                                                                  
   EATOM  =  1077.6739 eV,   79.2068 Ry                                         
                                                                                
   TITEL  = PAW_PBE Ni 02Aug2007                                                
   LULTRA =        F    use ultrasoft PP ?                                      
   IUNSCR =        1    unscreen: 0-lin 1-nonlin 2-no                           
   RPACOR =    2.000    partial core radius                                     
   POMASS =   58.690; ZVAL   =   10.000    mass and valenz                      
   RCORE  =    2.300    outmost cutoff radius                                   
   RWIGS  =    2.430; RWIGS  =    1.286    wigner-seitz radius (au A)           
   ENMAX  =  269.532; ENMIN  =  202.149 eV                                      
   RCLOC  =    1.201    cutoff for local pot                                    
   LCOR   =        T    correct aug charges                                     
   LPAW   =        T    paw PP                                                  
   EAUG   =  544.565                                                            
   DEXC   =    0.000                                                            
   RMAX   =    2.357    core radius for proj-oper                               
   RAUG   =    1.300    factor for augmentation sphere                          
   RDEP   =    2.390    radius for radial grids                                 
   RDEPT  =    1.838    core radius for aug-charge                              
                                                                                
   Atomic configuration                                                         
    9 entries                                                                   
     n  l   j            E        occ.                                          
     1  0  0.50     -8206.4253   2.0000                                         
     2  0  0.50      -976.1748   2.0000                                         
     2  1  1.50      -839.0571   6.0000                                         
     3  0  0.50      -105.9991   2.0000                                         
     3  1  1.50       -66.4603   6.0000                                         
     3  2  2.50        -4.6458   9.0000                                         
     4  0  0.50        -4.4926   1.0000                                         
     4  1  1.50        -4.0817   0.0000                                         
     4  3  2.50        -1.3606   0.0000                                         
   Description                                                                  
     l       E           TYP  RCUT    TYP  RCUT                                 
     2     -4.6457903     23  2.300                                             
     2     -6.0063729     23  2.300                                             
     0     -4.4925590     23  2.300                                             
     0      5.0102601     23  2.300                                             
     1     -2.7211652     23  2.300                                             
     1     16.5183231     23  2.300                                             
  local pseudopotential read in
  partial core-charges read in
  partial kinetic energy density read in
  atomic valenz-charges read in
  non local Contribution for L=           2  read in
    real space projection operators read in
  non local Contribution for L=           2  read in
    real space projection operators read in
  non local Contribution for L=           0  read in
    real space projection operators read in
  non local Contribution for L=           0  read in
    real space projection operators read in
  non local Contribution for L=           1  read in
    real space projection operators read in
  non local Contribution for L=           1  read in
    real space projection operators read in
    PAW grid and wavefunctions read in
 
   number of l-projection  operators is LMAX  =           6
   number of lm-projection operators is LMMAX =          18
 
 POTCAR:    PAW_PBE H 15Jun2001                   
   VRHFIN =H: ultrasoft test                                                    
   LEXCH  = PE                                                                  
   EATOM  =    12.4884 eV,    0.9179 Ry                                         
                                                                                
   TITEL  = PAW_PBE H 15Jun2001                                                 
   LULTRA =        F    use ultrasoft PP ?                                      
   IUNSCR =        0    unscreen: 0-lin 1-nonlin 2-no                           
   RPACOR =    0.000    partial core radius                                     
   POMASS =    1.000; ZVAL   =    1.000    mass and valenz                      
   RCORE  =    1.100    outmost cutoff radius                                   
   RWIGS  =    0.700; RWIGS  =    0.370    wigner-seitz radius (au A)           
   ENMAX  =  250.000; ENMIN  =  200.000 eV                                      
   RCLOC  =    0.701    cutoff for local pot                                    
   LCOR   =        T    correct aug charges                                     
   LPAW   =        T    paw PP                                                  
   EAUG   =  400.000                                                            
   RMAX   =    1.123    core radius for proj-oper                               
   RAUG   =    1.200    factor for augmentation sphere                          
   RDEP   =    1.112    radius for radial grids                                 
   RDEPT  =    0.926    core radius for aug-charge                              
                                                                                
   Atomic configuration                                                         
    2 entries                                                                   
     n  l   j            E        occ.                                          
     1  0  0.50        -6.4927   1.0000                                         
     2  1  0.50        -3.4015   0.0000                                         
   Description                                                                  
     l       E           TYP  RCUT    TYP  RCUT                                 
     0     -6.4927494     23  1.100                                             
     0      6.8029130     23  1.100                                             
     1     -4.0817478     23  1.100                                             
  local pseudopotential read in
  atomic valenz-charges read in
  non local Contribution for L=           0  read in
    real space projection operators read in
  non local Contribution for L=           0  read in
    real space projection operators read in
  non local Contribution for L=           1  read in
    real space projection operators read in
    PAW grid and wavefunctions read in
 
   number of l-projection  operators is LMAX  =           3
   number of lm-projection operators is LMMAX =           5
 
 Optimization of the real space projectors (new method)

 maximal supplied QI-value         = 14.36
 optimisation between [QCUT,QGAM] = [ 11.92, 23.98] = [ 39.79,161.09] Ry 
 Optimized for a Real-space Cutoff    1.49 Angstroem

   l    n(q)    QCUT    max X(q) W(low)/X(q) W(high)/X(q)  e(spline) 
   2     10    11.920    66.195    0.79E-04    0.18E-03    0.24E-06
   2     10    11.920    64.643    0.81E-04    0.19E-03    0.24E-06
   0     11    11.920    95.520    0.28E-04    0.54E-04    0.18E-06
   0     11    11.920    63.403    0.27E-04    0.52E-04    0.17E-06
   1     10    11.920    19.961    0.18E-04    0.11E-03    0.23E-06
   1     10    11.920    13.289    0.25E-04    0.87E-04    0.19E-06
 Optimization of the real space projectors (new method)

 maximal supplied QI-value         = 16.25
 optimisation between [QCUT,QGAM] = [ 11.86, 23.89] = [ 39.41,159.82] Ry 
 Optimized for a Real-space Cutoff    1.49 Angstroem

   l    n(q)    QCUT    max X(q) W(low)/X(q) W(high)/X(q)  e(spline) 
   2     10    11.864    80.901    0.13E-03    0.23E-03    0.37E-06
   2     10    11.864    75.754    0.13E-03    0.23E-03    0.38E-06
   0     11    11.864    58.752    0.44E-04    0.11E-04    0.20E-06
   0     11    11.864    30.679    0.36E-04    0.10E-04    0.18E-06
   1     10    11.864    17.977    0.31E-04    0.45E-04    0.10E-06
   1     10    11.864    13.559    0.25E-04    0.37E-04    0.89E-07
 Optimization of the real space projectors (new method)

 maximal supplied QI-value         = 16.25
 optimisation between [QCUT,QGAM] = [ 11.86, 23.89] = [ 39.41,159.82] Ry 
 Optimized for a Real-space Cutoff    1.33 Angstroem

   l    n(q)    QCUT    max X(q) W(low)/X(q) W(high)/X(q)  e(spline) 
   2      9    11.864    65.824    0.22E-03    0.53E-03    0.26E-06
   2      9    11.864    61.429    0.22E-03    0.53E-03    0.26E-06
   0      9    11.864    56.174    0.21E-03    0.32E-04    0.15E-06
   0      9    11.864    31.263    0.19E-03    0.30E-04    0.14E-06
   1      9    11.864    19.828    0.63E-04    0.30E-03    0.16E-06
   1      9    11.864    15.139    0.49E-04    0.25E-03    0.13E-06
 Optimization of the real space projectors (new method)

 maximal supplied QI-value         = 16.25
 optimisation between [QCUT,QGAM] = [ 11.86, 23.89] = [ 39.41,159.82] Ry 
 Optimized for a Real-space Cutoff    1.49 Angstroem

   l    n(q)    QCUT    max X(q) W(low)/X(q) W(high)/X(q)  e(spline) 
   2     10    11.864     4.610    0.10E-03    0.20E-03    0.29E-06
   2     10    11.864     8.522    0.17E-03    0.33E-03    0.50E-06
   0     11    11.864    51.609    0.52E-04    0.55E-04    0.33E-06
   0     11    11.864    27.747    0.46E-04    0.52E-04    0.31E-06
   1     10    11.864    20.408    0.54E-04    0.25E-04    0.21E-06
   1     10    11.864    13.425    0.48E-04    0.22E-04    0.18E-06
 Optimization of the real space projectors (new method)

 maximal supplied QI-value         = 16.25
 optimisation between [QCUT,QGAM] = [ 11.86, 23.89] = [ 39.41,159.82] Ry 
 Optimized for a Real-space Cutoff    1.33 Angstroem

   l    n(q)    QCUT    max X(q) W(low)/X(q) W(high)/X(q)  e(spline) 
   2      9    11.864    60.317    0.21E-03    0.51E-03    0.25E-06
   2      9    11.864    55.921    0.21E-03    0.51E-03    0.26E-06
   0      9    11.864    51.690    0.22E-03    0.30E-04    0.17E-06
   0      9    11.864    30.015    0.20E-03    0.28E-04    0.15E-06
   1      9    11.864    18.849    0.76E-04    0.33E-03    0.17E-06
   1      9    11.864    14.624    0.60E-04    0.28E-03    0.15E-06
 Optimization of the real space projectors (new method)

 maximal supplied QI-value         = 34.20
 optimisation between [QCUT,QGAM] = [ 11.97, 23.94] = [ 40.13,160.53] Ry 
 Optimized for a Real-space Cutoff    1.18 Angstroem

   l    n(q)    QCUT    max X(q) W(low)/X(q) W(high)/X(q)  e(spline) 
   0      8    11.971    19.460    0.15E-03    0.31E-03    0.25E-06
   0      8    11.971    12.209    0.13E-03    0.29E-03    0.25E-06
   1      8    11.971     4.655    0.22E-03    0.24E-03    0.21E-06
  PAW_PBE Pt 04Feb2005                  :
 energy of atom  1       EATOM= -729.1176
 kinetic energy error for atom=    0.0021 (will be added to EATOM!!)
  PAW_PBE Fe 06Sep2000                  :
 energy of atom  2       EATOM= -594.3153
 kinetic energy error for atom=    0.0024 (will be added to EATOM!!)
  PAW_PBE Co 02Aug2007                  :
 energy of atom  3       EATOM= -813.3670
 kinetic energy error for atom=    0.0026 (will be added to EATOM!!)
  PAW_PBE Cu 22Jun2005                  :
 energy of atom  4       EATOM=-1390.9808
 kinetic energy error for atom=    0.0036 (will be added to EATOM!!)
  PAW_PBE Ni 02Aug2007                  :
 energy of atom  5       EATOM=-1077.6739
 kinetic energy error for atom=    0.0027 (will be added to EATOM!!)
  PAW_PBE H 15Jun2001                   :
 energy of atom  6       EATOM=  -12.4884
 kinetic energy error for atom=    0.0008 (will be added to EATOM!!)
 
 
 POSCAR: 11.26                                   
  positions in direct lattice
  velocities in cartesian coordinates
 exchange correlation table for  LEXCH =        8
   RHO(1)=    0.500       N(1)  =     2000
   RHO(2)=  100.500       N(2)  =     4000
 


--------------------------------------------------------------------------------------------------------


 ion  position               nearest neighbor table
   1  0.782  0.872  0.305-  49 2.53  59 2.60  28 2.68  61 2.76   4 2.77  19 2.79  33 2.79   2 2.80
                            11 2.80  29 2.83  12 2.86  60 2.87
   2  0.032  0.871  0.299-  79 2.51  77 2.54  28 2.76  30 2.78  33 2.78   1 2.80   4 2.82  60 2.83
                             6 2.88  22 2.96  16 2.97  52 3.10
   3  0.277  0.362  0.314-  64 2.55  31 2.66  68 2.66  39 2.71   5 2.72  43 2.75  13 2.76  25 2.77
                            19 2.81  30 2.82  33 2.86  18 2.96
   4  0.867  0.959  0.405-  60 2.64  17 2.75   9 2.77  11 2.77   1 2.77   6 2.80  12 2.82   2 2.82
                            16 2.84
   5  0.109  0.464  0.413-  39 2.61  33 2.68  16 2.72  12 2.72   3 2.72   7 2.76  10 2.80  25 2.84
                            13 3.01
   6  0.120  0.952  0.407-  52 2.65  22 2.71   4 2.80  14 2.82   9 2.82  16 2.83   8 2.84   2 2.88
                            10 2.89
   7  0.872  0.448  0.416-  39 2.61  75 2.63  29 2.74   9 2.74   5 2.76  10 2.77  15 2.78  27 2.86
                            12 2.90
   8  0.373  0.953  0.414-  81 1.65  52 2.54  43 2.57  61 2.71  13 2.75  27 2.78  14 2.81  10 2.82
                            11 2.82   6 2.84
   9  0.870  0.205  0.407-  75 2.61  60 2.65   7 2.74  22 2.76  17 2.77   4 2.77  15 2.79   6 2.82
                            10 2.89
  10  0.125  0.207  0.413-  39 2.64  43 2.65  22 2.72  13 2.75   7 2.77   5 2.80   8 2.82   9 2.89
                             6 2.89
  11  0.625  0.949  0.412-  61 2.66  12 2.72  19 2.74   4 2.77  13 2.78   1 2.80   8 2.82  27 2.82
                            17 2.84
  12  0.868  0.708  0.412-  29 2.67  33 2.69   5 2.72  11 2.72  16 2.75   4 2.82  27 2.85   1 2.86
                             7 2.90
  13  0.376  0.196  0.415-  81 1.68  43 2.65  19 2.74   8 2.75  10 2.75   3 2.76  11 2.78  17 2.82
                            25 2.83   5 3.01
  14  0.373  0.703  0.407-  44 2.52  52 2.63  27 2.74  15 2.79   8 2.81   6 2.82  30 2.84  25 2.84
                            16 2.89
  15  0.621  0.454  0.412-  44 2.59  75 2.60  18 2.76  27 2.77   7 2.78   9 2.79  14 2.79  17 2.80
                            25 2.86
  16  0.116  0.703  0.412-  33 2.67   5 2.72  30 2.73  12 2.75  25 2.82   6 2.83   4 2.84  14 2.89
                             2 2.97
  17  0.623  0.204  0.410-  60 2.69  18 2.74   4 2.75   9 2.77  19 2.77  15 2.80  13 2.82  25 2.83
                            11 2.84
  18  0.536  0.373  0.310-  67 2.53  68 2.63  26 2.68  17 2.74  15 2.76  44 2.76  25 2.77  60 2.78
                            75 2.83  30 2.87  19 2.90   3 2.96
  19  0.531  0.117  0.311-  80 2.52  68 2.54  59 2.57  43 2.68  13 2.74  11 2.74  61 2.75  17 2.77
                             1 2.79   3 2.81  60 2.89  18 2.90
  20  0.557  0.109  0.059-  37 2.52  48 2.53  57 2.55  62 2.63  34 2.71  63 2.75  56 2.89  45 3.25

  21  0.093  0.426  0.123-  47 2.48  40 2.50  36 2.53  70 2.60  42 2.61  69 2.66  31 2.74  57 2.74
                            64 2.76  50 2.79
  22  0.051  0.124  0.311-  77 2.51  65 2.54  55 2.56  43 2.69   6 2.71  10 2.72  39 2.72   9 2.76
                            52 2.76  75 2.96   2 2.96  60 2.99  31 3.31
  23  0.024  0.112  0.042-  40 2.53  41 2.56  70 2.59  62 2.65  24 2.72  45 2.74  35 2.80  76 2.81
                            53 2.86
  24  0.129  0.948  0.141-  79 2.49  35 2.53  77 2.57  55 2.58  70 2.60  53 2.61  58 2.68  73 2.68
                            23 2.72  66 2.78  38 2.80  41 2.95
  25  0.367  0.452  0.412-   3 2.77  18 2.77  30 2.79  16 2.82  17 2.83  13 2.83   5 2.84  14 2.84
                            15 2.86
  26  0.446  0.559  0.220-  73 2.48  74 2.49  51 2.53  79 2.55  30 2.60  44 2.62  18 2.68  32 2.72
                            78 2.74  67 2.97  58 3.06  68 3.13  64 3.14
  27  0.617  0.702  0.413-  44 2.61  61 2.67  14 2.74  29 2.75  15 2.77   8 2.78  11 2.82  12 2.85
                             7 2.86
  28  0.950  0.757  0.209-  58 2.57  50 2.57  66 2.61  42 2.62  33 2.63   1 2.68  49 2.69   2 2.76
                            64 2.78
  29  0.795  0.615  0.316-  42 2.55  49 2.61  32 2.64  39 2.65  12 2.67  75 2.68  33 2.72   7 2.74
                            27 2.75   1 2.83  61 2.85  44 2.86
  30  0.271  0.617  0.308-  79 2.52  26 2.60  33 2.64  64 2.68  16 2.73   2 2.78  25 2.79   3 2.82
                            14 2.84  18 2.87  44 3.02  52 3.16
  31  0.189  0.266  0.225-  70 2.50  55 2.57  57 2.59  43 2.61  39 2.62  65 2.65   3 2.66  21 2.74
                            64 2.76  42 2.84  80 2.85  68 3.01  22 3.31
  32  0.693  0.549  0.221-  69 2.52  54 2.57  49 2.58  51 2.59  44 2.62  29 2.64  78 2.67  75 2.68
                            42 2.71  26 2.72  67 2.75  65 2.79  50 3.30
  33  0.032  0.625  0.314-  28 2.63  30 2.64  64 2.67  16 2.67   5 2.68  12 2.69  42 2.72  29 2.72
                             2 2.78   1 2.79  39 2.81   3 2.86
  34  0.791  0.861  0.064-  48 2.37  50 2.40  66 2.51  36 2.70  20 2.71  62 2.82  63 2.83  35 2.86

  35  0.050  0.852  0.056-  36 2.39  24 2.53  66 2.57  58 2.66  72 2.69  23 2.80  34 2.86  53 2.90
                            62 2.93
  36  0.048  0.640  0.066-  35 2.39  47 2.52  21 2.53  58 2.57  50 2.59  34 2.70  72 2.75
  37  0.628  0.231  0.134-  67 2.48  51 2.49  74 2.50  56 2.50  20 2.52  41 2.53  59 2.53  62 2.56
                            68 2.61  66 2.82
  38  0.378  0.948  0.136-  45 2.38  80 2.45  55 2.46  53 2.47  73 2.51  63 2.51  78 2.52  54 2.58
                            48 2.62  57 2.79  24 2.80  70 2.85
  39  0.029  0.377  0.320-   7 2.61  42 2.61   5 2.61  31 2.62  10 2.64  65 2.65  29 2.65   3 2.71
                            22 2.72  75 2.73  33 2.81  43 3.01
  40  0.980  0.356  0.044-  69 2.33  76 2.41  21 2.50  23 2.53  71 2.54  70 2.64  45 3.11
  41  0.864  0.208  0.134-  77 2.39  76 2.41  69 2.49  67 2.50  37 2.53  23 2.56  65 2.57  62 2.59
                            66 2.61  70 2.67  51 2.84  24 2.95
  42  0.945  0.527  0.221-  50 2.47  29 2.55  65 2.61  21 2.61  39 2.61  28 2.62  69 2.65  32 2.71
                            64 2.71  33 2.72  49 2.75  31 2.84
  43  0.298  0.108  0.320-  55 2.52  52 2.53   8 2.57  31 2.61  80 2.62  13 2.65  10 2.65  19 2.68
                            22 2.69  61 2.71   3 2.75  39 3.01
  44  0.539  0.617  0.319-  14 2.52  15 2.59  27 2.61  32 2.62  26 2.62  78 2.65  75 2.69  18 2.76
                            61 2.82  52 2.83  29 2.86  30 3.02
  45  0.273  0.099  0.052-  38 2.38  53 2.39  70 2.41  57 2.59  63 2.73  23 2.74  40 3.11  20 3.25

  46  0.533  0.620  0.050-  51 2.36  73 2.40  54 2.41  71 2.45  72 2.60  56 2.76  53 2.78  76 2.82
                            63 2.89
  47  0.277  0.422  0.059-  74 2.25  72 2.41  21 2.48  36 2.52  56 2.59  57 2.67
  48  0.621  0.927  0.141-  49 2.29  34 2.37  80 2.44  54 2.48  63 2.51  20 2.53  38 2.62  59 2.63
                            50 2.71
  49  0.703  0.775  0.220-  48 2.29  50 2.43  54 2.51   1 2.53  32 2.58  78 2.59  29 2.61  61 2.64
                            28 2.69  42 2.75  80 2.80
  50  0.841  0.670  0.130-  71 2.37  34 2.40  49 2.43  54 2.44  42 2.47  28 2.57  69 2.58  36 2.59
                            48 2.71  21 2.79  32 3.30
  51  0.611  0.461  0.131-  46 2.36  76 2.42  37 2.49  26 2.53  56 2.54  74 2.57  69 2.58  32 2.59
                            67 2.64  73 2.79  54 2.82  41 2.84
  52  0.301  0.882  0.318-  55 2.37  79 2.38  43 2.53  78 2.53   8 2.54  61 2.61  14 2.63   6 2.65
                            22 2.76  44 2.83   2 3.10  30 3.16
  53  0.294  0.876  0.048-  45 2.39  73 2.42  38 2.47  24 2.61  63 2.70  46 2.78  72 2.80  23 2.86
                            35 2.90
  54  0.604  0.716  0.131-  46 2.41  50 2.44  71 2.46  63 2.47  73 2.47  48 2.48  49 2.51  78 2.54
                            32 2.57  38 2.58  51 2.82  69 2.98
  55  0.236  0.017  0.228-  52 2.37  38 2.46  79 2.46  80 2.51  43 2.52  78 2.53  22 2.56  31 2.57
                            24 2.58  70 2.67  77 3.03
  56  0.524  0.379  0.043-  74 2.46  37 2.50  51 2.54  76 2.59  47 2.59  72 2.66  46 2.76  20 2.89

  57  0.355  0.208  0.134-  68 2.51  20 2.55  31 2.59  45 2.59  80 2.65  47 2.67  21 2.74  38 2.79
                            74 2.84  70 2.86
  58  0.173  0.691  0.152-  79 2.43  72 2.43  64 2.43  73 2.56  36 2.57  28 2.57  35 2.66  24 2.68
                            74 2.68  26 3.06
  59  0.692  0.057  0.219-  66 2.44  37 2.53  60 2.55  19 2.57   1 2.60  68 2.60  48 2.63  80 2.85
                            77 2.89
  60  0.784  0.126  0.311-  77 2.48  67 2.49  59 2.55   4 2.64   9 2.65  17 2.69  18 2.78   2 2.83
                             1 2.87  75 2.87  19 2.89  22 2.99
  61  0.540  0.868  0.316-  78 2.43  80 2.55  52 2.61  49 2.64  11 2.66  27 2.67  43 2.71   8 2.71
                            19 2.75   1 2.76  44 2.82  29 2.85
  62  0.788  0.110  0.045-  66 2.50  37 2.56  41 2.59  76 2.62  20 2.63  23 2.65  34 2.82  35 2.93

  63  0.533  0.878  0.044-  54 2.47  48 2.51  38 2.51  53 2.70  45 2.73  20 2.75  34 2.83  46 2.89

  64  0.196  0.508  0.218-  58 2.43   3 2.55  74 2.63  33 2.67  30 2.68  42 2.71  68 2.73  31 2.76
                            21 2.76  28 2.78  26 3.14
  65  0.939  0.298  0.225-  69 2.45  75 2.53  22 2.54  77 2.55  67 2.56  41 2.57  42 2.61  70 2.62
                            39 2.65  31 2.65  32 2.79
  66  0.870  0.973  0.141-  59 2.44  77 2.46  62 2.50  34 2.51  35 2.57  41 2.61  28 2.61  24 2.78
                            37 2.82
  67  0.712  0.295  0.226-  37 2.48  60 2.49  41 2.50  18 2.53  75 2.54  65 2.56  77 2.58  51 2.64
                            32 2.75  26 2.97
  68  0.451  0.278  0.221-  74 2.41  57 2.51  19 2.54  59 2.60  37 2.61  18 2.63   3 2.66  64 2.73
                            80 2.80  31 3.01  26 3.13
  69  0.852  0.435  0.132-  40 2.33  71 2.42  65 2.45  76 2.49  41 2.49  32 2.52  51 2.58  50 2.58
                            42 2.65  21 2.66  70 2.85  54 2.98
  70  0.111  0.187  0.135-  45 2.41  31 2.50  23 2.59  24 2.60  21 2.60  65 2.62  40 2.64  41 2.67
                            55 2.67  38 2.85  69 2.85  57 2.86
  71  0.764  0.591  0.047-  50 2.37  69 2.42  46 2.45  54 2.46  40 2.54  76 2.65
  72  0.300  0.624  0.056-  47 2.41  58 2.43  73 2.46  74 2.54  46 2.60  56 2.66  35 2.69  36 2.75
                            53 2.80
  73  0.380  0.724  0.134-  46 2.40  53 2.42  72 2.46  54 2.47  26 2.48  38 2.51  78 2.53  79 2.56
                            58 2.56  24 2.68  51 2.79
  74  0.394  0.439  0.138-  47 2.25  68 2.41  56 2.46  26 2.49  37 2.50  72 2.54  51 2.57  64 2.63
                            58 2.68  57 2.84
  75  0.783  0.382  0.318-  65 2.53  67 2.54  15 2.60   9 2.61   7 2.63  32 2.68  29 2.68  44 2.69
                            39 2.73  18 2.83  60 2.87  22 2.96
  76  0.767  0.354  0.047-  41 2.41  40 2.41  51 2.42  69 2.49  56 2.59  62 2.62  71 2.65  23 2.81
                            46 2.82
  77  0.944  0.068  0.223-  41 2.39  66 2.46  60 2.48  22 2.51   2 2.54  65 2.55  24 2.57  67 2.58
                            59 2.89  55 3.03
  78  0.463  0.794  0.228-  61 2.43  38 2.52  79 2.52  55 2.53  52 2.53  73 2.53  54 2.54  80 2.57
                            49 2.59  44 2.65  32 2.67  26 2.74
  79  0.236  0.798  0.232-  52 2.38  58 2.43  55 2.46  24 2.49   2 2.51  30 2.52  78 2.52  26 2.55
                            73 2.56
  80  0.455  0.026  0.224-  48 2.44  38 2.45  55 2.51  19 2.52  61 2.55  78 2.57  43 2.62  57 2.65
                            49 2.80  68 2.80  31 2.85  59 2.85
  81  0.376  0.071  0.458-   8 1.65  13 1.68
 
  LATTYP: Found a hexagonal cell.
 ALAT       =    11.2227001190
 C/A-ratio  =     1.9603125600
  
  Lattice vectors:
  
 A1 = (   5.6113500595,  -9.7191434021,   0.0000000000)
 A2 = ( -11.2227001190,   0.0000000000,   0.0000000000)
 A3 = (   0.0000000000,   0.0000000000, -22.0000000000)


Analysis of symmetry for initial positions (statically):
=====================================================================
 Subroutine PRICEL returns:
 Original cell was already a primitive cell.
 

 Routine SETGRP: Setting up the symmetry group for a 
 hexagonal supercell.


 Subroutine GETGRP returns: Found  1 space group operations
 (whereof  1 operations were pure point group operations)
 out of a pool of 24 trial point group operations.


The static configuration has the point symmetry C_1 .


Analysis of symmetry for dynamics (positions and initial velocities):
=====================================================================
 Subroutine PRICEL returns:
 Original cell was already a primitive cell.
 

 Routine SETGRP: Setting up the symmetry group for a 
 hexagonal supercell.


 Subroutine GETGRP returns: Found  1 space group operations
 (whereof  1 operations were pure point group operations)
 out of a pool of 24 trial point group operations.


The dynamic configuration has the point symmetry C_1 .


Analysis of constrained symmetry for selective dynamics:
=====================================================================
 Subroutine PRICEL returns:
 Original cell was already a primitive cell.
 

 Routine SETGRP: Setting up the symmetry group for a 
 hexagonal supercell.


 Subroutine GETGRP returns: Found  1 space group operations
 (whereof  1 operations were pure point group operations)
 out of a pool of 24 trial point group operations.


The constrained configuration has the point symmetry C_1 .


Analysis of structural, dynamic, and magnetic symmetry:
=====================================================================
 Subroutine PRICEL returns:
 Original cell was already a primitive cell.
 

 Routine SETGRP: Setting up the symmetry group for a 
 hexagonal supercell.


 Subroutine GETGRP returns: Found  1 space group operations
 (whereof  1 operations were pure point group operations)
 out of a pool of 24 trial point group operations.


The magnetic configuration has the point symmetry C_1 .


 Subroutine INISYM returns: Found  1 space group operations
 (whereof  1 operations are pure point group operations),
 and found     1 'primitive' translations

 
 
 KPOINTS: mesh auto                               

Automatic generation of k-mesh.
Space group operators:
 irot       det(A)        alpha          n_x          n_y          n_z        tau_x        tau_y        tau_z
    1     1.000000     0.000000     1.000000     0.000000     0.000000     0.000000     0.000000     0.000000
 
 Subroutine IBZKPT returns following result:
 ===========================================
 
 Found      4 irreducible k-points:
 
 Following reciprocal coordinates:
            Coordinates               Weight
  0.000000  0.000000  0.000000      1.000000
  0.500000  0.000000  0.000000      1.000000
  0.000000  0.500000  0.000000      1.000000
  0.500000  0.500000  0.000000      1.000000
 
 Following cartesian coordinates:
            Coordinates               Weight
  0.000000  0.000000  0.000000      1.000000
  0.044553 -0.025722  0.000000      1.000000
  0.000000  0.051445  0.000000      1.000000
  0.044553  0.025722  0.000000      1.000000
 


--------------------------------------------------------------------------------------------------------




 Dimension of arrays:
   k-points           NKPTS =      4   k-points in BZ     NKDIM =      4   number of bands    NBANDS=    588
   number of dos      NEDOS =    301   number of ions     NIONS =     81
   non local maximal  LDIM  =      6   non local SUM 2l+1 LMDIM =     18
   total plane-waves  NPLWV = ******
   max r-space proj   IRMAX =   7929   max aug-charges    IRDMAX=  34542
   dimension x,y,z NGX =    90 NGY =   90 NGZ =  168
   dimension x,y,z NGXF=   180 NGYF=  180 NGZF=  336
   support grid    NGXF=   180 NGYF=  180 NGZF=  336
   ions per type =              32  13  10  13  12   1
   NGX,Y,Z   is equivalent  to a cutoff of  13.33, 13.33, 12.70 a.u.
   NGXF,Y,Z  is equivalent  to a cutoff of  26.66, 26.66, 25.39 a.u.

 SYSTEM =  Pt111                                   
 POSCAR =  11.26                                   

 Startparameter for this run:
   NWRITE =      2    write-flag & timer
   PREC   = accura    normal or accurate (medium, high low for compatibility)
   ISTART =      0    job   : 0-new  1-cont  2-samecut
   ICHARG =      2    charge: 1-file 2-atom 10-const
   ISPIN  =      2    spin polarized calculation?
   LNONCOLLINEAR =      F non collinear calculations
   LSORBIT =      F    spin-orbit coupling
   INIWAV =      1    electr: 0-lowe 1-rand  2-diag
   LASPH  =      F    aspherical Exc in radial PAW
   METAGGA=      F    non-selfconsistent MetaGGA calc.

 Electronic Relaxation 1
   ENCUT  =  550.0 eV  40.42 Ry    6.36 a.u.  21.46 21.46 42.07*2*pi/ulx,y,z
   ENINI  =  550.0     initial cutoff
   ENAUG  =  587.0 eV  augmentation charge cutoff
   NELM   =    200;   NELMIN=  2; NELMDL= -5     # of ELM steps 
   EDIFF  = 0.1E-04   stopping-criterion for ELM
   LREAL  =      T    real-space projection
   NLSPLINE    = F    spline interpolate recip. space projectors
   LCOMPAT=      F    compatible to vasp.4.4
   GGA_COMPAT  = T    GGA compatible to vasp.4.4-vasp.4.6
   LMAXPAW     = -100 max onsite density
   LMAXMIX     =    2 max onsite mixed and CHGCAR
   VOSKOWN=      0    Vosko Wilk Nusair interpolation
   ROPT   =   -0.00025  -0.00025  -0.00025  -0.00025
   ROPT   =   -0.00025  -0.00025
 Ionic relaxation
   EDIFFG = -.5E-01   stopping-criterion for IOM
   NSW    =    300    number of steps for IOM
   NBLOCK =      1;   KBLOCK =    300    inner block; outer block 
   IBRION =      2    ionic relax: 0-MD 1-quasi-New 2-CG
   NFREE  =      1    steps in history (QN), initial steepest desc. (CG)
   ISIF   =      2    stress and relaxation
   IWAVPR =     11    prediction:  0-non 1-charg 2-wave 3-comb
   ISYM   =      2    0-nonsym 1-usesym 2-fastsym
   LCORR  =      T    Harris-Foulkes like correction to forces

   POTIM  = 0.5000    time-step for ionic-motion
   TEIN   =    0.0    initial temperature
   TEBEG  =    0.0;   TEEND  =   0.0 temperature during run
   SMASS  =  -3.00    Nose mass-parameter (am)
   estimated Nose-frequenzy (Omega)   =  0.10E-29 period in steps =****** mass=  -0.288E-26a.u.
   SCALEE = 1.0000    scale energy and forces
   NPACO  =    256;   APACO  = 16.0  distance and # of slots for P.C.
   PSTRESS=    0.0 pullay stress

  Mass of Ions in am
   POMASS = 195.08 55.85 58.93 63.55 58.69  1.00
  Ionic Valenz
   ZVAL   =  10.00  8.00  9.00 11.00 10.00  1.00
  Atomic Wigner-Seitz radii
   RWIGS  =  -1.00 -1.00 -1.00 -1.00 -1.00 -1.00
  virtual crystal weights 
   VCA    =   1.00  1.00  1.00  1.00  1.00  1.00
   NELECT =     778.0000    total number of electrons
   NUPDOWN=      -1.0000    fix difference up-down

 DOS related values:
   EMIN   =  10.00;   EMAX   =-10.00  energy-range for DOS
   EFERMI =   0.00
   ISMEAR =     1;   SIGMA  =   0.10  broadening in eV -4-tet -1-fermi 0-gaus

 Electronic relaxation 2 (details)
   IALGO  =     68    algorithm
   LDIAG  =      T    sub-space diagonalisation (order eigenvalues)
   LSUBROT=      F    optimize rotation matrix (better conditioning)
   TURBO    =      0    0=normal 1=particle mesh
   IRESTART =      0    0=no restart 2=restart with 2 vectors
   NREBOOT  =      0    no. of reboots
   NMIN     =      0    reboot dimension
   EREF     =   0.00    reference energy to select bands
   IMIX   =      4    mixing-type and parameters
     AMIX     =   0.40;   BMIX     =  1.00
     AMIX_MAG =   1.60;   BMIX_MAG =  1.00
     AMIN     =   0.10
     WC   =   100.;   INIMIX=   1;  MIXPRE=   1;  MAXMIX= -45

 Intra band minimization:
   WEIMIN = 0.0010     energy-eigenvalue tresh-hold
   EBREAK =  0.43E-08  absolut break condition
   DEPER  =   0.30     relativ break condition  

   TIME   =   0.40     timestep for ELM

  volume/ion in A,a.u.               =      29.63       199.92
  Fermi-wavevector in a.u.,A,eV,Ry     =   1.124653  2.125287 17.209264  1.264845
  Thomas-Fermi vector in A             =   2.261326
 
 Write flags
   LWAVE        =      F    write WAVECAR
   LDOWNSAMPLE  =      F    k-point downsampling of WAVECAR
   LCHARG       =      F    write CHGCAR
   LVTOT        =      F    write LOCPOT, total local potential
   LVHAR        =      F    write LOCPOT, Hartree potential only
   LELF         =      F    write electronic localiz. function (ELF)
   LORBIT       =      0    0 simple, 1 ext, 2 COOP (PROOUT), +10 PAW based schemes


 Dipole corrections
   LMONO  =      F    monopole corrections only (constant potential shift)
   LDIPOL =      F    correct potential (dipole corrections)
   IDIPOL =      0    1-x, 2-y, 3-z, 4-all directions 
   EPSILON=  1.0000000 bulk dielectric constant

 Exchange correlation treatment:
   GGA     =    --    GGA type
   LEXCH   =     8    internal setting for exchange type
   VOSKOWN=      0    Vosko Wilk Nusair interpolation
   LHFCALC =     F    Hartree Fock is set to
   LHFONE  =     F    Hartree Fock one center treatment
   AEXX    =    0.0000 exact exchange contribution

 Linear response parameters
   LEPSILON=     F    determine dielectric tensor
   LRPA    =     F    only Hartree local field effects (RPA)
   LNABLA  =     F    use nabla operator in PAW spheres
   LVEL    =     F    velocity operator in full k-point grid
   LINTERFAST=   F  fast interpolation
   KINTER  =     0    interpolate to denser k-point grid
   CSHIFT  =0.1000    complex shift for real part using Kramers Kronig
   OMEGAMAX=  -1.0    maximum frequency
   DEG_THRESHOLD= 0.2000000E-02 threshold for treating states as degnerate
   RTIME   =   -0.100 relaxation time in fs
  (WPLASMAI=    0.000 imaginary part of plasma frequency in eV, 0.658/RTIME)
   DFIELD  = 0.0000000 0.0000000 0.0000000 field for delta impulse in time
 
 Orbital magnetization related:
   ORBITALMAG=     F  switch on orbital magnetization
   LCHIMAG   =     F  perturbation theory with respect to B field
   DQ        =  0.001000  dq finite difference perturbation B field
   LLRAUG    =     F  two centre corrections for induced B field



--------------------------------------------------------------------------------------------------------


 conjugate gradient relaxation of ions
   using selective dynamics as specified on POSCAR
 charge density and potential will be updated during run
 spin polarized calculation
 RMM-DIIS sequential band-by-band and
  variant of blocked Davidson during initial phase
 perform sub-space diagonalisation
    before iterative eigenvector-optimisation
 modified Broyden-mixing scheme, WC =      100.0
 initial mixing is a Kerker type mixing with AMIX =  0.4000 and BMIX =      1.0000
 Hartree-type preconditioning will be used
 using additional bands          199
 real space projection scheme for non local part
 use partial core corrections
 calculate Harris-corrections to forces 
   (improved forces if not selfconsistent)
 use gradient corrections 
 use of overlap-Matrix (Vanderbilt PP)
 Methfessel and Paxton  Order N= 1 SIGMA  =   0.10


--------------------------------------------------------------------------------------------------------


  energy-cutoff  :      550.00
  volume of cell :     2399.65
      direct lattice vectors                 reciprocal lattice vectors
    11.222700119  0.000000000  0.000000000     0.089105116 -0.051444863  0.000000000
     5.611350060  9.719143402  0.000000000     0.000000000  0.102889726  0.000000000
     0.000000000  0.000000000 22.000000000     0.000000000  0.000000000  0.045454545

  length of vectors
    11.222700119 11.222700119 22.000000000     0.102889726  0.102889726  0.045454545


 
 k-points in units of 2pi/SCALE and weight: mesh auto                               
   0.00000000  0.00000000  0.00000000       0.250
   0.04455256 -0.02572243  0.00000000       0.250
   0.00000000  0.05144486  0.00000000       0.250
   0.04455256  0.02572243  0.00000000       0.250
 
 k-points in reciprocal lattice and weights: mesh auto                               
   0.00000000  0.00000000  0.00000000       0.250
   0.50000000  0.00000000  0.00000000       0.250
   0.00000000  0.50000000  0.00000000       0.250
   0.50000000  0.50000000  0.00000000       0.250
 
 position of ions in fractional coordinates (direct lattice) 
   0.78225925  0.87175704  0.30464220
   0.03196270  0.87139048  0.29942724
   0.27717653  0.36248677  0.31428094
   0.86735678  0.95891499  0.40522226
   0.10882273  0.46428949  0.41268263
   0.11968522  0.95236219  0.40713384
   0.87202942  0.44754229  0.41577790
   0.37254923  0.95261175  0.41445530
   0.86954442  0.20494928  0.40693607
   0.12538286  0.20716051  0.41304440
   0.62535414  0.94949553  0.41158484
   0.86799312  0.70773560  0.41229902
   0.37616089  0.19581600  0.41537290
   0.37277378  0.70289883  0.40692387
   0.62126398  0.45394865  0.41167164
   0.11589289  0.70266968  0.41176900
   0.62305473  0.20387381  0.40968500
   0.53593348  0.37260781  0.31003437
   0.53136198  0.11681190  0.31144139
   0.55692262  0.10867087  0.05929620
   0.09307450  0.42598565  0.12293655
   0.05131508  0.12434998  0.31087712
   0.02354762  0.11168372  0.04155547
   0.12934290  0.94753793  0.14102189
   0.36742576  0.45244596  0.41183372
   0.44637331  0.55905996  0.22016864
   0.61698331  0.70245615  0.41282095
   0.94964130  0.75661422  0.20918095
   0.79462958  0.61457450  0.31570220
   0.27051356  0.61689059  0.30818739
   0.18916729  0.26577042  0.22500552
   0.69331571  0.54941703  0.22131212
   0.03166147  0.62521089  0.31360566
   0.79089767  0.86073985  0.06435510
   0.04977444  0.85151792  0.05631440
   0.04826920  0.64045736  0.06647525
   0.62777074  0.23120905  0.13428462
   0.37821722  0.94839968  0.13570486
   0.02902327  0.37683547  0.31960174
   0.98045914  0.35575072  0.04365247
   0.86400499  0.20769280  0.13403509
   0.94513991  0.52665350  0.22111509
   0.29779801  0.10833909  0.32005193
   0.53877510  0.61682189  0.31873878
   0.27311239  0.09854881  0.05169877
   0.53344737  0.62035913  0.04989301
   0.27709958  0.42151638  0.05873407
   0.62105549  0.92704305  0.14079463
   0.70256414  0.77474047  0.22043961
   0.84112258  0.67046951  0.13000222
   0.61054862  0.46109348  0.13099914
   0.30052439  0.88165828  0.31763852
   0.29403624  0.87607977  0.04755154
   0.60419350  0.71580297  0.13078218
   0.23607313  0.01744661  0.22801544
   0.52427450  0.37929122  0.04256148
   0.35517448  0.20764286  0.13362546
   0.17310396  0.69108932  0.15152403
   0.69239094  0.05686880  0.21913015
   0.78439325  0.12592361  0.31061752
   0.53956147  0.86803746  0.31600492
   0.78831858  0.11030536  0.04466843
   0.53349640  0.87793834  0.04447670
   0.19566736  0.50762622  0.21805632
   0.93892711  0.29758564  0.22543502
   0.86994429  0.97289395  0.14053585
   0.71226583  0.29537725  0.22570431
   0.45081333  0.27787635  0.22064287
   0.85205380  0.43519614  0.13248332
   0.11139628  0.18699688  0.13457379
   0.76443045  0.59137860  0.04711528
   0.29982353  0.62410945  0.05627082
   0.38008827  0.72390987  0.13437281
   0.39368214  0.43926066  0.13808739
   0.78319827  0.38200675  0.31780027
   0.76664133  0.35423705  0.04671393
   0.94422288  0.06776962  0.22339891
   0.46282378  0.79411299  0.22762031
   0.23638717  0.79795330  0.23161990
   0.45533617  0.02622849  0.22369377
   0.37645328  0.07074727  0.45785863
 
 position of ions in cartesian coordinates  (Angst):
  13.67079483  8.47273165  6.70212839
   5.24838479  8.46916908  6.58739932
   5.14470922  3.52306085  6.91418074
  15.11489266  9.31983227  8.91488961
   3.82657572  4.51249617  9.07901783
   6.68722894  9.25614473  8.95694458
  12.29784112  4.34972765  9.14711381
   9.52644632  9.25857017  9.11801651
  10.90867844  1.99193148  8.95259354
   2.56958443  2.01342274  9.08697675
  12.34611380  9.22828326  9.05486639
  13.71257869  6.87858376  9.07057844
   5.32033301  1.90316380  9.13820384
   8.12773967  6.83157448  8.95232518
   9.51952410  4.41199204  9.05677616
   5.24355669  6.82934736  9.05891792
   8.13636373  1.98147884  9.01307011
   8.10545352  3.62142872  6.82075625
   6.61878862  1.13531161  6.85171064
   6.85996581  1.05618773  1.30451636
   3.43490181  4.14021561  2.70460400
   1.27366506  1.20857532  6.83929664
   0.89096431  1.08547011  0.91422026
   6.76854352  9.20925697  3.10248152
   6.66234181  4.39738717  9.06034185
   8.14659498  5.43358394  4.84371012
  10.86594598  6.82727201  9.08206089
  14.90316679  7.35364214  4.60198092
  12.36648215  5.97313773  6.94544851
   6.49748158  5.99564807  6.78012262
   3.61429860  2.58306084  4.95012137
  10.86384554  5.33986286  4.86886670
   3.86360437  6.07651427  6.89932458
  13.70591998  8.36565399  1.41581219
   5.33676874  8.27602479  1.23891672
   4.13554117  6.22469690  1.46245553
   8.34267765  2.24715390  2.95426165
   9.56642101  9.21763246  2.98550702
   2.44027518  3.66251800  7.03123828
  12.99964072  3.45759222  0.96035424
  10.86190596  2.01859611  2.94877201
  13.56225892  5.11862090  4.86453198
   3.95002630  1.05296315  7.04114245
   9.50771487  5.99498036  7.01225325
   3.61805025  0.95780999  1.13737292
   9.46777205  6.02935935  1.09764617
   5.47508143  4.09677819  1.29214950
  12.17188259  9.01006439  3.09748181
  12.23200665  7.52981374  4.84967140
  13.20190561  6.51638927  2.86004892
   9.43936095  4.48143362  2.88198110
   8.31998834  8.56896330  6.98804752
   8.21587077  8.51474490  1.04613384
  10.79730350  6.95699172  2.87720796
   2.74727701  0.16956608  5.01633965
   8.01211124  3.68638574  0.93635256
   5.15117345  2.01811075  2.93976007
   5.82063796  6.71679623  3.33352866
   8.08960660  0.55271604  4.82086337
   9.50961167  1.22386966  6.83358535
  10.92619864  8.43658055  6.95210830
   9.46602504  1.07207359  0.98270539
  10.91368944  8.53280861  0.97848749
   5.04438452  4.93369204  4.79723900
  12.20715453  2.89227750  4.95957041
  15.22237238  9.45569577  3.09178877
   9.65101098  2.87081385  4.96549483
   6.61860428  2.70072011  4.85414311
  12.00438214  4.22973372  2.91463294
   2.29947203  1.81744949  2.96062332
  11.89740601  5.74769339  1.03653615
   6.86692611  6.06580922  1.23795794
   8.32772832  7.03578381  2.95620177
   6.88302189  4.26923733  3.03792250
  10.93317296  3.71277837  6.99160589
  10.59153387  3.44288072  1.02770640
  10.97700931  0.65866264  4.91477592
   9.65017844  7.71809802  5.00764693
   7.13049760  7.75542255  5.09563785
   5.25727851  0.25491847  4.92126292
   4.62181001  0.68760285 10.07288980
 


--------------------------------------------------------------------------------------------------------


 k-point  1 :   0.0000 0.0000 0.0000  plane waves:   70321
 k-point  2 :   0.5000 0.0000 0.0000  plane waves:   70264
 k-point  3 :   0.0000 0.5000 0.0000  plane waves:   70264
 k-point  4 :   0.5000 0.5000 0.0000  plane waves:   70264

 maximum and minimum number of plane-waves per node :     17611    17530

 maximum number of plane-waves:     70321
 maximum index in each direction: 
   IXMAX=   21   IYMAX=   21   IZMAX=   42
   IXMIN=  -21   IYMIN=  -21   IZMIN=  -42


 real space projection operators:
  total allocation   :      79081.06 KBytes
  max/ min on nodes  :      20227.02      19318.71


 parallel 3D FFT for wavefunctions:
    minimum data exchange during FFTs selected (reduces bandwidth)
 parallel 3D FFT for charge:
    minimum data exchange during FFTs selected (reduces bandwidth)


 total amount of memory used by VASP MPI-rank0   252372. kBytes
=======================================================================

   base      :      30000. kBytes
   nonlr-proj:      35783. kBytes
   fftplans  :      18297. kBytes
   grid      :      55120. kBytes
   one-center:        653. kBytes
   wavefun   :     112519. kBytes
 
     INWAV:  cpu time    0.0001: real time    0.0004
 Broyden mixing: mesh for mixing (old mesh)
   NGX = 43   NGY = 43   NGZ = 85
  (NGX  =180   NGY  =180   NGZ  =336)
  gives a total of 157165 points

 initial charge density was supplied:
 charge density of overlapping atoms calculated
 number of electron     778.0000000 magnetization     231.0000000
 keeping initial charge density in first step


--------------------------------------------------------------------------------------------------------


 Maximum index for non-local projection operator         2119
 Maximum index for augmentation-charges         1122 (set IRDMAX)


--------------------------------------------------------------------------------------------------------


 First call to EWALD:  gamma=   0.132
 Maximum number of real-space cells 4x 4x 2
 Maximum number of reciprocal cells 2x 2x 4

    FEWALD:  cpu time    0.0101: real time    0.0101


--------------------------------------- Iteration      1(   1)  ---------------------------------------


    POTLOK:  cpu time    0.4650: real time    0.5504
    SETDIJ:  cpu time    0.0355: real time    0.0357
     EDDAV:  cpu time   70.4148: real time   70.8147
       DOS:  cpu time    0.0026: real time    0.0163
    --------------------------------------------
      LOOP:  cpu time   70.9180: real time   71.4171

 eigenvalue-minimisations  :  9408
 total energy-change (2. order) : 0.7544546E+04  (-0.3276844E+05)
 number of electron     778.0000000 magnetization     231.0000000
 augmentation part      778.0000000 magnetization     231.0000000

 Free energy of the ion-electron system (eV)
  ---------------------------------------------------
  alpha Z        PSCENC =      1982.35054298
  Ewald energy   TEWEN  =    223316.94655391
  -Hartree energ DENC   =   -294773.24519130
  -exchange      EXHF   =         0.00000000
  -V(xc)+E(xc)   XCENC  =      1372.99849910
  PAW double counting   =     64136.80006862   -66038.70876209
  entropy T*S    EENTRO =        -0.00516071
  eigenvalues    EBANDS =      7328.75485450
  atomic energy  EATOM  =     70218.65458108
  Solvation  Ediel_sol  =         0.00000000
  ---------------------------------------------------
  free energy    TOTEN  =      7544.54598608 eV

  energy without entropy =     7544.55114679  energy(sigma->0) =     7544.54770632


--------------------------------------------------------------------------------------------------------




--------------------------------------- Iteration      1(   2)  ---------------------------------------


     EDDAV:  cpu time   70.3305: real time   70.6839
       DOS:  cpu time    0.0027: real time    0.0252
    --------------------------------------------
      LOOP:  cpu time   70.3331: real time   70.7091

 eigenvalue-minimisations  :  9420
 total energy-change (2. order) :-0.6808842E+04  (-0.6112003E+04)
 number of electron     778.0000000 magnetization     231.0000000
 augmentation part      778.0000000 magnetization     231.0000000

 Free energy of the ion-electron system (eV)
  ---------------------------------------------------
  alpha Z        PSCENC =      1982.35054298
  Ewald energy   TEWEN  =    223316.94655391
  -Hartree energ DENC   =   -294773.24519130
  -exchange      EXHF   =         0.00000000
  -V(xc)+E(xc)   XCENC  =      1372.99849910
  PAW double counting   =     64136.80006862   -66038.70876209
  entropy T*S    EENTRO =         0.00206766
  eigenvalues    EBANDS =       519.90537392
  atomic energy  EATOM  =     70218.65458108
  Solvation  Ediel_sol  =         0.00000000
  ---------------------------------------------------
  free energy    TOTEN  =       735.70373387 eV

  energy without entropy =      735.70166621  energy(sigma->0) =      735.70304465


--------------------------------------------------------------------------------------------------------




--------------------------------------- Iteration      1(   3)  ---------------------------------------


     EDDAV:  cpu time   70.3612: real time   70.6332
       DOS:  cpu time    0.0029: real time    0.0131
    --------------------------------------------
      LOOP:  cpu time   70.3641: real time   70.6464

 eigenvalue-minimisations  :  9408
 total energy-change (2. order) :-0.1111635E+04  (-0.9028141E+03)
 number of electron     778.0000000 magnetization     231.0000000
 augmentation part      778.0000000 magnetization     231.0000000

 Free energy of the ion-electron system (eV)
  ---------------------------------------------------
  alpha Z        PSCENC =      1982.35054298
  Ewald energy   TEWEN  =    223316.94655391
  -Hartree energ DENC   =   -294773.24519130
  -exchange      EXHF   =         0.00000000
  -V(xc)+E(xc)   XCENC  =      1372.99849910
  PAW double counting   =     64136.80006862   -66038.70876209
  entropy T*S    EENTRO =         0.00412100
  eigenvalues    EBANDS =      -591.73184585
  atomic energy  EATOM  =     70218.65458108
  Solvation  Ediel_sol  =         0.00000000
  ---------------------------------------------------
  free energy    TOTEN  =      -375.93143255 eV

  energy without entropy =     -375.93555356  energy(sigma->0) =     -375.93280622


--------------------------------------------------------------------------------------------------------




--------------------------------------- Iteration      1(   4)  ---------------------------------------


     EDDAV:  cpu time   84.7900: real time   85.1919
       DOS:  cpu time    0.0048: real time    0.1046
    --------------------------------------------
      LOOP:  cpu time   84.7948: real time   85.2965

 eigenvalue-minimisations  : 12000
 total energy-change (2. order) :-0.1102543E+03  (-0.1003502E+03)
 number of electron     778.0000000 magnetization     231.0000000
 augmentation part      778.0000000 magnetization     231.0000000

 Free energy of the ion-electron system (eV)
  ---------------------------------------------------
  alpha Z        PSCENC =      1982.35054298
  Ewald energy   TEWEN  =    223316.94655391
  -Hartree energ DENC   =   -294773.24519130
  -exchange      EXHF   =         0.00000000
  -V(xc)+E(xc)   XCENC  =      1372.99849910
  PAW double counting   =     64136.80006862   -66038.70876209
  entropy T*S    EENTRO =         0.00719079
  eigenvalues    EBANDS =      -701.98918908
  atomic energy  EATOM  =     70218.65458108
  Solvation  Ediel_sol  =         0.00000000
  ---------------------------------------------------
  free energy    TOTEN  =      -486.18570600 eV

  energy without entropy =     -486.19289679  energy(sigma->0) =     -486.18810293


--------------------------------------------------------------------------------------------------------




--------------------------------------- Iteration      1(   5)  ---------------------------------------


     EDDAV:  cpu time   80.6855: real time   80.9713
       DOS:  cpu time    0.0033: real time    0.0886
    CHARGE:  cpu time    4.5752: real time    4.5917
    MIXING:  cpu time    0.0129: real time    0.0130
    --------------------------------------------
      LOOP:  cpu time   85.2769: real time   85.6647

 eigenvalue-minimisations  : 11232
 total energy-change (2. order) :-0.4264303E+01  (-0.4226131E+01)
 number of electron     778.0000019 magnetization     216.6555025
 augmentation part      335.9160626 magnetization     183.5660095

 Broyden mixing:
  rms(total) = 0.11147E+02    rms(broyden)= 0.11147E+02
  rms(prec ) = 0.11535E+02
  weight for this iteration     100.00

 Free energy of the ion-electron system (eV)
  ---------------------------------------------------
  alpha Z        PSCENC =      1982.35054298
  Ewald energy   TEWEN  =    223316.94655391
  -Hartree energ DENC   =   -294773.24519130
  -exchange      EXHF   =         0.00000000
  -V(xc)+E(xc)   XCENC  =      1372.99849910
  PAW double counting   =     64136.80006862   -66038.70876209
  entropy T*S    EENTRO =         0.00748421
  eigenvalues    EBANDS =      -706.25378562
  atomic energy  EATOM  =     70218.65458108
  Solvation  Ediel_sol  =         0.00000000
  ---------------------------------------------------
  free energy    TOTEN  =      -490.45000912 eV

  energy without entropy =     -490.45749333  energy(sigma->0) =     -490.45250385


--------------------------------------------------------------------------------------------------------




--------------------------------------- Iteration      1(   6)  ---------------------------------------


    POTLOK:  cpu time    0.4503: real time    0.4893
    SETDIJ:  cpu time    0.0354: real time    0.0355
    EDDIAG:  cpu time   12.7279: real time   12.7821
  RMM-DIIS:  cpu time   43.7903: real time   44.0114
    ORTHCH:  cpu time    1.4351: real time    1.4417
       DOS:  cpu time    0.0025: real time    0.0025
    CHARGE:  cpu time    4.4953: real time    4.5335
    MIXING:  cpu time    0.0145: real time    0.0151
    --------------------------------------------
      LOOP:  cpu time   62.9513: real time   63.3111

 eigenvalue-minimisations  :  9675
 total energy-change (2. order) :-0.2547409E+03  (-0.1032660E+03)
 number of electron     778.0000023 magnetization     213.1356021
 augmentation part      407.6221293 magnetization     177.7798164

 Broyden mixing:
  rms(total) = 0.21371E+02    rms(broyden)= 0.21371E+02
  rms(prec ) = 0.28082E+02
  weight for this iteration     100.00

 eigenvalues of (default mixing * dielectric matrix)
  average eigenvalue GAMMA=   0.1879
  0.1879

 Free energy of the ion-electron system (eV)
  ---------------------------------------------------
  alpha Z        PSCENC =      1982.35054298
  Ewald energy   TEWEN  =    223316.94655391
  -Hartree energ DENC   =   -293181.41475825
  -exchange      EXHF   =         0.00000000
  -V(xc)+E(xc)   XCENC  =      1333.04491416
  PAW double counting   =     68377.94625473   -70054.97089232
  entropy T*S    EENTRO =        -0.00748838
  eigenvalues    EBANDS =     -2737.74061240
  atomic energy  EATOM  =     70218.65458108
  Solvation  Ediel_sol  =         0.00000000
  ---------------------------------------------------
  free energy    TOTEN  =      -745.19090450 eV

  energy without entropy =     -745.18341612  energy(sigma->0) =     -745.18840837


--------------------------------------------------------------------------------------------------------




--------------------------------------- Iteration      1(   7)  ---------------------------------------


    POTLOK:  cpu time    0.4534: real time    0.4768
    SETDIJ:  cpu time    0.0354: real time    0.0356
    EDDIAG:  cpu time   12.6882: real time   12.7401
  RMM-DIIS:  cpu time   42.7127: real time   42.8314
    ORTHCH:  cpu time    1.4582: real time    1.4733
       DOS:  cpu time    0.0026: real time    0.0026
    CHARGE:  cpu time    4.4617: real time    4.5201
    MIXING:  cpu time    0.0135: real time    0.0138
    --------------------------------------------
      LOOP:  cpu time   61.8257: real time   62.0936

 eigenvalue-minimisations  :  9427
 total energy-change (2. order) : 0.2779711E+03  (-0.1596653E+02)
 number of electron     778.0000021 magnetization     208.2161107
 augmentation part      375.3838972 magnetization     163.8600971

 Broyden mixing:
  rms(total) = 0.13527E+02    rms(broyden)= 0.13527E+02
  rms(prec ) = 0.17087E+02
  weight for this iteration     100.00

 eigenvalues of (default mixing * dielectric matrix)
  average eigenvalue GAMMA=   0.2654
  0.3552  0.1756

 Free energy of the ion-electron system (eV)
  ---------------------------------------------------
  alpha Z        PSCENC =      1982.35054298
  Ewald energy   TEWEN  =    223316.94655391
  -Hartree energ DENC   =   -293827.27935401
  -exchange      EXHF   =         0.00000000
  -V(xc)+E(xc)   XCENC  =      1351.36946008
  PAW double counting   =     69287.22407327   -71111.82832903
  entropy T*S    EENTRO =         0.00916267
  eigenvalues    EBANDS =     -1684.66644892
  atomic energy  EATOM  =     70218.65458108
  Solvation  Ediel_sol  =         0.00000000
  ---------------------------------------------------
  free energy    TOTEN  =      -467.21975798 eV

  energy without entropy =     -467.22892065  energy(sigma->0) =     -467.22281220


--------------------------------------------------------------------------------------------------------




--------------------------------------- Iteration      1(   8)  ---------------------------------------


    POTLOK:  cpu time    0.4614: real time    0.4802
    SETDIJ:  cpu time    0.0355: real time    0.0356
    EDDIAG:  cpu time   12.6437: real time   12.6789
  RMM-DIIS:  cpu time   42.6993: real time   42.9324
    ORTHCH:  cpu time    1.4333: real time    1.4477
       DOS:  cpu time    0.0025: real time    0.0025
    CHARGE:  cpu time    4.4251: real time    4.4380
    MIXING:  cpu time    0.0147: real time    0.0149
    --------------------------------------------
      LOOP:  cpu time   61.7155: real time   62.0303

 eigenvalue-minimisations  :  9430
 total energy-change (2. order) : 0.3781985E+01  (-0.1584838E+02)
 number of electron     778.0000023 magnetization     200.8770808
 augmentation part      376.2665114 magnetization     162.5874085

 Broyden mixing:
  rms(total) = 0.15842E+02    rms(broyden)= 0.15842E+02
  rms(prec ) = 0.18399E+02
  weight for this iteration     100.00

 eigenvalues of (default mixing * dielectric matrix)
  average eigenvalue GAMMA=   0.3225
  0.6106  0.2687  0.0883

 Free energy of the ion-electron system (eV)
  ---------------------------------------------------
  alpha Z        PSCENC =      1982.35054298
  Ewald energy   TEWEN  =    223316.94655391
  -Hartree energ DENC   =   -294015.39534536
  -exchange      EXHF   =         0.00000000
  -V(xc)+E(xc)   XCENC  =      1360.35994314
  PAW double counting   =     70454.69710754   -72362.29460932
  entropy T*S    EENTRO =         0.00555402
  eigenvalues    EBANDS =     -1418.76210104
  atomic energy  EATOM  =     70218.65458108
  Solvation  Ediel_sol  =         0.00000000
  ---------------------------------------------------
  free energy    TOTEN  =      -463.43777305 eV

  energy without entropy =     -463.44332707  energy(sigma->0) =     -463.43962439


--------------------------------------------------------------------------------------------------------




--------------------------------------- Iteration      1(   9)  ---------------------------------------


    POTLOK:  cpu time    0.4594: real time    0.6748
    SETDIJ:  cpu time    0.0353: real time    0.0355
    EDDIAG:  cpu time   13.0686: real time   13.1671
  RMM-DIIS:  cpu time   42.8854: real time   43.0040
    ORTHCH:  cpu time    1.4311: real time    1.4362
       DOS:  cpu time    0.0026: real time    0.0026
    CHARGE:  cpu time    4.4203: real time    4.4331
    MIXING:  cpu time    0.0150: real time    0.0152
    --------------------------------------------
      LOOP:  cpu time   62.3177: real time   62.7685

 eigenvalue-minimisations  :  9442
 total energy-change (2. order) : 0.6953155E+02  (-0.1681902E+02)
 number of electron     778.0000019 magnetization     193.6801101
 augmentation part      378.8767353 magnetization     144.8355357

 Broyden mixing:
  rms(total) = 0.13076E+02    rms(broyden)= 0.13076E+02
  rms(prec ) = 0.14811E+02
  weight for this iteration     100.00

 eigenvalues of (default mixing * dielectric matrix)
  average eigenvalue GAMMA=   0.3483
  0.8037  0.3635  0.1130  0.1130

 Free energy of the ion-electron system (eV)
  ---------------------------------------------------
  alpha Z        PSCENC =      1982.35054298
  Ewald energy   TEWEN  =    223316.94655391
  -Hartree energ DENC   =   -293880.44712553
  -exchange      EXHF   =         0.00000000
  -V(xc)+E(xc)   XCENC  =      1378.18352114
  PAW double counting   =     71770.14761052   -73735.50633187
  entropy T*S    EENTRO =        -0.00489120
  eigenvalues    EBANDS =     -1444.23068827
  atomic energy  EATOM  =     70218.65458108
  Solvation  Ediel_sol  =         0.00000000
  ---------------------------------------------------
  free energy    TOTEN  =      -393.90622725 eV

  energy without entropy =     -393.90133605  energy(sigma->0) =     -393.90459685


--------------------------------------------------------------------------------------------------------




--------------------------------------- Iteration      1(  10)  ---------------------------------------


    POTLOK:  cpu time    0.4765: real time    0.4946
    SETDIJ:  cpu time    0.0355: real time    0.0356
    EDDIAG:  cpu time   12.6841: real time   12.7207
  RMM-DIIS:  cpu time   42.9255: real time   43.0999
    ORTHCH:  cpu time    1.4292: real time    1.4642
       DOS:  cpu time    0.0027: real time    0.0027
    CHARGE:  cpu time    4.4199: real time    4.4514
    MIXING:  cpu time    0.0153: real time    0.0155
    --------------------------------------------
[...]
   -.205E+02 0.535E+02 -.270E+04   0.207E+02 -.529E+02 0.270E+04   -.182E+00 -.645E+00 0.146E+01   0.857E-02 -.209E-01 0.263E-01
   -.355E+02 -.782E+01 -.272E+04   0.346E+02 0.890E+01 0.272E+04   0.908E+00 -.108E+01 0.246E+01   0.219E-01 0.241E-01 -.503E-02
   0.422E+02 0.117E+02 -.270E+04   -.421E+02 -.124E+02 0.270E+04   -.600E-01 0.718E+00 0.210E+01   0.185E-01 -.433E-01 -.101E-01
   -.271E+02 -.163E+02 -.281E+04   0.271E+02 0.154E+02 0.280E+04   -.542E-01 0.894E+00 0.263E+01   0.195E-01 0.169E-01 0.216E-01
   0.330E+02 -.158E+00 -.282E+04   -.333E+02 0.125E+00 0.282E+04   0.373E+00 0.111E+00 0.213E+01   -.422E-01 -.441E-01 -.366E-01
   -.217E+02 0.433E+02 -.276E+04   0.215E+02 -.430E+02 0.275E+04   0.188E+00 -.306E+00 0.210E+01   0.980E-03 -.124E-01 0.238E-01
   0.508E+01 0.441E+01 -.275E+04   -.512E+01 -.360E+01 0.274E+04   0.730E-01 -.829E+00 0.310E+01   0.233E-01 0.536E-02 -.484E-02
   -.406E+02 -.111E+02 -.276E+04   0.418E+02 0.101E+02 0.276E+04   -.132E+01 0.104E+01 0.241E+01   0.861E-02 -.180E-01 0.715E-02
   -.351E+02 -.110E+02 -.273E+04   0.352E+02 0.107E+02 0.273E+04   -.120E+00 0.385E+00 0.206E+01   0.191E-01 -.235E-02 0.113E-01
   -.282E+02 -.604E+02 -.276E+04   0.273E+02 0.593E+02 0.276E+04   0.812E+00 0.108E+01 0.132E+00   0.142E-01 0.254E-01 -.102E-01
   0.695E+02 0.374E+02 -.270E+04   -.684E+02 -.367E+02 0.270E+04   -.106E+01 -.659E+00 0.229E+01   -.337E-01 0.109E-01 -.102E-01
   0.501E+02 -.840E+01 -.278E+04   -.495E+02 0.885E+01 0.278E+04   -.466E+00 -.434E+00 0.255E+01   -.151E-01 0.237E-01 0.242E-01
   -.896E+01 -.122E+02 -.270E+04   0.873E+01 0.116E+02 0.270E+04   0.228E+00 0.642E+00 0.207E+01   0.588E-02 -.134E-01 -.105E-01
   0.327E+02 -.418E+01 -.276E+04   -.322E+02 0.455E+01 0.276E+04   -.535E+00 -.402E+00 0.222E+01   -.107E-01 0.861E-02 0.182E-01
   0.884E+02 -.666E+02 -.140E+04   -.872E+02 0.669E+02 0.140E+04   -.109E+01 -.331E+00 0.161E+01   -.280E-01 0.274E-01 0.234E-01
   -.340E+00 -.389E+02 -.145E+04   -.914E+00 0.385E+02 0.144E+04   0.130E+01 0.354E+00 0.234E+01   0.473E-02 0.186E-01 0.201E-01
   0.998E+02 -.554E+01 0.273E+04   -.983E+02 0.414E+01 -.272E+04   -.154E+01 0.140E+01 -.297E+01   -.220E-02 0.981E-03 0.715E-02
   -.675E+02 -.684E+02 0.176E+04   0.666E+02 0.690E+02 -.176E+04   0.921E+00 -.452E+00 0.160E+01   0.264E-01 0.192E-03 0.130E-01
   -.234E+02 0.258E+02 -.141E+04   0.244E+02 -.255E+02 0.141E+04   -.101E+01 -.210E+00 0.205E+01   0.878E-03 -.189E-01 0.170E-01
   -.679E+02 0.905E+02 0.291E+04   0.685E+02 -.892E+02 -.291E+04   -.512E+00 -.143E+01 -.229E+01   -.135E-01 -.112E-01 -.863E-02
   0.737E+02 -.268E+02 0.142E+04   -.734E+02 0.263E+02 -.142E+04   -.241E+00 0.510E+00 -.759E+00   -.642E-02 -.383E-01 0.398E-01
   0.961E+01 -.250E+02 -.272E+04   -.988E+01 0.245E+02 0.272E+04   0.272E+00 0.402E+00 0.194E+01   -.243E-01 0.375E-01 0.991E-04
   0.537E+02 0.593E+02 -.494E+02   -.534E+02 -.589E+02 0.490E+02   -.383E+00 -.474E+00 0.384E+00   -.336E-01 0.370E-01 0.314E-01
   -.201E+02 0.188E+02 -.278E+04   0.194E+02 -.191E+02 0.278E+04   0.764E+00 0.376E+00 0.252E+01   -.103E-01 -.673E-02 0.110E-01
   -.230E+02 0.108E+02 0.277E+03   0.219E+02 -.124E+02 -.276E+03   0.100E+01 0.163E+01 -.781E+00   0.319E-01 0.391E-02 0.346E-01
   -.825E+02 -.138E+02 -.143E+04   0.833E+02 0.126E+02 0.142E+04   -.763E+00 0.123E+01 0.255E+01   0.270E-01 0.533E-02 0.501E-01
   0.368E+02 0.125E+02 -.137E+04   -.375E+02 -.119E+02 0.136E+04   0.747E+00 -.545E+00 0.181E+01   -.254E-02 0.259E-01 0.377E-01
   -.325E+02 -.750E+02 -.338E+02   0.318E+02 0.746E+02 0.340E+02   0.820E+00 0.228E+00 -.162E+00   0.716E-02 0.645E-02 0.300E-01
   -.358E+02 -.202E+02 -.113E+02   0.363E+02 0.209E+02 0.109E+02   -.461E+00 -.741E+00 0.351E+00   -.200E-01 0.533E-02 0.361E-01
   0.175E+01 -.122E+01 -.108E+04   -.167E+01 0.135E+01 0.108E+04   -.121E+00 -.786E-01 0.146E+00   0.231E-01 0.263E-02 0.385E-01
   -.684E+02 0.804E+02 0.217E+04   0.695E+02 -.806E+02 -.216E+04   -.897E+00 0.576E-01 -.306E+01   0.266E-02 0.129E-01 0.691E-02
   0.796E+02 0.322E+02 0.223E+04   -.798E+02 -.335E+02 -.223E+04   0.369E+00 0.134E+01 -.278E+01   0.570E-02 -.663E-02 0.515E-02
   0.114E+03 0.443E+01 0.212E+04   -.113E+03 -.348E+01 -.212E+04   -.113E+01 -.887E+00 -.204E+01   0.256E-01 0.486E-02 0.170E-02
   0.817E+02 0.917E+02 0.119E+04   -.809E+02 -.909E+02 -.119E+04   -.855E+00 -.833E+00 0.611E-01   -.123E-01 -.500E-02 0.670E-02
   -.928E+01 -.112E+03 0.121E+04   0.941E+01 0.111E+03 -.121E+04   -.198E+00 0.547E+00 -.683E+00   -.255E-02 -.406E-04 0.243E-01
   -.724E+02 -.277E+02 -.117E+04   0.725E+02 0.278E+02 0.117E+04   -.146E+00 -.164E+00 0.709E-01   0.199E-01 0.748E-02 0.298E-01
   -.254E+03 -.242E+02 0.237E+04   0.251E+03 0.238E+02 -.237E+04   0.276E+01 0.421E+00 -.418E+01   0.348E-02 -.310E-02 -.131E-01
   -.320E+02 0.736E+02 0.121E+04   0.312E+02 -.732E+02 -.121E+04   0.856E+00 -.516E+00 -.586E+00   -.630E-02 -.137E-01 0.684E-02
   -.106E+03 -.266E+02 0.263E+02   0.106E+03 0.271E+02 -.261E+02   0.311E+00 -.530E+00 -.391E+00   0.212E-01 -.100E-04 0.337E-01
   0.412E+01 -.946E+02 -.123E+04   -.436E+01 0.945E+02 0.123E+04   0.249E+00 0.164E+00 0.473E+00   -.679E-02 -.510E-02 0.295E-01
   0.442E+02 0.998E+01 -.119E+04   -.442E+02 -.103E+02 0.119E+04   0.105E-01 0.288E+00 -.484E+00   -.320E-01 0.243E-01 0.280E-01
   -.835E+02 -.156E+03 0.229E+04   0.815E+02 0.153E+03 -.229E+04   0.204E+01 0.309E+01 -.376E+01   0.125E-01 0.702E-02 -.855E-03
   0.133E+02 -.515E+02 0.264E+04   -.134E+02 0.518E+02 -.263E+04   0.530E-01 -.253E+00 -.302E+01   -.328E-01 -.686E-02 -.148E-01
   0.233E+03 0.983E+02 0.253E+04   -.232E+03 -.958E+02 -.253E+04   -.651E+00 -.243E+01 -.311E+01   0.174E-01 0.735E-02 -.215E-02
   -.111E+03 -.731E+02 0.128E+04   0.110E+03 0.722E+02 -.128E+04   0.956E+00 0.944E+00 0.644E-01   0.751E-02 0.263E-01 0.957E-02
   -.134E+03 0.106E+02 0.266E+02   0.134E+03 -.106E+02 -.267E+02   -.592E-01 -.211E-01 0.680E-01   0.954E-02 0.198E-01 0.240E-01
   -.210E+03 -.163E+02 0.145E+04   0.210E+03 0.170E+02 -.145E+04   -.330E+00 -.811E+00 0.886E-01   0.227E-01 0.122E-01 0.117E-01
   0.639E+01 -.625E+01 0.131E+04   -.618E+01 0.587E+01 -.131E+04   -.140E+00 0.491E+00 -.368E+00   -.295E-01 0.930E-02 -.287E-03
   0.846E+02 0.367E+02 -.140E+04   -.841E+02 -.363E+02 0.140E+04   -.606E+00 -.370E+00 0.355E+00   -.320E-01 -.326E-01 0.250E-01
   0.769E+02 -.442E+02 0.263E+04   -.763E+02 0.446E+02 -.263E+04   -.639E+00 -.445E+00 -.315E+01   -.115E-01 -.220E-01 0.105E-01
   -.717E+02 -.962E+01 0.138E+04   0.718E+02 0.995E+01 -.138E+04   -.110E+00 -.402E+00 -.437E+00   -.206E-01 0.167E-01 0.577E-02
   0.496E+02 -.103E+03 -.284E+02   -.489E+02 0.102E+03 0.287E+02   -.704E+00 0.386E+00 -.478E+00   -.183E-01 -.372E-01 0.295E-01
   0.131E+03 0.939E+02 0.327E+04   -.131E+03 -.924E+02 -.327E+04   0.299E-01 -.146E+01 -.483E+01   -.139E-01 0.178E-01 -.994E-02
   0.372E+02 -.208E+02 0.179E+04   -.375E+02 0.205E+02 -.179E+04   0.264E+00 0.331E+00 0.454E+00   0.137E-01 0.119E-02 0.103E-01
   0.239E+03 -.343E+02 0.132E+04   -.240E+03 0.349E+02 -.132E+04   0.451E+00 -.524E+00 0.698E+00   0.356E-01 0.120E-01 0.335E-01
   0.339E+02 0.118E+03 0.149E+03   -.344E+02 -.118E+03 -.149E+03   0.492E+00 -.356E+00 -.313E+00   -.377E-02 -.522E-02 0.134E-01
   0.131E+02 0.865E+02 -.158E+04   -.126E+02 -.865E+02 0.158E+04   -.445E+00 -.652E-01 0.487E+00   -.219E-02 -.192E-01 0.229E-01
   -.669E+02 0.283E+02 -.165E+04   0.662E+02 -.279E+02 0.164E+04   0.829E+00 -.393E+00 0.123E+01   -.215E-01 -.861E-02 0.385E-01
   0.665E+02 0.171E+03 0.319E+04   -.662E+02 -.171E+03 -.319E+04   -.334E+00 -.677E-01 -.362E+01   -.313E-02 -.620E-02 -.768E-02
   -.103E+03 -.886E+02 0.324E+04   0.101E+03 0.893E+02 -.324E+04   0.117E+01 -.799E+00 -.454E+01   0.916E-02 0.155E-01 -.707E-02
   0.112E+03 -.298E+02 0.105E+03   -.112E+03 0.298E+02 -.105E+03   0.445E+00 -.728E-01 -.965E+00   0.219E-01 0.201E-01 0.424E-01
   -.151E+03 -.241E+02 -.480E+02   0.150E+03 0.236E+02 0.483E+02   0.507E+00 0.487E+00 -.447E+00   0.168E-01 -.186E-01 0.340E-01
   0.356E+02 0.201E+03 0.156E+04   -.355E+02 -.201E+03 -.156E+04   -.621E-01 -.804E+00 -.112E+01   0.621E-02 -.134E-01 0.154E-01
   0.859E+02 -.527E+02 -.180E+02   -.856E+02 0.516E+02 0.183E+02   -.353E+00 0.127E+01 -.459E+00   -.226E-01 -.697E-02 0.204E-01
   0.565E+02 -.270E+02 0.447E+02   -.558E+02 0.267E+02 -.442E+02   -.720E+00 0.279E+00 -.470E+00   -.290E-02 0.115E-01 0.276E-01
   -.148E+03 -.418E+02 0.148E+04   0.148E+03 0.422E+02 -.148E+04   0.328E+00 -.401E+00 -.644E+00   0.293E-02 -.734E-02 0.106E-01
   -.817E+02 -.130E+02 0.153E+04   0.823E+02 0.127E+02 -.153E+04   -.578E+00 0.355E+00 -.683E+00   0.781E-02 -.128E-01 0.201E-01
   -.234E+03 -.103E+03 0.295E+04   0.233E+03 0.102E+03 -.294E+04   0.115E+01 0.948E+00 -.330E+01   -.790E-02 0.155E-03 -.260E-01
   0.145E+03 -.764E+02 0.285E+04   -.145E+03 0.767E+02 -.285E+04   0.412E+00 -.148E+00 -.776E+00   0.335E-02 -.258E-02 0.943E-02
   0.414E+02 -.261E+02 0.149E+04   -.410E+02 0.261E+02 -.149E+04   -.315E+00 0.521E-01 0.172E+00   -.446E-01 -.871E-02 0.345E-01
   0.124E+03 0.264E+02 0.137E+04   -.123E+03 -.266E+02 -.137E+04   -.959E+00 0.258E+00 -.843E+00   -.841E-02 0.222E-01 0.692E-02
   -.233E+02 -.341E+02 -.151E+04   0.233E+02 0.343E+02 0.152E+04   0.869E-01 -.264E+00 -.656E-01   0.367E-02 0.439E-02 0.310E-01
   -.271E+02 0.263E+02 0.291E+04   0.275E+02 -.256E+02 -.291E+04   -.358E+00 -.633E+00 -.171E+01   -.187E-01 -.861E-03 -.210E-01
   -.363E+02 0.167E+03 0.156E+02   0.366E+02 -.167E+03 -.150E+02   -.280E+00 0.968E-01 -.730E+00   0.103E-01 -.329E-01 0.316E-01
   -.190E+02 0.518E+02 -.873E+02   0.189E+02 -.510E+02 0.872E+02   0.139E+00 -.849E+00 -.670E-01   -.587E-01 0.530E-02 0.416E-01
   0.160E+03 0.391E+01 -.194E+03   -.160E+03 -.321E+01 0.194E+03   0.207E-01 -.700E+00 -.411E+00   -.179E-02 -.121E-01 0.381E-01
   -.446E+02 -.935E+02 0.490E+02   0.441E+02 0.932E+02 -.489E+02   0.433E+00 0.369E+00 -.116E+00   0.200E-02 -.170E-02 0.904E-02
   0.167E+00 0.315E+01 -.328E+03   -.297E+00 -.360E+01 0.330E+03   0.158E+00 0.452E+00 -.176E+01   0.392E-03 0.936E-03 0.105E-02
 -----------------------------------------------------------------------------------------------
   -.380E+01 -.938E+00 0.491E+01   -.869E-12 0.722E-12 -.114E-11   0.386E+01 0.893E+00 -.614E+01   -.451E-01 0.984E-02 0.121E+01
 
 
 POSITION                                       TOTAL-FORCE (eV/Angst)
 -----------------------------------------------------------------------------------
     13.66646      8.47442      6.70430        -0.012995     -0.000572     -0.007003
      5.24669      8.46447      6.59134         0.003988     -0.004060      0.030069
      5.14865      3.51884      6.90834         0.007529     -0.001550      0.033007
     15.14451      9.31060      8.92752        -0.002947     -0.018567     -0.007889
      3.82689      4.50131      9.08348         0.000485      0.007551      0.000245
      6.67751      9.20958      8.92431         0.003453     -0.007702      0.007511
     12.29409      4.36480      9.14750        -0.007787     -0.000510      0.004101
      9.50427      9.20787      9.17521        -0.006578      0.006381      0.014340
     10.91978      1.97619      8.95514        -0.016219     -0.004818      0.002058
      2.51438      2.01510      9.07762         0.004005     -0.000633      0.019146
     12.38681      9.21520      9.03918        -0.005290      0.009280      0.015813
     13.72900      6.86360      9.07201         0.001435      0.000603     -0.007778
      5.29326      1.97239      9.18888         0.010139     -0.002434     -0.011825
      8.10282      6.84799      8.95911         0.005650      0.034500     -0.015310
      9.50450      4.40478      9.05880         0.016641      0.020913     -0.010096
      5.26116      6.85092      9.01607         0.013302     -0.001638      0.006053
      8.15158      1.98797      9.01075        -0.014169     -0.008020     -0.004450
      8.10780      3.61388      6.81257        -0.007976     -0.002230      0.007533
      6.60476      1.13826      6.86205        -0.002077     -0.007822      0.023733
      6.85997      1.05619      1.30452        -0.001637     -0.008106     -0.017804
      3.43490      4.14022      2.70460         0.011141      0.002251      0.031091
      1.27030      1.21212      6.82170         0.003694     -0.009030      0.014627
      0.89096      1.08547      0.91422         0.023051      0.012348      0.003780
      6.76854      9.20926      3.10248         0.023249      0.016833      0.009069
      6.67235      4.39914      9.05657        -0.012112     -0.019439     -0.012187
      8.14659      5.43358      4.84371        -0.004843      0.034250      0.026818
     10.87152      6.80861      9.07952         0.011330     -0.000025      0.004413
     14.90317      7.35364      4.60198        -0.031904      0.020800     -0.021040
     12.36966      5.97421      6.93956        -0.016024      0.003581     -0.000572
      6.49265      5.99253      6.78451         0.015922     -0.000639      0.003098
      3.61430      2.58306      4.95012         0.004137     -0.053937      0.047355
     10.86385      5.33986      4.86887        -0.001942     -0.008902     -0.004269
      3.86914      6.08400      6.90410        -0.008556     -0.005454      0.009642
     13.70592      8.36565      1.41581        -0.011856     -0.003250     -0.003062
      5.33677      8.27602      1.23892        -0.004968     -0.007720     -0.041629
      4.13554      6.22470      1.46246        -0.003868     -0.002733     -0.003210
      8.34268      2.24715      2.95426        -0.001327     -0.010090     -0.002260
      9.56642      9.21763      2.98551         0.006565      0.003763     -0.007468
      2.44121      3.66010      7.02612         0.000001     -0.007615      0.003108
     12.99964      3.45759      0.96035        -0.000466      0.020509     -0.018561
     10.86191      2.01860      2.94877         0.001224      0.013608     -0.010787
     13.56226      5.11862      4.86453         0.010912     -0.008851     -0.034150
      3.94807      1.03212      7.06518        -0.011270      0.018871     -0.018331
      9.52173      5.98881      7.00659        -0.000363     -0.007344      0.008075
      3.61805      0.95781      1.13737         0.004051     -0.013109     -0.016937
      9.46777      6.02936      1.09765        -0.019932     -0.007037      0.024626
      5.47508      4.09678      1.29215         0.006820     -0.003476     -0.014588
     12.17188      9.01006      3.09748         0.004922      0.006797     -0.004723
     12.23201      7.52981      4.84967        -0.015847     -0.020318     -0.002537
     13.20191      6.51639      2.86005         0.009145      0.008639     -0.001744
      9.43936      4.48143      2.88198         0.038895      0.017125     -0.012774
      8.29158      8.56471      6.99166         0.020559      0.001570     -0.001032
      8.21587      8.51474      1.04613         0.019451     -0.014181      0.018995
     10.79730      6.95699      2.87721        -0.012428     -0.024193     -0.000669
      2.74728      0.16957      5.01634         0.039749     -0.000472      0.011267
      8.01211      3.68639      0.93635         0.015601      0.006092      0.008562
      5.15117      2.01811      2.93976         0.000672     -0.011059      0.007341
      5.82064      6.71680      3.33353         0.010713      0.003044      0.010337
      8.08961      0.55272      4.82086        -0.031122      0.011972      0.026772
      9.50958      1.22278      6.83305         0.001477     -0.000863     -0.006965
     10.91404      8.43984      6.96081         0.004151     -0.001378     -0.012694
      9.46603      1.07207      0.98271        -0.019625      0.014733     -0.002516
     10.91369      8.53281      0.97849        -0.005856     -0.014059      0.004514
      5.04438      4.93369      4.79724        -0.004638      0.031394     -0.085390
     12.20715      2.89228      4.95957        -0.012918      0.007413     -0.025170
     15.22237      9.45570      3.09179        -0.021543      0.002588     -0.002003
      9.65101      2.87081      4.96549         0.024895     -0.021112     -0.016489
      6.61860      2.70072      4.85414        -0.001545     -0.023151      0.007003
     12.00438      4.22973      2.91463        -0.008707     -0.014703      0.010063
      2.29947      1.81745      2.96062         0.007897     -0.006788     -0.000221
     11.89741      5.74769      1.03654        -0.011183      0.011935      0.004321
      6.86693      6.06581      1.23796         0.031516     -0.014253      0.003482
      8.32773      7.03578      2.95620         0.006802      0.011725     -0.030703
      6.88302      4.26924      3.03792        -0.008076     -0.013950      0.013258
     10.93408      3.70932      6.99384        -0.002268      0.005682     -0.001407
     10.59153      3.44288      1.02771        -0.006715      0.018073      0.001468
     10.97701      0.65866      4.91478        -0.056040     -0.010379     -0.035033
      9.65018      7.71810      5.00765         0.001880      0.007104      0.009588
      7.13050      7.75542      5.09564        -0.017436      0.015589     -0.025803
      5.25728      0.25492      4.92126        -0.012854      0.017432      0.032227
      4.68484      0.75940     10.21212         0.028858      0.003219      0.040572
 -----------------------------------------------------------------------------------
    total drift:                                0.010001     -0.035831     -0.022797


--------------------------------------------------------------------------------------------------------



  FREE ENERGIE OF THE ION-ELECTRON SYSTEM (eV)
  ---------------------------------------------------
  free  energy   TOTEN  =      -501.57405552 eV

  energy  without entropy=     -501.59946782  energy(sigma->0) =     -501.58252629
 
 d Force = 0.2343963E-02[ 0.115E-02, 0.354E-02]  d Energy = 0.2299998E-02 0.440E-04
 d Force = 0.5635617E+02[ 0.563E+02, 0.564E+02]  d Ewald  = 0.5635617E+02 0.406E-06


--------------------------------------------------------------------------------------------------------


    POTLOK:  cpu time    0.4987: real time    0.5015


--------------------------------------------------------------------------------------------------------


 Conjugate gradient step on ions:
 trial-energy change:   -0.002300  1 .order   -0.002344   -0.003536   -0.001151
  (g-gl).g = 0.221E-02      g.g   = 0.210E-02  gl.gl    = 0.469E-02
 g(Force)  = 0.210E-02   g(Stress)= 0.000E+00 ortho     =-0.164E-03
 gamma     =   0.47126
 trial     =   1.75139
 opt step  =   2.77671  (harmonic =   2.59692) maximal distance =0.01685709
 next E    =  -501.574384   (d E  =  -0.00263)


--------------------------------------------------------------------------------------------------------


  
 reached required accuracy - stopping structural energy minimisation
     LOOP+:  cpu time  877.0624: real time  883.7974
    4ORBIT:  cpu time    0.0000: real time    0.0000

 total amount of memory used by VASP MPI-rank0   252372. kBytes
=======================================================================

   base      :      30000. kBytes
   nonlr-proj:      35783. kBytes
   fftplans  :      18297. kBytes
   grid      :      55120. kBytes
   one-center:        653. kBytes
   wavefun   :     112519. kBytes
 
  
  
 General timing and accounting informations for this job:
 ========================================================
  
                  Total CPU time used (sec):    16509.545
                            User time (sec):    16035.452
                          System time (sec):      474.094
                         Elapsed time (sec):    16638.940
  
                   Maximum memory used (kb):      416600.
                   Average memory used (kb):           0.
  
                          Minor page faults:     19385707
                          Major page faults:          261
                 Voluntary context switches:        10074
