 vasp.5.4.4.18Apr17-6-g9f103f2a35 (build Nov 30 2020 22:55:02) complex          
  
 executed on             LinuxIFC date 2023.09.09  20:37:50
 running on   40 total cores
 distrk:  each k-point on   40 cores,    1 groups
 distr:  one band on NCORES_PER_BAND=   4 cores,   10 groups


--------------------------------------------------------------------------------------------------------


 INCAR:
 POTCAR:    PAW_PBE Ni 02Aug2007                  
 POTCAR:    PAW_PBE Pt 04Feb2005                  
 POTCAR:    PAW_PBE H 15Jun2001                   
 POTCAR:    PAW_PBE Ni 02Aug2007                  
   VRHFIN =Ni:                                                                  
   LEXCH  = PE                                                                  
   EATOM  =  1077.6739 eV,   79.2068 Ry                                         
                                                                                
   TITEL  = PAW_PBE Ni 02Aug2007                                                
   LULTRA =        F    use ultrasoft PP ?                                      
   IUNSCR =        1    unscreen: 0-lin 1-nonlin 2-no                           
   RPACOR =    2.000    partial core radius                                     
   POMASS =   58.690; ZVAL   =   10.000    mass and valenz                      
   RCORE  =    2.300    outmost cutoff radius                                   
   RWIGS  =    2.430; RWIGS  =    1.286    wigner-seitz radius (au A)           
   ENMAX  =  269.532; ENMIN  =  202.149 eV                                      
   RCLOC  =    1.201    cutoff for local pot                                    
   LCOR   =        T    correct aug charges                                     
   LPAW   =        T    paw PP                                                  
   EAUG   =  544.565                                                            
   DEXC   =    0.000                                                            
   RMAX   =    2.357    core radius for proj-oper                               
   RAUG   =    1.300    factor for augmentation sphere                          
   RDEP   =    2.390    radius for radial grids                                 
   RDEPT  =    1.838    core radius for aug-charge                              
                                                                                
   Atomic configuration                                                         
    9 entries                                                                   
     n  l   j            E        occ.                                          
     1  0  0.50     -8206.4253   2.0000                                         
     2  0  0.50      -976.1748   2.0000                                         
     2  1  1.50      -839.0571   6.0000                                         
     3  0  0.50      -105.9991   2.0000                                         
     3  1  1.50       -66.4603   6.0000                                         
     3  2  2.50        -4.6458   9.0000                                         
     4  0  0.50        -4.4926   1.0000                                         
     4  1  1.50        -4.0817   0.0000                                         
     4  3  2.50        -1.3606   0.0000                                         
   Description                                                                  
     l       E           TYP  RCUT    TYP  RCUT                                 
     2     -4.6457903     23  2.300                                             
     2     -6.0063729     23  2.300                                             
     0     -4.4925590     23  2.300                                             
     0      5.0102601     23  2.300                                             
     1     -2.7211652     23  2.300                                             
     1     16.5183231     23  2.300                                             
  local pseudopotential read in
  partial core-charges read in
  partial kinetic energy density read in
  atomic valenz-charges read in
  non local Contribution for L=           2  read in
    real space projection operators read in
  non local Contribution for L=           2  read in
    real space projection operators read in
  non local Contribution for L=           0  read in
    real space projection operators read in
  non local Contribution for L=           0  read in
    real space projection operators read in
  non local Contribution for L=           1  read in
    real space projection operators read in
  non local Contribution for L=           1  read in
    real space projection operators read in
    PAW grid and wavefunctions read in
 
   number of l-projection  operators is LMAX  =           6
   number of lm-projection operators is LMMAX =          18
 
 POTCAR:    PAW_PBE Pt 04Feb2005                  
   VRHFIN =Pt: s1d9                                                             
   LEXCH  = PE                                                                  
   EATOM  =   729.1176 eV,   53.5886 Ry                                         
                                                                                
   TITEL  = PAW_PBE Pt 04Feb2005                                                
   LULTRA =        F    use ultrasoft PP ?                                      
   IUNSCR =        1    unscreen: 0-lin 1-nonlin 2-no                           
   RPACOR =    2.330    partial core radius                                     
   POMASS =  195.080; ZVAL   =   10.000    mass and valenz                      
   RCORE  =    2.600    outmost cutoff radius                                   
   RWIGS  =    2.750; RWIGS  =    1.455    wigner-seitz radius (au A)           
   ENMAX  =  230.283; ENMIN  =  172.712 eV                                      
   ICORE  =        3    local potential                                         
   LCOR   =        T    correct aug charges                                     
   LPAW   =        T    paw PP                                                  
   EAUG   =  358.966                                                            
   DEXC   =    0.000                                                            
   RMAX   =    2.658    core radius for proj-oper                               
   RAUG   =    1.300    factor for augmentation sphere                          
   RDEP   =    2.761    radius for radial grids                                 
   RDEPT  =    2.203    core radius for aug-charge                              
                                                                                
   Atomic configuration                                                         
   16 entries                                                                   
     n  l   j            E        occ.                                          
     1  0  0.50    -78401.1885   2.0000                                         
     2  0  0.50    -13770.7750   2.0000                                         
     2  1  1.50    -11931.0468   6.0000                                         
     3  0  0.50     -3234.7234   2.0000                                         
     3  1  1.50     -2699.2216   6.0000                                         
     3  2  2.50     -2119.5714  10.0000                                         
     4  0  0.50      -695.1528   2.0000                                         
     4  1  1.50      -519.6034   6.0000                                         
     4  2  2.50      -306.6786  10.0000                                         
     4  3  3.50       -70.1041  14.0000                                         
     5  0  0.50      -101.7747   2.0000                                         
     5  1  1.50       -55.9873   6.0000                                         
     5  2  2.50        -6.1423   9.0000                                         
     6  0  0.50        -5.6573   1.0000                                         
     6  1  1.50        -6.8029   0.0000                                         
     5  3  2.50        -1.3606   0.0000                                         
   Description                                                                  
     l       E           TYP  RCUT    TYP  RCUT                                 
     2     -6.1423404     23  2.500                                             
     2     -7.5029230     23  2.500                                             
     0     -5.6573207     23  2.500                                             
     0      0.7416693     23  2.500                                             
     1     -2.7211652     23  2.600                                             
     1     20.4087390     23  2.600                                             
     3     -1.3605826     23  2.500                                             
  local pseudopotential read in
  partial core-charges read in
  partial kinetic energy density read in
  atomic valenz-charges read in
  non local Contribution for L=           2  read in
    real space projection operators read in
  non local Contribution for L=           2  read in
    real space projection operators read in
  non local Contribution for L=           0  read in
    real space projection operators read in
  non local Contribution for L=           0  read in
    real space projection operators read in
  non local Contribution for L=           1  read in
    real space projection operators read in
  non local Contribution for L=           1  read in
    real space projection operators read in
    PAW grid and wavefunctions read in
 
   number of l-projection  operators is LMAX  =           6
   number of lm-projection operators is LMMAX =          18
 
 POTCAR:    PAW_PBE H 15Jun2001                   
   VRHFIN =H: ultrasoft test                                                    
   LEXCH  = PE                                                                  
   EATOM  =    12.4884 eV,    0.9179 Ry                                         
                                                                                
   TITEL  = PAW_PBE H 15Jun2001                                                 
   LULTRA =        F    use ultrasoft PP ?                                      
   IUNSCR =        0    unscreen: 0-lin 1-nonlin 2-no                           
   RPACOR =    0.000    partial core radius                                     
   POMASS =    1.000; ZVAL   =    1.000    mass and valenz                      
   RCORE  =    1.100    outmost cutoff radius                                   
   RWIGS  =    0.700; RWIGS  =    0.370    wigner-seitz radius (au A)           
   ENMAX  =  250.000; ENMIN  =  200.000 eV                                      
   RCLOC  =    0.701    cutoff for local pot                                    
   LCOR   =        T    correct aug charges                                     
   LPAW   =        T    paw PP                                                  
   EAUG   =  400.000                                                            
   RMAX   =    1.123    core radius for proj-oper                               
   RAUG   =    1.200    factor for augmentation sphere                          
   RDEP   =    1.112    radius for radial grids                                 
   RDEPT  =    0.926    core radius for aug-charge                              
                                                                                
   Atomic configuration                                                         
    2 entries                                                                   
     n  l   j            E        occ.                                          
     1  0  0.50        -6.4927   1.0000                                         
     2  1  0.50        -3.4015   0.0000                                         
   Description                                                                  
     l       E           TYP  RCUT    TYP  RCUT                                 
     0     -6.4927494     23  1.100                                             
     0      6.8029130     23  1.100                                             
     1     -4.0817478     23  1.100                                             
  local pseudopotential read in
  atomic valenz-charges read in
  non local Contribution for L=           0  read in
    real space projection operators read in
  non local Contribution for L=           0  read in
    real space projection operators read in
  non local Contribution for L=           1  read in
    real space projection operators read in
    PAW grid and wavefunctions read in
 
   number of l-projection  operators is LMAX  =           3
   number of lm-projection operators is LMMAX =           5
 
 Optimization of the real space projectors (new method)

 maximal supplied QI-value         = 16.25
 optimisation between [QCUT,QGAM] = [ 11.86, 23.89] = [ 39.41,159.82] Ry 
 Optimized for a Real-space Cutoff    1.33 Angstroem

   l    n(q)    QCUT    max X(q) W(low)/X(q) W(high)/X(q)  e(spline) 
   2      9    11.864    60.317    0.21E-03    0.51E-03    0.25E-06
   2      9    11.864    55.921    0.21E-03    0.51E-03    0.26E-06
   0      9    11.864    51.690    0.22E-03    0.30E-04    0.17E-06
   0      9    11.864    30.015    0.20E-03    0.28E-04    0.15E-06
   1      9    11.864    18.849    0.76E-04    0.33E-03    0.17E-06
   1      9    11.864    14.624    0.60E-04    0.28E-03    0.15E-06
 Optimization of the real space projectors (new method)

 maximal supplied QI-value         = 14.36
 optimisation between [QCUT,QGAM] = [ 11.92, 23.98] = [ 39.79,161.09] Ry 
 Optimized for a Real-space Cutoff    1.49 Angstroem

   l    n(q)    QCUT    max X(q) W(low)/X(q) W(high)/X(q)  e(spline) 
   2     10    11.920    66.195    0.79E-04    0.18E-03    0.24E-06
   2     10    11.920    64.643    0.81E-04    0.19E-03    0.24E-06
   0     11    11.920    95.520    0.28E-04    0.54E-04    0.18E-06
   0     11    11.920    63.403    0.27E-04    0.52E-04    0.17E-06
   1     10    11.920    19.961    0.18E-04    0.11E-03    0.23E-06
   1     10    11.920    13.289    0.25E-04    0.87E-04    0.19E-06
 Optimization of the real space projectors (new method)

 maximal supplied QI-value         = 34.20
 optimisation between [QCUT,QGAM] = [ 11.97, 23.94] = [ 40.13,160.53] Ry 
 Optimized for a Real-space Cutoff    1.18 Angstroem

   l    n(q)    QCUT    max X(q) W(low)/X(q) W(high)/X(q)  e(spline) 
   0      8    11.971    19.460    0.15E-03    0.31E-03    0.25E-06
   0      8    11.971    12.209    0.13E-03    0.29E-03    0.25E-06
   1      8    11.971     4.655    0.22E-03    0.24E-03    0.21E-06
  PAW_PBE Ni 02Aug2007                  :
 energy of atom  1       EATOM=-1077.6739
 kinetic energy error for atom=    0.0027 (will be added to EATOM!!)
  PAW_PBE Pt 04Feb2005                  :
 energy of atom  2       EATOM= -729.1176
 kinetic energy error for atom=    0.0021 (will be added to EATOM!!)
  PAW_PBE H 15Jun2001                   :
 energy of atom  3       EATOM=  -12.4884
 kinetic energy error for atom=    0.0008 (will be added to EATOM!!)
 
 
 POSCAR: PtM\(2)                                 
  positions in direct lattice
  velocities in cartesian coordinates
  No initial velocities read in
 exchange correlation table for  LEXCH =        8
   RHO(1)=    0.500       N(1)  =     2000
   RHO(2)=  100.500       N(2)  =     4000
 


--------------------------------------------------------------------------------------------------------


 ion  position               nearest neighbor table
   1  0.785  0.869  0.311-  55 2.43  20 2.43  39 2.43  73 2.62  65 2.63  72 2.64   3 2.64  29 2.64
                            57 2.64   2 2.64  56 2.64  40 2.64
   2  0.036  0.869  0.311-  49 2.43  52 2.43  39 2.43  77 2.61  67 2.63  65 2.63  23 2.64   3 2.64
                            33 2.64   1 2.64  56 2.64  41 2.65
   3  0.036  0.619  0.311-  39 2.43  12 2.43  60 2.43  77 2.62  66 2.62  73 2.64  15 2.64   9 2.64
                             2 2.64   1 2.64  40 2.65  41 2.65
   4  0.787  0.867  0.051-  21 2.44  62 2.44  19 2.45  42 2.64   5 2.64   6 2.64  59 2.64  58 2.65
                            30 2.66
   5  0.037  0.868  0.051-  54 2.44  35 2.44  62 2.45  24 2.64  43 2.64   4 2.64   6 2.64  58 2.65
                            34 2.65
   6  0.037  0.617  0.051-  32 2.44  54 2.44  21 2.45  18 2.63  43 2.63  10 2.63  42 2.64   4 2.64
                             5 2.64
   7  0.620  0.202  0.138-  28 2.44  30 2.44  58 2.45  55 2.45  63 2.46  64 2.46  19 2.64  62 2.64
                            37 2.64  45 2.64  22 2.64  11 2.64
   8  0.370  0.952  0.138-  16 2.44  24 2.44  59 2.45  53 2.45  26 2.46  50 2.46  38 2.64  37 2.64
                            35 2.64  25 2.64  19 2.64  44 2.64
   9  0.035  0.369  0.311-  12 2.42  61 2.43  46 2.43  71 2.62  66 2.63  68 2.63  33 2.64  13 2.64
                             3 2.64  40 2.64  15 2.65  47 2.65
  10  0.037  0.368  0.051-  38 2.44  32 2.44  31 2.45  18 2.63  16 2.63   6 2.63  34 2.63  42 2.64
                            48 2.64
  11  0.870  0.202  0.138-  48 2.44  58 2.44  34 2.45  49 2.45  61 2.45  63 2.47  35 2.64  31 2.64
                            22 2.64  38 2.64  62 2.64   7 2.64
  12  0.952  0.535  0.225-   9 2.42   3 2.43  40 2.43  31 2.45  21 2.45  32 2.45  61 2.64  20 2.64
                            39 2.64  46 2.64  51 2.65  60 2.65
  13  0.285  0.119  0.311-  46 2.42  26 2.43  53 2.43  69 2.62  74 2.62  71 2.63   9 2.64  29 2.64
                            33 2.64  57 2.64  23 2.65  15 2.65
  14  0.535  0.619  0.312-  36 2.43  50 2.44  51 2.45  27 2.62  80 2.62  41 2.62  47 2.63  23 2.64
                            40 2.65  57 2.65  76 2.67  75 2.67
  15  0.286  0.370  0.312-  60 2.43  64 2.43  46 2.44  74 2.62  66 2.63  27 2.63  41 2.63   3 2.64
                            29 2.64  79 2.65  13 2.65   9 2.65
  16  0.287  0.119  0.051-   8 2.44  37 2.44  38 2.45  30 2.63  10 2.63  34 2.63  18 2.64  59 2.64
                            24 2.64
  17  0.536  0.618  0.051-  22 2.44  25 2.44  44 2.45  28 2.64  43 2.64  24 2.64  48 2.64  59 2.65
                            42 2.65
  18  0.286  0.368  0.051-  37 2.44  45 2.44  32 2.45   6 2.63  43 2.63  10 2.63  16 2.64  30 2.64
                            28 2.64
  19  0.620  0.952  0.137-  59 2.44  30 2.44   4 2.45  55 2.46  20 2.46  53 2.46   7 2.64  62 2.64
                             8 2.64  21 2.64  25 2.64  37 2.64
  20  0.702  0.785  0.225-  40 2.43   1 2.43  57 2.43  19 2.46  25 2.46  21 2.46  12 2.64  53 2.64
                            55 2.64  51 2.64  39 2.64  50 2.64
  21  0.870  0.701  0.138-   4 2.44  42 2.44   6 2.45  12 2.45  39 2.45  20 2.46  31 2.64  32 2.64
                            54 2.64  25 2.64  19 2.64  62 2.64
  22  0.620  0.452  0.138-  17 2.44  28 2.44  48 2.45  63 2.45  51 2.45  36 2.47  25 2.64  11 2.64
                            31 2.64   7 2.64  45 2.64  44 2.64
  23  0.285  0.869  0.311-  52 2.43  50 2.43  26 2.44  69 2.62  67 2.62  41 2.64  14 2.64   2 2.64
                            57 2.64  33 2.64  13 2.65  75 2.65
  24  0.287  0.868  0.051-  44 2.44   8 2.44  35 2.45   5 2.64  34 2.64  17 2.64  59 2.64  16 2.64
                            43 2.65
  25  0.619  0.702  0.137-  59 2.44  17 2.44  42 2.45  20 2.46  51 2.46  50 2.47  22 2.64  31 2.64
                             8 2.64  44 2.64  21 2.64  19 2.64
  26  0.202  0.036  0.225-  13 2.43  33 2.43  23 2.44  38 2.45  35 2.45   8 2.46  53 2.64  49 2.64
                            46 2.64  61 2.64  50 2.64  52 2.64
  27  0.535  0.371  0.312-  36 2.43  64 2.44  63 2.45  78 2.61  14 2.62  41 2.62  47 2.63  15 2.63
                            29 2.65  56 2.65  76 2.67  79 2.67
  28  0.536  0.368  0.051-   7 2.44  22 2.44  45 2.45  43 2.64  30 2.64  17 2.64  18 2.64  58 2.64
                            48 2.65
  29  0.535  0.119  0.311-  64 2.42  53 2.43  55 2.43  78 2.62  72 2.63  74 2.63  56 2.64  13 2.64
                            15 2.64   1 2.64  57 2.64  27 2.65
  30  0.536  0.119  0.051-  19 2.44   7 2.44  37 2.44  16 2.63  18 2.64  28 2.64  59 2.64  58 2.65
                             4 2.66
  31  0.870  0.452  0.138-  42 2.44  48 2.44  10 2.45  61 2.45  12 2.45  51 2.46  21 2.64  32 2.64
                            11 2.64  38 2.64  25 2.64  22 2.64
  32  0.119  0.452  0.138-   6 2.44  10 2.44  46 2.45  18 2.45  12 2.45  60 2.46  21 2.64  38 2.64
                            31 2.64  37 2.64  54 2.64  45 2.64
  33  0.035  0.119  0.311-  61 2.43  49 2.43  26 2.43  67 2.62  71 2.62  70 2.63   9 2.64  13 2.64
                            56 2.64   2 2.64  23 2.64  47 2.65
  34  0.037  0.118  0.051-  35 2.44  38 2.44  11 2.45  16 2.63  10 2.63  24 2.64  48 2.64  58 2.64
                             5 2.65
  35  0.119  0.952  0.138-  34 2.44   5 2.44  24 2.45  26 2.45  49 2.45  52 2.46  11 2.64  44 2.64
                            38 2.64  62 2.64   8 2.64  54 2.64
  36  0.453  0.535  0.226-  27 2.43  14 2.43  41 2.44  45 2.46  44 2.46  22 2.47  51 2.63  63 2.63
                            60 2.63  64 2.63  50 2.63  52 2.64
  37  0.369  0.202  0.138-  18 2.44  16 2.44  30 2.44  53 2.45  46 2.45  64 2.46  45 2.64  38 2.64
                            32 2.64   7 2.64   8 2.64  19 2.64
  38  0.120  0.202  0.138-  10 2.44  34 2.44  26 2.45  16 2.45  46 2.45  61 2.45  32 2.64  37 2.64
                             8 2.64  11 2.64  31 2.64  35 2.64
  39  0.953  0.785  0.225-   3 2.43   2 2.43   1 2.43  54 2.45  21 2.45  62 2.45  55 2.64  12 2.64
                            49 2.64  20 2.64  60 2.64  52 2.64
  40  0.785  0.619  0.311-  51 2.43  20 2.43  12 2.43  80 2.62  68 2.62  73 2.63  47 2.64  57 2.64
                             9 2.64   1 2.64  14 2.65   3 2.65
  41  0.286  0.619  0.312-  36 2.44  52 2.44  60 2.44  14 2.62  27 2.62  77 2.62  15 2.63  23 2.64
                             2 2.65   3 2.65  79 2.66  75 2.67
  42  0.787  0.618  0.051-  31 2.44  21 2.44  25 2.45  48 2.63  10 2.64   4 2.64   6 2.64  59 2.65
                            17 2.65
  43  0.287  0.617  0.051-  45 2.44  44 2.44  54 2.45   6 2.63  18 2.63  28 2.64   5 2.64  17 2.64
                            24 2.65
  44  0.369  0.702  0.138-  24 2.44  43 2.44  17 2.45  50 2.45  52 2.46  36 2.46  54 2.64  35 2.64
                            45 2.64  25 2.64   8 2.64  22 2.64
  45  0.370  0.452  0.138-  43 2.44  18 2.44  28 2.45  64 2.45  60 2.46  36 2.46  37 2.64  44 2.64
                             7 2.64  32 2.64  54 2.64  22 2.64
  46  0.203  0.286  0.225-  13 2.42   9 2.43  15 2.44  32 2.45  38 2.45  37 2.45  12 2.64  60 2.64
                            26 2.64  64 2.64  53 2.64  61 2.64
  47  0.784  0.370  0.311-  51 2.43  63 2.43  61 2.45  70 2.62  68 2.62  27 2.63  14 2.63  40 2.64
                            56 2.64  33 2.65   9 2.65  76 2.66
  48  0.787  0.368  0.051-  11 2.44  31 2.44  22 2.45  42 2.63  10 2.64  34 2.64  58 2.64  17 2.64
                            28 2.65
  49  0.952  0.036  0.225-   2 2.43  33 2.43  56 2.43  11 2.45  35 2.45  62 2.46  61 2.64  26 2.64
                            55 2.64  39 2.64  52 2.65  63 2.65
  50  0.452  0.785  0.225-  57 2.43  23 2.43  14 2.44  44 2.45   8 2.46  25 2.47  52 2.63  51 2.63
                            36 2.63  20 2.64  26 2.64  53 2.65
  51  0.701  0.536  0.225-  40 2.43  47 2.43  14 2.45  22 2.45  25 2.46  31 2.46  36 2.63  50 2.63
                            63 2.63  20 2.64  61 2.64  12 2.65
  52  0.203  0.785  0.225-   2 2.43  23 2.43  41 2.44  44 2.46  54 2.46  35 2.46  50 2.63  60 2.63
                            36 2.64  26 2.64  39 2.64  49 2.65
  53  0.453  0.035  0.225-  57 2.42  29 2.43  13 2.43  37 2.45   8 2.45  19 2.46  55 2.64  20 2.64
                            26 2.64  46 2.64  50 2.65  64 2.65
  54  0.119  0.702  0.138-   5 2.44   6 2.44  43 2.45  39 2.45  60 2.46  52 2.46  44 2.64  21 2.64
                            32 2.64  62 2.64  45 2.64  35 2.64
  55  0.702  0.035  0.225-   1 2.43  56 2.43  29 2.43   7 2.45  19 2.46  62 2.46  53 2.64  39 2.64
                            49 2.64  20 2.64  64 2.64  63 2.64
  56  0.785  0.119  0.311-  63 2.42  55 2.43  49 2.43  78 2.62  65 2.63  70 2.63  47 2.64  29 2.64
                            33 2.64   2 2.64   1 2.64  27 2.65
  57  0.535  0.869  0.311-  53 2.42  50 2.43  20 2.43  80 2.61  69 2.63  72 2.63  23 2.64  40 2.64
                            13 2.64   1 2.64  29 2.64  14 2.65
  58  0.787  0.118  0.051-  62 2.44  11 2.44   7 2.45  48 2.64  28 2.64  34 2.64   5 2.65   4 2.65
                            30 2.65
  59  0.537  0.868  0.051-  25 2.44  19 2.44   8 2.45  24 2.64  30 2.64  16 2.64   4 2.64  17 2.65
                            42 2.65
  60  0.203  0.535  0.225-   3 2.43  15 2.43  41 2.44  54 2.46  45 2.46  32 2.46  36 2.63  64 2.63
                            52 2.63  46 2.64  39 2.64  12 2.65
  61  0.952  0.286  0.225-  33 2.43   9 2.43  47 2.45  31 2.45  11 2.45  38 2.45  12 2.64  49 2.64
                            26 2.64  51 2.64  63 2.64  46 2.64
  62  0.869  0.952  0.138-  58 2.44   4 2.44   5 2.45  39 2.45  49 2.46  55 2.46   7 2.64  19 2.64
                            35 2.64  54 2.64  11 2.64  21 2.64
  63  0.702  0.286  0.225-  56 2.42  47 2.43  27 2.45  22 2.45   7 2.46  11 2.47  64 2.63  36 2.63
                            51 2.63  61 2.64  55 2.64  49 2.65
  64  0.453  0.286  0.225-  29 2.42  15 2.43  27 2.44  45 2.45  37 2.46   7 2.46  63 2.63  36 2.63
                            60 2.63  46 2.64  55 2.64  53 2.65
  65  0.868  0.953  0.408-  78 2.62  77 2.62  56 2.63   1 2.63   2 2.63  70 2.64  67 2.64  73 2.64
                            72 2.64
  66  0.117  0.453  0.408-  79 2.62   3 2.62   9 2.63  15 2.63  68 2.63  73 2.64  71 2.64  77 2.64
                            74 2.65
  67  0.117  0.954  0.408-  75 2.62  33 2.62  23 2.62   2 2.63  70 2.63  65 2.64  71 2.64  77 2.64
                            69 2.65
  68  0.868  0.453  0.408-  76 2.62  40 2.62  47 2.62   9 2.63  66 2.63  73 2.64  71 2.64  80 2.64
                            70 2.65
  69  0.368  0.954  0.408-  75 2.62  23 2.62  13 2.62  57 2.63  74 2.63  72 2.64  71 2.64  80 2.64
                            67 2.65
  70  0.868  0.203  0.408-  47 2.62  76 2.62  56 2.63  33 2.63  67 2.63  65 2.64  71 2.64  78 2.64
                            68 2.65
  71  0.118  0.203  0.408-   9 2.62  33 2.62  13 2.63  74 2.64  70 2.64  69 2.64  68 2.64  66 2.64
                            67 2.64
  72  0.618  0.953  0.408-  80 2.62  78 2.62  29 2.63  57 2.63  69 2.64   1 2.64  74 2.64  73 2.64
                            65 2.64
  73  0.868  0.703  0.408-  80 2.62  77 2.62   1 2.62  40 2.63   3 2.64  68 2.64  66 2.64  72 2.64
                            65 2.64
  74  0.368  0.203  0.408-  15 2.62  79 2.62  13 2.62  69 2.63  29 2.63  72 2.64  71 2.64  78 2.64
                            66 2.65
  75  0.366  0.707  0.411-  81 1.84  82 1.84  67 2.62  69 2.62  23 2.65  77 2.66  80 2.66  41 2.67
                            14 2.67  79 2.69  76 2.70
  76  0.621  0.451  0.411-  82 1.83  81 1.85  70 2.62  68 2.62  47 2.66  78 2.66  80 2.66  14 2.67
                            27 2.67  79 2.70  75 2.70
  77  0.116  0.704  0.408-   2 2.61   3 2.62  41 2.62  65 2.62  73 2.62  67 2.64  66 2.64  75 2.66
                            79 2.66
  78  0.619  0.201  0.408-  27 2.61  29 2.62  65 2.62  56 2.62  72 2.62  70 2.64  74 2.64  76 2.66
                            79 2.66
  79  0.366  0.452  0.411-  81 1.87  74 2.62  66 2.62  15 2.65  78 2.66  77 2.66  41 2.66  27 2.67
                            75 2.69  76 2.70
  80  0.619  0.704  0.408-  82 1.89  57 2.61  14 2.62  40 2.62  73 2.62  72 2.62  68 2.64  69 2.64
                            75 2.66  76 2.66
  81  0.452  0.539  0.457-  75 1.84  76 1.85  79 1.87
  82  0.534  0.619  0.457-  76 1.83  75 1.84  80 1.89
 
  LATTYP: Found a hexagonal cell.
 ALAT       =    10.5600004196
 C/A-ratio  =     2.0833332505
  
  Lattice vectors:
  
 A1 = (   5.2800002098,  -9.1452286274,   0.0000000000)
 A2 = ( -10.5600004196,   0.0000000000,   0.0000000000)
 A3 = (   0.0000000000,   0.0000000000, -22.0000000000)


Analysis of symmetry for initial positions (statically):
=====================================================================
 Subroutine PRICEL returns:
 Original cell was already a primitive cell.
 

 Routine SETGRP: Setting up the symmetry group for a 
 hexagonal supercell.


 Subroutine GETGRP returns: Found  1 space group operations
 (whereof  1 operations were pure point group operations)
 out of a pool of 24 trial point group operations.


The static configuration has the point symmetry C_1 .


Analysis of symmetry for dynamics (positions and initial velocities):
=====================================================================
 Subroutine PRICEL returns:
 Original cell was already a primitive cell.
 

 Routine SETGRP: Setting up the symmetry group for a 
 hexagonal supercell.


 Subroutine GETGRP returns: Found  1 space group operations
 (whereof  1 operations were pure point group operations)
 out of a pool of 24 trial point group operations.


The dynamic configuration has the point symmetry C_1 .


Analysis of constrained symmetry for selective dynamics:
=====================================================================
 Subroutine PRICEL returns:
 Original cell was already a primitive cell.
 

 Routine SETGRP: Setting up the symmetry group for a 
 hexagonal supercell.


 Subroutine GETGRP returns: Found  1 space group operations
 (whereof  1 operations were pure point group operations)
 out of a pool of 24 trial point group operations.


The constrained configuration has the point symmetry C_1 .


Analysis of structural, dynamic, and magnetic symmetry:
=====================================================================
 Subroutine PRICEL returns:
 Original cell was already a primitive cell.
 

 Routine SETGRP: Setting up the symmetry group for a 
 hexagonal supercell.


 Subroutine GETGRP returns: Found  1 space group operations
 (whereof  1 operations were pure point group operations)
 out of a pool of 24 trial point group operations.


The magnetic configuration has the point symmetry C_1 .


 Subroutine INISYM returns: Found  1 space group operations
 (whereof  1 operations are pure point group operations),
 and found     1 'primitive' translations

 
 
 KPOINTS: mesh auto                               

Automatic generation of k-mesh.
Space group operators:
 irot       det(A)        alpha          n_x          n_y          n_z        tau_x        tau_y        tau_z
    1     1.000000     0.000001     1.000000     0.000000     0.000000     0.000000     0.000000     0.000000
 
 Subroutine IBZKPT returns following result:
 ===========================================
 
 Found      4 irreducible k-points:
 
 Following reciprocal coordinates:
            Coordinates               Weight
  0.000000  0.000000  0.000000      1.000000
  0.500000  0.000000  0.000000      1.000000
  0.000000  0.500000  0.000000      1.000000
  0.500000  0.500000  0.000000      1.000000
 
 Following cartesian coordinates:
            Coordinates               Weight
  0.000000  0.000000  0.000000      1.000000
  0.047348 -0.027337  0.000000      1.000000
  0.000000  0.054673  0.000000      1.000000
  0.047348  0.027337  0.000000      1.000000
 


--------------------------------------------------------------------------------------------------------




 Dimension of arrays:
   k-points           NKPTS =      4   k-points in BZ     NKDIM =      4   number of bands    NBANDS=    530
   number of dos      NEDOS =    301   number of ions     NIONS =     82
   non local maximal  LDIM  =      6   non local SUM 2l+1 LMDIM =     18
   total plane-waves  NPLWV = ******
   max r-space proj   IRMAX =   7802   max aug-charges    IRDMAX=  33988
   dimension x,y,z NGX =    84 NGY =   84 NGZ =  168
   dimension x,y,z NGXF=   168 NGYF=  168 NGZF=  336
   support grid    NGXF=   168 NGYF=  168 NGZF=  336
   ions per type =              64  16   2
   NGX,Y,Z   is equivalent  to a cutoff of  13.22, 13.22, 12.70 a.u.
   NGXF,Y,Z  is equivalent  to a cutoff of  26.45, 26.45, 25.39 a.u.

 SYSTEM =  Pt111                                   
 POSCAR =  PtM\(2)                                 

 Startparameter for this run:
   NWRITE =      2    write-flag & timer
   PREC   = accura    normal or accurate (medium, high low for compatibility)
   ISTART =      0    job   : 0-new  1-cont  2-samecut
   ICHARG =      2    charge: 1-file 2-atom 10-const
   ISPIN  =      2    spin polarized calculation?
   LNONCOLLINEAR =      F non collinear calculations
   LSORBIT =      F    spin-orbit coupling
   INIWAV =      1    electr: 0-lowe 1-rand  2-diag
   LASPH  =      F    aspherical Exc in radial PAW
   METAGGA=      F    non-selfconsistent MetaGGA calc.

 Electronic Relaxation 1
   ENCUT  =  550.0 eV  40.42 Ry    6.36 a.u.  20.19 20.19 42.07*2*pi/ulx,y,z
   ENINI  =  550.0     initial cutoff
   ENAUG  =  544.6 eV  augmentation charge cutoff
   NELM   =    200;   NELMIN=  2; NELMDL= -5     # of ELM steps 
   EDIFF  = 0.1E-04   stopping-criterion for ELM
   LREAL  =      T    real-space projection
   NLSPLINE    = F    spline interpolate recip. space projectors
   LCOMPAT=      F    compatible to vasp.4.4
   GGA_COMPAT  = T    GGA compatible to vasp.4.4-vasp.4.6
   LMAXPAW     = -100 max onsite density
   LMAXMIX     =    2 max onsite mixed and CHGCAR
   VOSKOWN=      0    Vosko Wilk Nusair interpolation
   ROPT   =   -0.00025  -0.00025  -0.00025
 Ionic relaxation
   EDIFFG = -.5E-01   stopping-criterion for IOM
   NSW    =    300    number of steps for IOM
   NBLOCK =      1;   KBLOCK =    300    inner block; outer block 
   IBRION =      2    ionic relax: 0-MD 1-quasi-New 2-CG
   NFREE  =      1    steps in history (QN), initial steepest desc. (CG)
   ISIF   =      2    stress and relaxation
   IWAVPR =     11    prediction:  0-non 1-charg 2-wave 3-comb
   ISYM   =      2    0-nonsym 1-usesym 2-fastsym
   LCORR  =      T    Harris-Foulkes like correction to forces

   POTIM  = 0.5000    time-step for ionic-motion
   TEIN   =    0.0    initial temperature
   TEBEG  =    0.0;   TEEND  =   0.0 temperature during run
   SMASS  =  -3.00    Nose mass-parameter (am)
   estimated Nose-frequenzy (Omega)   =  0.10E-29 period in steps =****** mass=  -0.255E-26a.u.
   SCALEE = 1.0000    scale energy and forces
   NPACO  =    256;   APACO  = 16.0  distance and # of slots for P.C.
   PSTRESS=    0.0 pullay stress

  Mass of Ions in am
   POMASS =  58.69195.08  1.00
  Ionic Valenz
   ZVAL   =  10.00 10.00  1.00
  Atomic Wigner-Seitz radii
   RWIGS  =  -1.00 -1.00 -1.00
  virtual crystal weights 
   VCA    =   1.00  1.00  1.00
   NELECT =     802.0000    total number of electrons
   NUPDOWN=      -1.0000    fix difference up-down

 DOS related values:
   EMIN   =  10.00;   EMAX   =-10.00  energy-range for DOS
   EFERMI =   0.00
   ISMEAR =     1;   SIGMA  =   0.10  broadening in eV -4-tet -1-fermi 0-gaus

 Electronic relaxation 2 (details)
   IALGO  =     68    algorithm
   LDIAG  =      T    sub-space diagonalisation (order eigenvalues)
   LSUBROT=      F    optimize rotation matrix (better conditioning)
   TURBO    =      0    0=normal 1=particle mesh
   IRESTART =      0    0=no restart 2=restart with 2 vectors
   NREBOOT  =      0    no. of reboots
   NMIN     =      0    reboot dimension
   EREF     =   0.00    reference energy to select bands
   IMIX   =      4    mixing-type and parameters
     AMIX     =   0.40;   BMIX     =  1.00
     AMIX_MAG =   1.60;   BMIX_MAG =  1.00
     AMIN     =   0.10
     WC   =   100.;   INIMIX=   1;  MIXPRE=   1;  MAXMIX= -45

 Intra band minimization:
   WEIMIN = 0.0010     energy-eigenvalue tresh-hold
   EBREAK =  0.47E-08  absolut break condition
   DEPER  =   0.30     relativ break condition  

   TIME   =   0.40     timestep for ELM

  volume/ion in A,a.u.               =      25.91       174.85
  Fermi-wavevector in a.u.,A,eV,Ry     =   1.183148  2.235826 19.045982  1.399840
  Thomas-Fermi vector in A             =   2.319389
 
 Write flags
   LWAVE        =      F    write WAVECAR
   LDOWNSAMPLE  =      F    k-point downsampling of WAVECAR
   LCHARG       =      F    write CHGCAR
   LVTOT        =      F    write LOCPOT, total local potential
   LVHAR        =      F    write LOCPOT, Hartree potential only
   LELF         =      F    write electronic localiz. function (ELF)
   LORBIT       =      0    0 simple, 1 ext, 2 COOP (PROOUT), +10 PAW based schemes


 Dipole corrections
   LMONO  =      F    monopole corrections only (constant potential shift)
   LDIPOL =      F    correct potential (dipole corrections)
   IDIPOL =      0    1-x, 2-y, 3-z, 4-all directions 
   EPSILON=  1.0000000 bulk dielectric constant

 Exchange correlation treatment:
   GGA     =    --    GGA type
   LEXCH   =     8    internal setting for exchange type
   VOSKOWN=      0    Vosko Wilk Nusair interpolation
   LHFCALC =     F    Hartree Fock is set to
   LHFONE  =     F    Hartree Fock one center treatment
   AEXX    =    0.0000 exact exchange contribution

 Linear response parameters
   LEPSILON=     F    determine dielectric tensor
   LRPA    =     F    only Hartree local field effects (RPA)
   LNABLA  =     F    use nabla operator in PAW spheres
   LVEL    =     F    velocity operator in full k-point grid
   LINTERFAST=   F  fast interpolation
   KINTER  =     0    interpolate to denser k-point grid
   CSHIFT  =0.1000    complex shift for real part using Kramers Kronig
   OMEGAMAX=  -1.0    maximum frequency
   DEG_THRESHOLD= 0.2000000E-02 threshold for treating states as degnerate
   RTIME   =   -0.100 relaxation time in fs
  (WPLASMAI=    0.000 imaginary part of plasma frequency in eV, 0.658/RTIME)
   DFIELD  = 0.0000000 0.0000000 0.0000000 field for delta impulse in time
 
 Orbital magnetization related:
   ORBITALMAG=     F  switch on orbital magnetization
   LCHIMAG   =     F  perturbation theory with respect to B field
   DQ        =  0.001000  dq finite difference perturbation B field
   LLRAUG    =     F  two centre corrections for induced B field



--------------------------------------------------------------------------------------------------------


 conjugate gradient relaxation of ions
   using selective dynamics as specified on POSCAR
 charge density and potential will be updated during run
 spin polarized calculation
 RMM-DIIS sequential band-by-band and
  variant of blocked Davidson during initial phase
 perform sub-space diagonalisation
    before iterative eigenvector-optimisation
 modified Broyden-mixing scheme, WC =      100.0
 initial mixing is a Kerker type mixing with AMIX =  0.4000 and BMIX =      1.0000
 Hartree-type preconditioning will be used
 using additional bands          129
 real space projection scheme for non local part
 use partial core corrections
 calculate Harris-corrections to forces 
   (improved forces if not selfconsistent)
 use gradient corrections 
 use of overlap-Matrix (Vanderbilt PP)
 Methfessel and Paxton  Order N= 1 SIGMA  =   0.10


--------------------------------------------------------------------------------------------------------


  energy-cutoff  :      550.00
  volume of cell :     2124.62
      direct lattice vectors                 reciprocal lattice vectors
    10.560000420  0.000000000  0.000000000     0.094696966 -0.054673319  0.000000000
     5.280000210  9.145228627  0.000000000     0.000000000  0.109346638  0.000000000
     0.000000000  0.000000000 22.000000000     0.000000000  0.000000000  0.045454545

  length of vectors
    10.560000420 10.560000420 22.000000000     0.109346638  0.109346638  0.045454545


 
 k-points in units of 2pi/SCALE and weight: mesh auto                               
   0.00000000  0.00000000  0.00000000       0.250
   0.04734848 -0.02733666  0.00000000       0.250
   0.00000000  0.05467332  0.00000000       0.250
   0.04734848  0.02733666  0.00000000       0.250
 
 k-points in reciprocal lattice and weights: mesh auto                               
   0.00000000  0.00000000  0.00000000       0.250
   0.50000000  0.00000000  0.00000000       0.250
   0.00000000  0.50000000  0.00000000       0.250
   0.50000000  0.50000000  0.00000000       0.250
 
 position of ions in fractional coordinates (direct lattice) 
   0.78535836  0.86903695  0.31084259
   0.03551868  0.86915313  0.31083964
   0.03559152  0.61903118  0.31087161
   0.78741642  0.86719742  0.05079528
   0.03718121  0.86761865  0.05089071
   0.03746848  0.61719563  0.05096254
   0.61955406  0.20159273  0.13754729
   0.36950752  0.95182425  0.13751778
   0.03537300  0.36914896  0.31094164
   0.03704415  0.36790874  0.05101225
   0.86968327  0.20177888  0.13759574
   0.95223761  0.53545644  0.22516855
   0.28537644  0.11931891  0.31085618
   0.53458107  0.61867328  0.31218845
   0.28587278  0.36988480  0.31154423
   0.28654380  0.11855176  0.05090361
   0.53631410  0.61782829  0.05077704
   0.28617043  0.36837481  0.05100020
   0.61962349  0.95173358  0.13735891
   0.70231399  0.78525121  0.22494470
   0.86964043  0.70147724  0.13761457
   0.61962996  0.45161655  0.13752038
   0.28548116  0.86879354  0.31137883
   0.28659379  0.86807346  0.05083465
   0.61943357  0.70165557  0.13733944
   0.20240092  0.03571073  0.22491607
   0.53463262  0.37057387  0.31218965
   0.53636708  0.36809334  0.05087323
   0.53537914  0.11931400  0.31082185
   0.53577406  0.11869988  0.05080760
   0.86958892  0.45176640  0.13773701
   0.11946257  0.45169681  0.13792997
   0.03534727  0.11936121  0.31082950
   0.03722948  0.11830690  0.05090843
   0.11942365  0.95191852  0.13762189
   0.45252037  0.53534485  0.22564674
   0.36939774  0.20190437  0.13777412
   0.11962251  0.20181419  0.13782209
   0.95250997  0.78533293  0.22501202
   0.78495794  0.61894822  0.31086661
   0.28639482  0.61877546  0.31220166
   0.78732655  0.61751434  0.05082635
   0.28659969  0.61749987  0.05092547
   0.36925454  0.70178896  0.13754760
   0.36954841  0.45163383  0.13774745
   0.20253754  0.28572737  0.22505964
   0.78405776  0.36977593  0.31148195
   0.78719406  0.36815325  0.05087725
   0.95243249  0.03551416  0.22498713
   0.45221160  0.78486718  0.22522557
   0.70139345  0.53551651  0.22522902
   0.20307057  0.78504063  0.22529133
   0.45256326  0.03529859  0.22498183
   0.11946978  0.70168866  0.13771962
   0.70245203  0.03530048  0.22495021
   0.78525265  0.11935192  0.31080092
   0.53522041  0.86902961  0.31082184
   0.78683365  0.11830804  0.05083868
   0.53651553  0.86825611  0.05071684
   0.20318161  0.53547544  0.22534699
   0.95212798  0.28572528  0.22499375
   0.86948068  0.95178013  0.13750341
   0.70169583  0.28602721  0.22524809
   0.45250267  0.28604392  0.22534522
   0.86787128  0.95340842  0.40822154
   0.11731119  0.45345319  0.40822375
   0.11741803  0.95358158  0.40808171
   0.86831126  0.45344385  0.40818846
   0.36792186  0.95366704  0.40808114
   0.86832827  0.20278124  0.40806812
   0.11785320  0.20328627  0.40790589
   0.61760333  0.95339865  0.40824613
   0.86772494  0.70341518  0.40828599
   0.36777998  0.20285326  0.40812347
   0.36606573  0.70679497  0.41126850
   0.62147204  0.45138378  0.41147882
   0.11559762  0.70440311  0.40795116
   0.61892969  0.20112241  0.40792484
   0.36615947  0.45154925  0.41131311
   0.61900800  0.70444037  0.40798952
   0.45161445  0.53872718  0.45722018
   0.53445000  0.61878000  0.45700000
 
 position of ions in cartesian coordinates  (Angst):
  12.88189985  7.94754157  6.83853696
   4.96420595  7.94860407  6.83847213
   3.64433127  5.66118166  6.83917538
  12.89392030  7.93071864  1.11749627
   4.97366020  7.93457089  1.11959566
   3.65446024  5.64439510  1.12117595
   7.60690073  1.84361156  3.02604042
   8.92763184  8.70465037  3.02539115
   2.32264547  3.37595160  6.84071602
   2.33374452  3.36460958  1.12226958
  10.24924827  1.84531402  3.02710637
  12.88283964  4.89687153  4.95370816
   3.64357921  1.09119874  6.83883593
   8.91177130  5.65790855  6.86814587
   4.97180850  3.38268109  6.85397307
   3.65185596  1.08418299  1.11987945
   8.92561060  5.65018094  1.11709482
   4.96697898  3.36887187  1.12200441
  11.56837780  8.70382115  3.02189609
  11.56256257  7.18130182  4.94878335
  12.88720326  6.41516977  3.02752049
   8.92782818  4.13013662  3.02544834
   7.60191122  7.94531553  6.85033423
   7.60985855  7.93873022  1.11836232
  10.24596031  6.41680062  3.02146762
   2.32590646  0.32658281  4.94815358
   7.60235077  3.38898276  6.86817223
   7.60756953  3.36629775  1.11921113
   6.28358190  1.09115379  6.83808072
   6.28450963  1.08553751  1.11776729
  11.56818608  4.13150705  3.03021432
   3.64648406  4.13087058  3.03445934
   1.00349445  1.09158557  6.83824903
   1.01780373  1.08194362  1.11998552
   6.28724379  8.70551252  3.02768158
   7.60523616  4.89585101  4.96422836
   4.96689545  1.84646162  3.03103057
   2.32879270  1.84563689  3.03208601
  14.20506372  7.18204921  4.95026437
  11.55720289  5.66042300  6.83906543
   6.29146395  5.65884302  6.86843658
  11.57464457  5.64730984  1.11817973
   6.28689233  5.64717752  1.12036035
   7.60477390  6.41802047  3.02604717
   6.28705813  4.13029466  3.03044397
   3.64743705  2.61304215  4.95131218
  10.23206725  3.38168543  6.85260300
  10.25661881  3.36684564  1.11929947
  10.24520222  0.32478507  4.94971686
   8.91945357  7.17778980  4.95496262
  10.23424241  4.89742090  4.95503847
   6.28944001  7.17937608  4.95640935
   4.96544481  0.32281369  4.94960022
   4.96651723  6.41710321  3.02983166
   7.60428027  0.32283101  4.94890470
   8.92244647  1.09150062  6.83762027
  10.24040426  7.94747443  6.83808057
   8.93363021  1.08195409  1.11845107
  10.24999669  7.94040067  1.11577051
   4.97290837  4.89704533  4.95763387
  11.56310142  2.61302301  4.94986249
  14.20711566  8.70424687  3.02507502
   8.92013197  2.61578419  4.95545791
   6.28874034  2.61593701  4.95759474
  14.19871773  8.71913799  8.98087388
   3.63303918  4.14693309  8.98092258
   6.27484533  8.72072155  8.97779764
  11.56355094  4.14684768  8.98014610
   8.92061722  8.72150314  8.97778503
  10.24023186  1.85448080  8.97749862
   2.31788138  1.85909940  8.97392967
  11.55583653  8.71904861  8.98141490
  12.87720801  6.43289260  8.98229177
   4.95482197  1.85513940  8.97871638
   7.59753190  6.46380163  9.04790707
   8.94605145  4.12800783  9.05253401
   4.93995944  6.44192747  8.97492558
   7.59782415  1.83931044  8.97434642
   6.25082433  4.12952113  9.04888850
  10.25617008  6.44226825  8.97576940
   7.61352841  4.92678327 10.05884394
   8.91095075  5.65888457 10.05400000
 


--------------------------------------------------------------------------------------------------------


 k-point  1 :   0.0000 0.0000 0.0000  plane waves:   62167
 k-point  2 :   0.5000 0.0000 0.0000  plane waves:   62242
 k-point  3 :   0.0000 0.5000 0.0000  plane waves:   62242
 k-point  4 :   0.5000 0.5000 0.0000  plane waves:   62242

 maximum and minimum number of plane-waves per node :     15586    15521

 maximum number of plane-waves:     62242
 maximum index in each direction: 
   IXMAX=   20   IYMAX=   20   IZMAX=   42
   IXMIN=  -20   IYMIN=  -20   IZMIN=  -42


 real space projection operators:
  total allocation   :      64532.04 KBytes
  max/ min on nodes  :      16138.60      16126.70


 parallel 3D FFT for wavefunctions:
    minimum data exchange during FFTs selected (reduces bandwidth)
 parallel 3D FFT for charge:
    minimum data exchange during FFTs selected (reduces bandwidth)


 total amount of memory used by VASP MPI-rank0   236115. kBytes
=======================================================================

   base      :      30000. kBytes
   nonlr-proj:      30709. kBytes
   fftplans  :      17962. kBytes
   grid      :      48722. kBytes
   one-center:        653. kBytes
   wavefun   :     108069. kBytes
 
     INWAV:  cpu time    0.0000: real time    0.0000
 Broyden mixing: mesh for mixing (old mesh)
   NGX = 41   NGY = 41   NGZ = 85
  (NGX  =168   NGY  =168   NGZ  =336)
  gives a total of 142885 points

 initial charge density was supplied:
 charge density of overlapping atoms calculated
 number of electron     802.0000000 magnetization      82.0000000
 keeping initial charge density in first step


--------------------------------------------------------------------------------------------------------


 Maximum index for non-local projection operator         1908
 Maximum index for augmentation-charges         1316 (set IRDMAX)


--------------------------------------------------------------------------------------------------------


 First call to EWALD:  gamma=   0.138
 Maximum number of real-space cells 4x 4x 2
 Maximum number of reciprocal cells 2x 2x 4

    FEWALD:  cpu time    0.0040: real time    0.0040


--------------------------------------- Iteration      1(   1)  ---------------------------------------


    POTLOK:  cpu time    0.4233: real time    0.4260
    SETDIJ:  cpu time    0.0323: real time    0.0327
     EDDAV:  cpu time   58.4016: real time   58.5726
       DOS:  cpu time    0.0023: real time    0.0024
    --------------------------------------------
      LOOP:  cpu time   58.8594: real time   59.0337

 eigenvalue-minimisations  :  8480
 total energy-change (2. order) : 0.7048923E+04  (-0.3589413E+05)
 number of electron     802.0000000 magnetization      82.0000000
 augmentation part      802.0000000 magnetization      82.0000000

 Free energy of the ion-electron system (eV)
  ---------------------------------------------------
  alpha Z        PSCENC =      1808.03780164
  Ewald energy   TEWEN  =    277317.29168750
  -Hartree energ DENC   =   -358353.38040725
  -exchange      EXHF   =         0.00000000
  -V(xc)+E(xc)   XCENC  =      2077.04850743
  PAW double counting   =     72761.65218721   -76586.80637160
  entropy T*S    EENTRO =        -0.00624393
  eigenvalues    EBANDS =      7363.30741407
  atomic energy  EATOM  =     80661.77793577
  Solvation  Ediel_sol  =         0.00000000
  ---------------------------------------------------
  free energy    TOTEN  =      7048.92251084 eV

  energy without entropy =     7048.92875477  energy(sigma->0) =     7048.92459215


--------------------------------------------------------------------------------------------------------




--------------------------------------- Iteration      1(   2)  ---------------------------------------


     EDDAV:  cpu time   58.1819: real time   58.3429
       DOS:  cpu time    0.0019: real time    0.0019
    --------------------------------------------
      LOOP:  cpu time   58.1838: real time   58.3448

 eigenvalue-minimisations  :  8480
 total energy-change (2. order) :-0.6517439E+04  (-0.6041732E+04)
 number of electron     802.0000000 magnetization      82.0000000
 augmentation part      802.0000000 magnetization      82.0000000

 Free energy of the ion-electron system (eV)
  ---------------------------------------------------
  alpha Z        PSCENC =      1808.03780164
  Ewald energy   TEWEN  =    277317.29168750
  -Hartree energ DENC   =   -358353.38040725
  -exchange      EXHF   =         0.00000000
  -V(xc)+E(xc)   XCENC  =      2077.04850743
  PAW double counting   =     72761.65218721   -76586.80637160
  entropy T*S    EENTRO =        -0.00417726
  eigenvalues    EBANDS =       845.86601297
  atomic energy  EATOM  =     80661.77793577
  Solvation  Ediel_sol  =         0.00000000
  ---------------------------------------------------
  free energy    TOTEN  =       531.48317642 eV

  energy without entropy =      531.48735367  energy(sigma->0) =      531.48456884


--------------------------------------------------------------------------------------------------------




--------------------------------------- Iteration      1(   3)  ---------------------------------------


     EDDAV:  cpu time   60.2470: real time   60.4047
       DOS:  cpu time    0.0021: real time    0.0021
    --------------------------------------------
      LOOP:  cpu time   60.2491: real time   60.4067

 eigenvalue-minimisations  :  8860
 total energy-change (2. order) :-0.9367765E+03  (-0.7962885E+03)
 number of electron     802.0000000 magnetization      82.0000000
 augmentation part      802.0000000 magnetization      82.0000000

 Free energy of the ion-electron system (eV)
  ---------------------------------------------------
  alpha Z        PSCENC =      1808.03780164
  Ewald energy   TEWEN  =    277317.29168750
  -Hartree energ DENC   =   -358353.38040725
  -exchange      EXHF   =         0.00000000
  -V(xc)+E(xc)   XCENC  =      2077.04850743
  PAW double counting   =     72761.65218721   -76586.80637160
  entropy T*S    EENTRO =         0.00252667
  eigenvalues    EBANDS =       -90.91722246
  atomic energy  EATOM  =     80661.77793577
  Solvation  Ediel_sol  =         0.00000000
  ---------------------------------------------------
  free energy    TOTEN  =      -405.29335509 eV

  energy without entropy =     -405.29588176  energy(sigma->0) =     -405.29419731


--------------------------------------------------------------------------------------------------------




--------------------------------------- Iteration      1(   4)  ---------------------------------------


     EDDAV:  cpu time   64.2004: real time   64.3526
       DOS:  cpu time    0.0021: real time    0.0021
    --------------------------------------------
      LOOP:  cpu time   64.2024: real time   64.3547

 eigenvalue-minimisations  :  9610
 total energy-change (2. order) :-0.8701090E+02  (-0.7975606E+02)
 number of electron     802.0000000 magnetization      82.0000000
 augmentation part      802.0000000 magnetization      82.0000000

 Free energy of the ion-electron system (eV)
  ---------------------------------------------------
  alpha Z        PSCENC =      1808.03780164
  Ewald energy   TEWEN  =    277317.29168750
  -Hartree energ DENC   =   -358353.38040725
  -exchange      EXHF   =         0.00000000
  -V(xc)+E(xc)   XCENC  =      2077.04850743
  PAW double counting   =     72761.65218721   -76586.80637160
  entropy T*S    EENTRO =        -0.00779362
  eigenvalues    EBANDS =      -177.91779822
  atomic energy  EATOM  =     80661.77793577
  Solvation  Ediel_sol  =         0.00000000
  ---------------------------------------------------
  free energy    TOTEN  =      -492.30425114 eV

  energy without entropy =     -492.29645752  energy(sigma->0) =     -492.30165327


--------------------------------------------------------------------------------------------------------




--------------------------------------- Iteration      1(   5)  ---------------------------------------


     EDDAV:  cpu time   64.8655: real time   65.0388
       DOS:  cpu time    0.0021: real time    0.0021
    CHARGE:  cpu time    4.3491: real time    4.3614
    MIXING:  cpu time    0.0123: real time    0.0131
    --------------------------------------------
      LOOP:  cpu time   69.2290: real time   69.4154

 eigenvalue-minimisations  :  9770
 total energy-change (2. order) :-0.1976854E+01  (-0.1960036E+01)
 number of electron     801.9999993 magnetization      79.2317762
 augmentation part      407.2664200 magnetization      67.0449353

 Broyden mixing:
  rms(total) = 0.89528E+01    rms(broyden)= 0.89528E+01
  rms(prec ) = 0.92952E+01
  weight for this iteration     100.00

 Free energy of the ion-electron system (eV)
  ---------------------------------------------------
  alpha Z        PSCENC =      1808.03780164
  Ewald energy   TEWEN  =    277317.29168750
  -Hartree energ DENC   =   -358353.38040725
  -exchange      EXHF   =         0.00000000
  -V(xc)+E(xc)   XCENC  =      2077.04850743
  PAW double counting   =     72761.65218721   -76586.80637160
  entropy T*S    EENTRO =         0.00200982
  eigenvalues    EBANDS =      -179.90445530
  atomic energy  EATOM  =     80661.77793577
  Solvation  Ediel_sol  =         0.00000000
  ---------------------------------------------------
  free energy    TOTEN  =      -494.28110477 eV

  energy without entropy =     -494.28311459  energy(sigma->0) =     -494.28177471


--------------------------------------------------------------------------------------------------------




--------------------------------------- Iteration      1(   6)  ---------------------------------------


    POTLOK:  cpu time    0.4266: real time    0.4276
    SETDIJ:  cpu time    0.0371: real time    0.0371
    EDDIAG:  cpu time   10.6634: real time   10.6931
  RMM-DIIS:  cpu time   36.1956: real time   36.2950
    ORTHCH:  cpu time    1.0808: real time    1.0838
       DOS:  cpu time    0.0020: real time    0.0020
    CHARGE:  cpu time    4.2751: real time    4.2871
    MIXING:  cpu time    0.0102: real time    0.0108
    --------------------------------------------
      LOOP:  cpu time   52.6906: real time   52.8365

 eigenvalue-minimisations  :  8528
 total energy-change (2. order) :-0.4482146E+02  (-0.7630974E+02)
 number of electron     801.9999990 magnetization      77.1681734
 augmentation part      475.8629930 magnetization      68.5813141

 Broyden mixing:
  rms(total) = 0.11677E+02    rms(broyden)= 0.11677E+02
  rms(prec ) = 0.14483E+02
  weight for this iteration     100.00

 eigenvalues of (default mixing * dielectric matrix)
  average eigenvalue GAMMA=   0.3592
  0.3592

 Free energy of the ion-electron system (eV)
  ---------------------------------------------------
  alpha Z        PSCENC =      1808.03780164
  Ewald energy   TEWEN  =    277317.29168750
  -Hartree energ DENC   =   -356970.03363393
  -exchange      EXHF   =         0.00000000
  -V(xc)+E(xc)   XCENC  =      2002.10764514
  PAW double counting   =     77374.59153039   -80937.42245050
  entropy T*S    EENTRO =        -0.03659829
  eigenvalues    EBANDS =     -1795.41648179
  atomic energy  EATOM  =     80661.77793577
  Solvation  Ediel_sol  =         0.00000000
  ---------------------------------------------------
  free energy    TOTEN  =      -539.10256407 eV

  energy without entropy =     -539.06596578  energy(sigma->0) =     -539.09036464


--------------------------------------------------------------------------------------------------------




--------------------------------------- Iteration      1(   7)  ---------------------------------------


    POTLOK:  cpu time    0.4002: real time    0.4012
    SETDIJ:  cpu time    0.0324: real time    0.0325
    EDDIAG:  cpu time   10.6353: real time   10.6648
  RMM-DIIS:  cpu time   35.9885: real time   36.0875
    ORTHCH:  cpu time    1.0873: real time    1.0903
       DOS:  cpu time    0.0019: real time    0.0019
    CHARGE:  cpu time    4.4377: real time    4.4497
    MIXING:  cpu time    0.0102: real time    0.0102
    --------------------------------------------
      LOOP:  cpu time   52.5936: real time   52.7381

 eigenvalue-minimisations  :  8485
 total energy-change (2. order) :-0.6983162E+02  (-0.2233730E+02)
 number of electron     802.0000000 magnetization      75.9765781
 augmentation part      428.6421013 magnetization      64.2861303

 Broyden mixing:
  rms(total) = 0.14617E+02    rms(broyden)= 0.14617E+02
  rms(prec ) = 0.20003E+02
  weight for this iteration     100.00

 eigenvalues of (default mixing * dielectric matrix)
  average eigenvalue GAMMA=   0.2354
  0.3998  0.0709

 Free energy of the ion-electron system (eV)
  ---------------------------------------------------
  alpha Z        PSCENC =      1808.03780164
  Ewald energy   TEWEN  =    277317.29168750
  -Hartree energ DENC   =   -357844.28248386
  -exchange      EXHF   =         0.00000000
  -V(xc)+E(xc)   XCENC  =      2019.43221068
  PAW double counting   =     79127.31101393   -82906.14660346
  entropy T*S    EENTRO =        -0.08020046
  eigenvalues    EBANDS =      -792.27554180
  atomic energy  EATOM  =     80661.77793577
  Solvation  Ediel_sol  =         0.00000000
  ---------------------------------------------------
  free energy    TOTEN  =      -608.93418006 eV

  energy without entropy =     -608.85397960  energy(sigma->0) =     -608.90744657


--------------------------------------------------------------------------------------------------------




--------------------------------------- Iteration      1(   8)  ---------------------------------------


    POTLOK:  cpu time    0.4018: real time    0.4030
    SETDIJ:  cpu time    0.0325: real time    0.0325
    EDDIAG:  cpu time   10.4785: real time   10.5074
  RMM-DIIS:  cpu time   35.7500: real time   35.8482
    ORTHCH:  cpu time    1.2209: real time    1.2242
       DOS:  cpu time    0.0019: real time    0.0019
    CHARGE:  cpu time    4.2734: real time    4.2855
    MIXING:  cpu time    0.0109: real time    0.0110
    --------------------------------------------
      LOOP:  cpu time   52.1699: real time   52.3137

 eigenvalue-minimisations  :  8486
 total energy-change (2. order) : 0.9526235E+02  (-0.5377289E+01)
 number of electron     802.0000000 magnetization      74.7694762
 augmentation part      433.6067386 magnetization      62.2566465

 Broyden mixing:
  rms(total) = 0.12737E+02    rms(broyden)= 0.12737E+02
  rms(prec ) = 0.14711E+02
  weight for this iteration     100.00

 eigenvalues of (default mixing * dielectric matrix)
  average eigenvalue GAMMA=   0.2251
  0.4446  0.1153  0.1153

 Free energy of the ion-electron system (eV)
  ---------------------------------------------------
  alpha Z        PSCENC =      1808.03780164
  Ewald energy   TEWEN  =    277317.29168750
  -Hartree energ DENC   =   -357922.50004488
  -exchange      EXHF   =         0.00000000
  -V(xc)+E(xc)   XCENC  =      2021.49705528
  PAW double counting   =     80011.25117002   -83830.63446998
  entropy T*S    EENTRO =        -0.01384017
  eigenvalues    EBANDS =      -580.37912336
  atomic energy  EATOM  =     80661.77793577
  Solvation  Ediel_sol  =         0.00000000
  ---------------------------------------------------
  free energy    TOTEN  =      -513.67182817 eV

  energy without entropy =     -513.65798800  energy(sigma->0) =     -513.66721478


--------------------------------------------------------------------------------------------------------




--------------------------------------- Iteration      1(   9)  ---------------------------------------


    POTLOK:  cpu time    0.4013: real time    0.4023
    SETDIJ:  cpu time    0.0324: real time    0.0325
    EDDIAG:  cpu time   10.5767: real time   10.6060
  RMM-DIIS:  cpu time   35.9033: real time   36.0092
    ORTHCH:  cpu time    1.0847: real time    1.0877
       DOS:  cpu time    0.0020: real time    0.0020
    CHARGE:  cpu time    4.3225: real time    4.3342
    MIXING:  cpu time    0.0119: real time    0.0120
    --------------------------------------------
      LOOP:  cpu time   52.3349: real time   52.4859

 eigenvalue-minimisations  :  8494
 total energy-change (2. order) : 0.5639746E+02  (-0.3541139E+01)
 number of electron     801.9999999 magnetization      73.1081440
 augmentation part      442.8718819 magnetization      58.8853412

 Broyden mixing:
  rms(total) = 0.10151E+02    rms(broyden)= 0.10150E+02
  rms(prec ) = 0.13124E+02
  weight for this iteration     100.00

 eigenvalues of (default mixing * dielectric matrix)
  average eigenvalue GAMMA=   0.2940
  0.5675  0.2717  0.2717  0.0653

 Free energy of the ion-electron system (eV)
  ---------------------------------------------------
  alpha Z        PSCENC =      1808.03780164
  Ewald energy   TEWEN  =    277317.29168750
  -Hartree energ DENC   =   -357551.97227100
  -exchange      EXHF   =         0.00000000
  -V(xc)+E(xc)   XCENC  =      2020.40557461
  PAW double counting   =     80776.94516080   -84604.90886146
  entropy T*S    EENTRO =         0.02919710
  eigenvalues    EBANDS =      -884.88059526
  atomic energy  EATOM  =     80661.77793577
  Solvation  Ediel_sol  =         0.00000000
  ---------------------------------------------------
  free energy    TOTEN  =      -457.27437030 eV

  energy without entropy =     -457.30356741  energy(sigma->0) =     -457.28410267


--------------------------------------------------------------------------------------------------------




--------------------------------------- Iteration      1(  10)  ---------------------------------------


    POTLOK:  cpu time    0.4759: real time    0.4774
    SETDIJ:  cpu time    0.0388: real time    0.0388
    EDDIAG:  cpu time   10.5898: real time   10.6189
  RMM-DIIS:  cpu time   35.8172: real time   35.9162
    ORTHCH:  cpu time    1.0833: real time    1.0862
       DOS:  cpu time    0.0020: real time    0.0020
    CHARGE:  cpu time    4.3705: real time    4.3826
    MIXING:  cpu time    0.0110: real time    0.0110
    --------------------------------------------
      LOOP:  cpu time   52.3884: real time   52.5332

 eigenvalue-minimisations  :  8492
 total energy-change (2. order) :-0.1002125E+03  (-0.9618396E+01)
 number of electron     801.9999993 magnetization      69.0793464
 augmentation part      430.3587280 magnetization      57.3862134

 Broyden mixing:
  rms(total) = 0.16171E+02    rms(broyden)= 0.16171E+02
  rms(prec ) = 0.19177E+02
  weight for this iteration     100.00

 eigenvalues of (default mixing * dielectric matrix)
  average eigenvalue GAMMA=   0.4270
  0.8760  0.8760  0.2059  0.1064  0.0709

 Free energy of the ion-electron system (eV)
  ---------------------------------------------------
  alpha Z        PSCENC =      1808.03780164
  Ewald energy   TEWEN  =    277317.29168750
  -Hartree energ DENC   =   -357972.10544273
  -exchange      EXHF   =         0.00000000
  -V(xc)+E(xc)   XCENC  =      2025.59547486
  PAW double counting   =     81902.16107497   -85788.67913555
  entropy T*S    EENTRO =         0.00225768
  eigenvalues    EBANDS =      -511.56855294
  atomic energy  EATOM  =     80661.77793577
  Solvation  Ediel_sol  =         0.00000000
  ---------------------------------------------------
  free energy    TOTEN  =      -557.48689879 eV

  energy without entropy =     -557.48915648  energy(sigma->0) =     -557.48765135


--------------------------------------------------------------------------------------------------------




--------------------------------------- Iteration      1(  11)  ---------------------------------------


    POTLOK:  cpu time    0.4016: real time    0.4026
    SETDIJ:  cpu time    0.0327: real time    0.0327
    EDDIAG:  cpu time   10.6131: real time   10.6426
  RMM-DIIS:  cpu time   35.8286: real time   35.9269
    ORTHCH:  cpu time    1.0875: real time    1.0905
       DOS:  cpu time    0.0021: real time    0.0021
    CHARGE:  cpu time    4.3518: real time    4.3636
    MIXING:  cpu time    0.0115: real time    0.0115
    --------------------------------------------
      LOOP:  cpu time   52.3290: real time   52.4727

 eigenvalue-minimisations  :  8518
 total energy-change (2. order) : 0.8198181E+02  (-0.1218696E+02)
 number of electron     801.9999991 magnetization      67.7784707
 augmentation part      442.2286514 magnetization      56.6307951

 Broyden mixing:
  rms(total) = 0.11460E+02    rms(broyden)= 0.11460E+02
  rms(prec ) = 0.12860E+02
  weight for this iteration     100.00

 eigenvalues of (default mixing * dielectric matrix)
  average eigenvalue GAMMA=   0.3988
  1.0061  0.8734  0.1716  0.1716  0.0704  0.0996

 Free energy of the ion-electron system (eV)
  ---------------------------------------------------
  alpha Z        PSCENC =      1808.03780164
  Ewald energy   TEWEN  =    277317.29168750
  -Hartree energ DENC   =   -357579.37407498
  -exchange      EXHF   =         0.00000000
  -V(xc)+E(xc)   XCENC  =      2027.24111748
  PAW double counting   =     83371.90384462   -87288.43485095
  entropy T*S    EENTRO =         0.01992372
  eigenvalues    EBANDS =      -793.96847132
  atomic energy  EATOM  =     80661.77793577
  Solvation  Ediel_sol  =         0.00000000
  ---------------------------------------------------
  free energy    TOTEN  =      -475.50508652 eV

  energy without entropy =     -475.52501024  energy(sigma->0) =     -475.51172776


--------------------------------------------------------------------------------------------------------




--------------------------------------- Iteration      1(  12)  ---------------------------------------


    POTLOK:  cpu time    0.4027: real time    0.4041
    SETDIJ:  cpu time    0.0326: real time    0.0326
    EDDIAG:  cpu time   10.5346: real time   10.5638
  RMM-DIIS:  cpu time   35.8664: real time   35.9649
    ORTHCH:  cpu time    1.2535: real time    1.2568
       DOS:  cpu time    0.0021: real time    0.0021
    CHARGE:  cpu time    4.2445: real time    4.2565
    MIXING:  cpu time    0.0121: real time    0.0121
    --------------------------------------------
      LOOP:  cpu time   52.3485: real time   52.4929

 eigenvalue-minimisations  :  8535
 total energy-change (2. order) : 0.3167244E+02  (-0.6404748E+01)
 number of electron     801.9999992 magnetization      66.0927127
 augmentation part      447.4749648 magnetization      53.0797690

 Broyden mixing:
  rms(total) = 0.68367E+01    rms(broyden)= 0.68366E+01
  rms(prec ) = 0.90575E+01
  weight for this iteration     100.00

 eigenvalues of (default mixing * dielectric matrix)
  average eigenvalue GAMMA=   0.3995
  1.3466  0.6609  0.2584  0.2584  0.0698  0.1012  0.1012

 Free energy of the ion-electron system (eV)
  ---------------------------------------------------
  alpha Z        PSCENC =      1808.03780164
  Ewald energy   TEWEN  =    277317.29168750
  -Hartree energ DENC   =   -357529.82503966
  -exchange      EXHF   =         0.00000000
  -V(xc)+E(xc)   XCENC  =      2026.92079645
  PAW double counting   =     83739.22716854   -87666.74372600
  entropy T*S    EENTRO =        -0.03108127
  eigenvalues    EBANDS =      -800.48819447
  atomic energy  EATOM  =     80661.77793577
  Solvation  Ediel_sol  =         0.00000000
  ---------------------------------------------------
  free energy    TOTEN  =      -443.83265149 eV

  energy without entropy =     -443.80157022  energy(sigma->0) =     -443.82229107


--------------------------------------------------------------------------------------------------------




--------------------------------------- Iteration      1(  13)  ---------------------------------------


    POTLOK:  cpu time    0.4021: real time    0.4030
    SETDIJ:  cpu time    0.0323: real time    0.0324
    EDDIAG:  cpu time   10.5398: real time   10.5692
  RMM-DIIS:  cpu time   35.8690: real time   35.9676
    ORTHCH:  cpu time    1.0894: real time    1.0922
       DOS:  cpu time    0.0020: real time    0.0020
    CHARGE:  cpu time    4.2689: real time    4.2806
    MIXING:  cpu time    0.0121: real time    0.0121
    --------------------------------------------
      LOOP:  cpu time   52.2155: real time   52.3591

 eigenvalue-minimisations  :  8524
 total energy-change (2. order) : 0.6724831E+01  (-0.2274468E+01)
 number of electron     801.9999993 magnetization      64.7651225
 augmentation part      445.8694730 magnetization      53.2480336

 Broyden mixing:
  rms(total) = 0.82744E+01    rms(broyden)= 0.82743E+01
  rms(prec ) = 0.10161E+02
  weight for this iteration     100.00

 eigenvalues of (default mixing * dielectric matrix)
  average eigenvalue GAMMA=   0.3782
  1.4578  0.5962  0.2940  0.2940  0.0705  0.1092  0.1092  0.0945

 Free energy of the ion-electron system (eV)
  ---------------------------------------------------
  alpha Z        PSCENC =      1808.03780164
  Ewald energy   TEWEN  =    277317.29168750
  -Hartree energ DENC   =   -357558.57200026
  -exchange      EXHF   =         0.00000000
  -V(xc)+E(xc)   XCENC  =      2024.40012135
  PAW double counting   =     84257.83899368   -88204.67807204
  entropy T*S    EENTRO =         0.01380542
  eigenvalues    EBANDS =      -743.21809323
  atomic energy  EATOM  =     80661.77793577
  Solvation  Ediel_sol  =         0.00000000
  ---------------------------------------------------
  free energy    TOTEN  =      -437.10782017 eV

  energy without entropy =     -437.12162559  energy(sigma->0) =     -437.11242198


--------------------------------------------------------------------------------------------------------




--------------------------------------- Iteration      1(  14)  ---------------------------------------


    POTLOK:  cpu time    0.4480: real time    0.4490
    SETDIJ:  cpu time    0.0415: real time    0.0416
    EDDIAG:  cpu time   10.5934: real time   10.6228
  RMM-DIIS:  cpu time   36.0713: real time   36.1704
    ORTHCH:  cpu time    1.0799: real time    1.0828
       DOS:  cpu time    0.0019: real time    0.0019
    CHARGE:  cpu time    4.2248: real time    4.2365
    MIXING:  cpu time    0.0125: real time    0.0125
    --------------------------------------------
      LOOP:  cpu time   52.4733: real time   52.6176

 eigenvalue-minimisations  :  8517
 total energy-change (2. order) : 0.1327884E+02  (-0.1492982E+01)
 number of electron     801.9999993 magnetization      64.0162076
 augmentation part      446.1929735 magnetization      51.4659907

 Broyden mixing:
  rms(total) = 0.66263E+01    rms(broyden)= 0.66262E+01
  rms(prec ) = 0.81261E+01
  weight for this iteration     100.00

 eigenvalues of (default mixing * dielectric matrix)
  average eigenvalue GAMMA=   0.3564
  1.4756  0.5891  0.2957  0.2957  0.2001  0.1056  0.1056  0.0724  0.0675

 Free energy of the ion-electron system (eV)
  ---------------------------------------------------
  alpha Z        PSCENC =      1808.03780164
  Ewald energy   TEWEN  =    277317.29168750
  -Hartree energ DENC   =   -357576.90936270
  -exchange      EXHF   =         0.00000000
  -V(xc)+E(xc)   XCENC  =      2024.23367856
  PAW double counting   =     84575.39828362   -88533.27598285
  entropy T*S    EENTRO =        -0.01471773
  eigenvalues    EBANDS =      -700.36829907
  atomic energy  EATOM  =     80661.77793577
  Solvation  Ediel_sol  =         0.00000000
  ---------------------------------------------------
  free energy    TOTEN  =      -423.82897525 eV

  energy without entropy =     -423.81425752  energy(sigma->0) =     -423.82406934


--------------------------------------------------------------------------------------------------------




--------------------------------------- Iteration      1(  15)  ---------------------------------------


    POTLOK:  cpu time    0.4022: real time    0.4031
    SETDIJ:  cpu time    0.0323: real time    0.0324
    EDDIAG:  cpu time   10.6198: real time   10.6489
  RMM-DIIS:  cpu time   35.9544: real time   36.0528
    ORTHCH:  cpu time    1.0931: real time    1.0960
       DOS:  cpu time    0.0020: real time    0.0020
    CHARGE:  cpu time    4.2500: real time    4.2617
    MIXING:  cpu time    0.0139: real time    0.0139
    --------------------------------------------
      LOOP:  cpu time   52.3677: real time   52.5108

 eigenvalue-minimisations  :  8516
 total energy-change (2. order) : 0.4161881E+01  (-0.8038326E+00)
 number of electron     801.9999993 magnetization      63.5186226
 augmentation part      446.7080732 magnetization      50.6980672

 Broyden mixing:
  rms(total) = 0.64847E+01    rms(broyden)= 0.64846E+01
  rms(prec ) = 0.80616E+01
  weight for this iteration     100.00

 eigenvalues of (default mixing * dielectric matrix)
  average eigenvalue GAMMA=   0.3394
  1.4727  0.5808  0.3466  0.3466  0.2201  0.1079  0.1079  0.0712  0.0702  0.0702

 Free energy of the ion-electron system (eV)
  ---------------------------------------------------
  alpha Z        PSCENC =      1808.03780164
  Ewald energy   TEWEN  =    277317.29168750
  -Hartree energ DENC   =   -357599.04828219
  -exchange      EXHF   =         0.00000000
  -V(xc)+E(xc)   XCENC  =      2023.43749045
  PAW double counting   =     84698.98747436   -88661.32655046
  entropy T*S    EENTRO =        -0.03313419
  eigenvalues    EBANDS =      -668.79151725
  atomic energy  EATOM  =     80661.77793577
  Solvation  Ediel_sol  =         0.00000000
  ---------------------------------------------------
  free energy    TOTEN  =      -419.66709436 eV

  energy without entropy =     -419.63396017  energy(sigma->0) =     -419.65604963


--------------------------------------------------------------------------------------------------------




--------------------------------------- Iteration      1(  16)  ---------------------------------------


    POTLOK:  cpu time    0.4069: real time    0.4082
    SETDIJ:  cpu time    0.0325: real time    0.0326
    EDDIAG:  cpu time   10.5369: real time   10.5680
  RMM-DIIS:  cpu time   35.8468: real time   35.9319
    ORTHCH:  cpu time    1.2405: real time    1.2446
       DOS:  cpu time    0.0027: real time    0.0027
    CHARGE:  cpu time    4.2338: real time    4.2458
    MIXING:  cpu time    0.0131: real time    0.0131
    --------------------------------------------
      LOOP:  cpu time   52.3132: real time   52.4470

 eigenvalue-minimisations  :  8510
 total energy-change (2. order) : 0.3746691E+01  (-0.3853277E+00)
 number of electron     801.9999993 magnetization      63.1982974
 augmentation part      446.6804073 magnetization      49.3659697

 Broyden mixing:
  rms(total) = 0.52194E+01    rms(broyden)= 0.52193E+01
  rms(prec ) = 0.64019E+01
  weight for this iteration     100.00

 eigenvalues of (default mixing * dielectric matrix)
  average eigenvalue GAMMA=   0.3188
  1.4550  0.5709  0.3816  0.3816  0.2243  0.1082  0.1082  0.0710  0.0787  0.0787
  0.0487

 Free energy of the ion-electron system (eV)
  ---------------------------------------------------
  alpha Z        PSCENC =      1808.03780164
  Ewald energy   TEWEN  =    277317.29168750
  -Hartree energ DENC   =   -357612.15388555
  -exchange      EXHF   =         0.00000000
  -V(xc)+E(xc)   XCENC  =      2022.86343897
  PAW double counting   =     84758.98341856   -88722.87637462
  entropy T*S    EENTRO =         0.00040339
  eigenvalues    EBANDS =      -649.84482909
  atomic energy  EATOM  =     80661.77793577
  Solvation  Ediel_sol  =         0.00000000
  ---------------------------------------------------
  free energy    TOTEN  =      -415.92040344 eV

  energy without entropy =     -415.92080683  energy(sigma->0) =     -415.92053790


--------------------------------------------------------------------------------------------------------




--------------------------------------- Iteration      1(  17)  ---------------------------------------


    POTLOK:  cpu time    0.4008: real time    0.4018
    SETDIJ:  cpu time    0.0327: real time    0.0328
    EDDIAG:  cpu time   10.5132: real time   10.5383
  RMM-DIIS:  cpu time   35.8948: real time   35.9797
    ORTHCH:  cpu time    1.0875: real time    1.0901
       DOS:  cpu time    0.0020: real time    0.0020
    CHARGE:  cpu time    4.2843: real time    4.2944
    MIXING:  cpu time    0.0137: real time    0.0137
    --------------------------------------------
      LOOP:  cpu time   52.2290: real time   52.3529

 eigenvalue-minimisations  :  8509
 total energy-change (2. order) : 0.1569412E+01  (-0.2009198E+00)
 number of electron     801.9999992 magnetization      63.1070001
 augmentation part      446.1443883 magnetization      49.4458520

 Broyden mixing:
  rms(total) = 0.44686E+01    rms(broyden)= 0.44686E+01
  rms(prec ) = 0.54431E+01
  weight for this iteration     100.00

 eigenvalues of (default mixing * dielectric matrix)
  average eigenvalue GAMMA=   0.3051
  1.4333  0.5641  0.3984  0.3984  0.2270  0.1137  0.1137  0.1052  0.1052  0.0718
  0.0654  0.0654

 Free energy of the ion-electron system (eV)
  ---------------------------------------------------
  alpha Z        PSCENC =      1808.03780164
  Ewald energy   TEWEN  =    277317.29168750
  -Hartree energ DENC   =   -357633.93421867
[...]
   0.137E+01 -.408E+01 0.334E+04   -.127E+01 0.396E+01 -.334E+04   -.186E-01 0.469E-01 -.235E+01   -.911E-01 0.955E-01 -.471E-01
   -.202E+01 0.479E-02 0.167E+04   0.195E+01 0.145E+00 -.167E+04   0.106E-01 0.145E-01 -.213E+00   0.652E-01 -.149E+00 0.164E-01
   -.383E+00 0.523E+01 0.167E+04   0.397E+00 -.530E+01 -.167E+04   -.806E-02 -.272E-02 -.174E+00   -.356E-02 0.236E-01 0.110E-02
   0.396E+01 0.151E+00 -.170E+04   -.394E+01 -.154E+00 0.170E+04   -.107E-01 -.898E-02 0.144E+01   -.526E-02 0.966E-02 0.128E+00
   0.220E+01 -.459E+00 0.334E+04   -.212E+01 0.448E+00 -.334E+04   -.247E-01 0.207E-01 -.231E+01   -.622E-01 -.159E-01 -.433E-01
   0.310E+01 0.645E-01 0.167E+04   -.314E+01 0.986E-02 -.167E+04   -.126E-01 0.173E-01 -.196E+00   0.170E-01 -.772E-01 -.101E-01
   0.451E+01 -.271E+01 -.130E+02   -.444E+01 0.264E+01 0.131E+02   -.864E-02 0.111E-01 -.277E+00   -.519E-01 0.581E-01 0.118E+00
   0.216E+01 0.330E+01 -.170E+04   -.214E+01 -.329E+01 0.170E+04   -.211E-01 0.273E-02 0.144E+01   0.851E-03 -.162E-01 0.117E+00
   -.112E+00 0.235E+00 -.175E+04   0.246E-02 -.313E+00 0.175E+04   0.883E-01 0.534E-01 0.167E+01   0.313E-01 0.258E-01 0.651E-01
   -.626E+01 -.384E+01 -.170E+04   0.639E+01 0.391E+01 0.170E+04   -.829E-01 -.393E-01 0.144E+01   -.380E-01 -.174E-01 0.154E+00
   0.892E-01 0.317E+01 0.334E+04   -.593E-01 -.307E+01 -.334E+04   -.101E-02 -.382E-01 -.234E+01   -.465E-01 -.640E-01 -.414E-01
   -.165E+01 -.776E+00 0.334E+04   0.160E+01 0.745E+00 -.334E+04   0.138E-02 -.360E-02 -.240E+01   0.641E-01 0.480E-01 -.104E+00
   -.228E+01 0.109E+01 0.334E+04   0.232E+01 -.105E+01 -.334E+04   0.382E-01 -.313E-02 -.236E+01   -.803E-01 -.427E-01 -.777E-01
   -.673E+00 0.166E+01 0.168E+04   0.608E+00 -.160E+01 -.168E+04   0.840E-03 -.156E-01 -.195E+00   0.694E-01 -.476E-01 -.137E-03
   0.294E+01 0.111E+01 -.107E+02   -.298E+01 -.113E+01 0.108E+02   0.208E-01 0.106E-01 -.326E+00   0.108E-01 0.950E-02 0.109E+00
   0.175E+01 -.316E+01 0.167E+04   -.175E+01 0.306E+01 -.167E+04   -.994E-02 0.133E-01 -.202E+00   0.985E-02 0.944E-01 -.145E-02
   0.528E+00 -.112E+01 0.167E+04   -.633E+00 0.118E+01 -.167E+04   -.834E-02 0.689E-02 -.195E+00   0.954E-01 -.401E-01 0.603E-01
   -.139E+01 0.209E+01 -.172E+04   0.143E+01 -.226E+01 0.172E+04   -.425E-01 0.156E+00 0.143E+01   0.511E-02 0.897E-02 0.833E-01
   -.376E+00 0.860E+00 0.334E+04   0.357E+00 -.901E+00 -.334E+04   0.116E-01 -.461E-01 -.244E+01   0.175E-02 0.926E-01 -.539E-01
   0.129E+01 -.295E+00 0.167E+04   -.138E+01 0.237E+00 -.167E+04   -.103E-01 -.898E-02 -.207E+00   0.788E-01 0.580E-01 0.708E-01
   0.984E+00 0.670E+01 -.177E+02   -.980E+00 -.675E+01 0.178E+02   -.119E-01 0.525E-01 -.285E+00   0.179E-02 -.209E-01 0.828E-01
   -.878E-01 -.391E+01 -.173E+04   0.106E+00 0.405E+01 0.173E+04   -.478E-01 -.125E+00 0.147E+01   0.330E-01 -.111E-01 0.119E+00
   -.273E+01 0.109E+01 0.334E+04   0.261E+01 -.103E+01 -.334E+04   0.436E-01 0.129E-01 -.241E+01   0.679E-01 -.718E-01 -.925E-01
   -.194E+01 -.961E+00 -.170E+04   0.197E+01 0.103E+01 0.169E+04   -.245E-01 -.138E-01 0.145E+01   -.322E-02 -.583E-01 0.117E+00
   -.432E+01 0.327E+01 0.334E+04   0.426E+01 -.311E+01 -.334E+04   0.547E-01 -.452E-01 -.241E+01   0.184E-01 -.132E+00 -.488E-01
   0.510E+01 -.227E+01 0.167E+04   -.516E+01 0.231E+01 -.167E+04   -.682E-02 -.723E-02 -.177E+00   0.184E-01 -.102E-01 0.393E-02
   -.227E+01 -.216E+01 0.167E+04   0.241E+01 0.217E+01 -.167E+04   0.564E-02 -.148E-01 -.177E+00   -.108E+00 0.305E-01 0.971E-02
   0.174E+00 -.251E-01 -.170E+04   -.201E+00 0.119E-01 0.170E+04   0.271E-01 0.202E-01 0.144E+01   -.175E-02 -.102E-01 0.126E+00
   0.354E+01 0.200E+01 0.334E+04   -.350E+01 -.196E+01 -.334E+04   -.408E-01 -.204E-01 -.235E+01   0.363E-02 -.118E-01 -.112E-01
   0.738E+00 0.215E+01 0.167E+04   -.703E+00 -.221E+01 -.167E+04   0.749E-02 -.155E-01 -.199E+00   -.496E-01 0.411E-01 -.886E-02
   -.126E+01 -.351E+00 -.273E+02   0.117E+01 0.285E+00 0.274E+02   0.330E-01 0.168E-01 -.375E+00   0.595E-01 0.454E-01 0.177E+00
   -.387E+01 0.793E+00 0.167E+04   0.395E+01 -.672E+00 -.167E+04   -.118E-01 0.645E-02 -.173E+00   -.425E-01 -.118E+00 0.132E-01
   0.340E+01 0.294E+01 0.167E+04   -.340E+01 -.292E+01 -.167E+04   0.102E-01 0.834E-02 -.170E+00   -.399E-01 -.402E-01 -.301E-01
   -.665E+00 -.772E+00 -.127E+02   0.709E+00 0.716E+00 0.128E+02   0.239E-02 -.214E-02 -.290E+00   -.473E-01 0.578E-01 0.629E-01
   0.582E+01 -.794E+00 -.170E+04   -.595E+01 0.810E+00 0.170E+04   0.112E+00 -.460E-01 0.144E+01   0.761E-02 0.361E-01 0.576E-01
   -.316E+01 0.219E+01 -.173E+04   0.330E+01 -.226E+01 0.173E+04   -.140E+00 0.259E-01 0.148E+01   0.280E-02 0.447E-01 0.116E+00
   0.300E+01 -.270E+01 0.334E+04   -.305E+01 0.267E+01 -.334E+04   -.160E-01 0.225E-01 -.241E+01   0.614E-01 0.303E-01 -.558E-01
   -.237E+01 -.244E+01 0.334E+04   0.236E+01 0.231E+01 -.334E+04   0.436E-01 0.369E-01 -.239E+01   -.356E-01 0.106E+00 -.888E-01
   -.196E+01 0.563E+00 0.167E+04   0.196E+01 -.695E+00 -.167E+04   0.391E-02 -.965E-02 -.195E+00   0.706E-02 0.117E+00 0.610E-01
   -.414E+01 -.133E+01 0.167E+04   0.418E+01 0.134E+01 -.167E+04   0.155E-01 0.137E-01 -.190E+00   -.582E-02 0.437E-02 0.634E-01
   -.475E+01 -.205E+01 -.108E+02   0.479E+01 0.207E+01 0.109E+02   0.944E-02 0.714E-02 -.310E+00   -.462E-01 -.356E-01 0.119E+00
   0.113E+01 -.225E+01 -.172E+04   -.126E+01 0.235E+01 0.172E+04   0.113E+00 -.105E+00 0.143E+01   0.110E-01 0.386E-02 0.933E-01
   0.330E+01 0.572E-01 0.334E+04   -.334E+01 -.359E-01 -.334E+04   -.578E-01 0.221E-01 -.243E+01   0.733E-01 -.461E-01 -.577E-01
   0.436E+00 0.352E+00 -.117E+02   -.411E+00 -.332E+00 0.118E+02   0.128E-02 0.612E-02 -.294E+00   -.324E-01 -.316E-01 0.430E-01
   -.187E+01 0.602E+00 -.219E+02   0.180E+01 -.617E+00 0.220E+02   0.222E-01 0.268E-02 -.312E+00   0.482E-01 0.220E-01 0.138E+00
   0.214E+00 -.192E+01 -.232E+02   -.254E+00 0.186E+01 0.233E+02   0.155E-01 0.171E-01 -.315E+00   0.352E-01 0.466E-01 0.142E+00
   -.385E+00 0.504E+00 -.195E+02   0.440E+00 -.548E+00 0.196E+02   -.412E-01 -.114E-01 -.313E+00   -.112E-01 0.584E-01 0.111E+00
   -.274E+00 0.529E+01 -.843E+01   0.267E+00 -.520E+01 0.852E+01   0.626E-02 0.406E-03 -.270E+00   0.632E-02 -.785E-01 0.110E+00
   -.149E+01 -.227E+01 0.167E+04   0.159E+01 0.213E+01 -.167E+04   0.104E-01 0.134E-02 -.228E+00   -.958E-01 0.137E+00 0.143E-01
   -.476E+00 -.577E+00 -.108E+02   0.452E+00 0.650E+00 0.109E+02   -.453E-03 0.103E-01 -.291E+00   0.247E-01 -.827E-01 0.643E-01
   0.226E-01 -.818E+00 -.170E+04   -.301E-01 0.875E+00 0.170E+04   0.184E-05 -.286E-01 0.146E+01   0.863E-02 -.290E-01 0.103E+00
   0.206E+01 0.555E+01 -.170E+04   -.210E+01 -.568E+01 0.170E+04   0.125E-01 0.116E+00 0.144E+01   0.275E-01 -.101E-01 0.507E-01
   0.123E+01 0.150E+01 0.334E+04   -.125E+01 -.137E+01 -.334E+04   -.116E-01 -.409E-01 -.244E+01   0.241E-01 -.976E-01 0.100E-01
   -.866E+00 0.177E+01 0.335E+04   0.816E+00 -.180E+01 -.334E+04   0.113E-01 -.167E-01 -.245E+01   0.404E-01 0.456E-01 -.532E-01
   -.362E+01 -.141E+01 -.213E+02   0.370E+01 0.132E+01 0.214E+02   -.381E-01 0.219E-01 -.304E+00   -.457E-01 0.641E-01 0.145E+00
   0.627E+01 -.192E+01 -.186E+02   -.630E+01 0.195E+01 0.188E+02   0.427E-01 -.303E-01 -.291E+00   -.102E-01 -.206E-02 0.856E-01
   0.465E-01 -.743E+00 0.167E+04   -.261E-01 0.773E+00 -.167E+04   0.445E-03 -.462E-02 -.182E+00   -.163E-01 -.238E-01 -.173E-01
   0.898E+00 -.599E+00 -.177E+02   -.906E+00 0.664E+00 0.178E+02   -.316E-01 -.256E-01 -.314E+00   0.421E-01 -.374E-01 0.114E+00
   -.325E+01 -.170E+01 -.192E+02   0.323E+01 0.180E+01 0.192E+02   -.230E-02 -.377E-01 -.300E+00   0.190E-01 -.680E-01 0.144E+00
   0.248E+01 0.122E+01 -.325E+04   -.249E+01 -.122E+01 0.325E+04   -.729E-02 -.933E-02 0.178E+01   0.111E-01 0.911E-02 0.185E-01
   0.473E+01 0.221E+01 -.325E+04   -.469E+01 -.223E+01 0.324E+04   -.224E-01 0.242E-02 0.181E+01   -.239E-01 -.260E-02 0.413E-01
   0.439E+01 -.700E+01 -.324E+04   -.434E+01 0.699E+01 0.324E+04   -.441E-01 -.160E-01 0.178E+01   -.115E-01 0.144E-01 0.125E-01
   -.566E+01 0.425E+00 -.323E+04   0.582E+01 -.621E+00 0.323E+04   -.199E+00 0.186E+00 0.195E+01   0.312E-01 -.105E-02 0.303E-01
   -.268E+01 -.528E+01 -.323E+04   0.259E+01 0.550E+01 0.323E+04   0.703E-01 -.267E+00 0.195E+01   0.768E-02 0.316E-01 0.265E-01
   -.379E+01 0.722E+01 -.324E+04   0.381E+01 -.718E+01 0.324E+04   -.256E-01 -.417E-01 0.178E+01   0.448E-02 -.173E-01 0.172E-01
   -.266E+01 -.161E+01 -.325E+04   0.265E+01 0.160E+01 0.325E+04   0.575E-01 0.337E-01 0.174E+01   -.125E-01 -.313E-02 0.224E-01
   -.431E+01 -.149E+01 -.325E+04   0.430E+01 0.155E+01 0.324E+04   0.220E-01 -.604E-01 0.181E+01   0.383E-02 -.571E-02 0.229E-01
   -.303E+01 -.279E+01 -.325E+04   0.308E+01 0.275E+01 0.324E+04   -.462E-01 0.358E-01 0.181E+01   -.356E-02 0.662E-02 0.223E-01
   0.413E+01 0.319E+01 -.325E+04   -.411E+01 -.314E+01 0.324E+04   -.104E-01 -.383E-01 0.181E+01   -.209E-01 -.116E-01 0.424E-01
   0.100E+02 -.180E+02 -.325E+04   -.110E+02 0.196E+02 0.325E+04   0.949E+00 -.164E+01 0.179E+01   -.235E-01 0.140E-01 -.218E-02
   -.100E+02 0.179E+02 -.325E+04   0.110E+02 -.195E+02 0.325E+04   -.989E+00 0.165E+01 0.184E+01   -.145E-02 -.181E-01 0.106E-01
   0.538E+01 -.931E+00 -.323E+04   -.560E+01 0.113E+01 0.323E+04   0.255E+00 -.196E+00 0.190E+01   -.998E-02 0.754E-02 0.272E-01
   0.159E+01 0.536E+01 -.323E+04   -.153E+01 -.563E+01 0.323E+04   -.312E-01 0.292E+00 0.189E+01   0.364E-02 -.100E-01 0.327E-01
   0.173E+02 0.104E+02 -.323E+04   -.176E+02 -.106E+02 0.323E+04   0.304E+00 0.174E+00 0.474E+00   -.425E-02 0.577E-02 0.459E-01
   -.184E+02 -.103E+02 -.322E+04   0.187E+02 0.105E+02 0.322E+04   -.269E+00 -.162E+00 0.369E+00   0.194E-01 0.117E-01 0.888E-03
   -.105E+01 -.345E+00 -.379E+03   0.155E+01 0.618E+00 0.381E+03   -.504E+00 -.266E+00 -.174E+01   -.129E-02 -.794E-03 -.657E-03
   0.106E+01 0.701E+00 -.379E+03   -.160E+01 -.102E+01 0.381E+03   0.551E+00 0.318E+00 -.176E+01   0.213E-02 0.919E-03 -.636E-03
 -----------------------------------------------------------------------------------------------
   0.189E-01 -.107E+00 -.330E+01   -.494E-12 -.454E-12 -.551E-11   0.298E-01 0.102E+00 0.152E+00   -.326E-01 0.407E-01 0.324E+01
 
 
 POSITION                                       TOTAL-FORCE (eV/Angst)
 -----------------------------------------------------------------------------------
     12.88201      7.94738      6.83452         0.002394      0.000489     -0.008477
      4.96768      7.94814      6.83377         0.001999      0.001296      0.000003
      3.64679      5.65927      6.83166         0.002630     -0.003770     -0.015739
     12.89392      7.93072      1.11750        -0.006480      0.022529      0.007204
      4.97366      7.93457      1.11960        -0.012058      0.015673     -0.001204
      3.65446      5.64440      1.12118        -0.011852      0.025513     -0.012922
      7.60690      1.84361      3.02604         0.010610      0.015563     -0.013228
      8.92763      8.70465      3.02539         0.002414     -0.051630      0.035474
      2.32345      3.37441      6.83165        -0.001257     -0.003165      0.002852
      2.33374      3.36461      1.12227        -0.005061     -0.007219     -0.010840
     10.24925      1.84531      3.02711        -0.038205      0.014113      0.005403
     12.88856      4.89685      4.94490         0.003216     -0.000666      0.001009
      3.64338      1.08865      6.83115        -0.001561     -0.003617      0.002242
      8.91962      5.66051      6.88759         0.005606     -0.001136      0.028718
      4.95584      3.37005      6.83466         0.007039      0.003262      0.002403
      3.65186      1.08418      1.11988        -0.017641      0.006511     -0.008577
      8.92561      5.65018      1.11709         0.007457      0.013003      0.009078
      4.96698      3.36887      1.12200        -0.000781     -0.009003     -0.017501
     11.56838      8.70382      3.02190         0.004136     -0.010076     -0.015219
     11.56230      7.18290      4.94633        -0.002485     -0.002012      0.010931
     12.88720      6.41517      3.02752        -0.005251      0.014899     -0.027642
      8.92783      4.13014      3.02545        -0.017732      0.023974     -0.008213
      7.60358      7.92596      6.85709         0.003557     -0.007359     -0.003895
      7.60986      7.93873      1.11836        -0.005783      0.005695     -0.012197
     10.24596      6.41680      3.02147        -0.018864     -0.009748      0.012233
      2.32568      0.31795      4.94933        -0.005834     -0.007918     -0.006703
      7.60747      3.39129      6.86448         0.000744      0.010045      0.016362
      7.60757      3.36630      1.11921        -0.001478      0.001527     -0.007108
      6.28211      1.09271      6.83016        -0.000193     -0.000346     -0.014118
      6.28451      1.08554      1.11777         0.017084     -0.012544     -0.002416
     11.56819      4.13151      3.03021        -0.043348      0.027820      0.021512
      3.64648      4.13087      3.03446         0.028036      0.022255     -0.000429
      1.00320      1.08855      6.83356        -0.001758     -0.003673      0.000709
      1.01780      1.08194      1.11999        -0.004100      0.004901      0.008494
      6.28724      8.70551      3.02768        -0.006385     -0.037912      0.005077
      7.61141      4.90078      4.96297        -0.003950     -0.005481      0.005227
      4.96690      1.84646      3.03103         0.031378      0.008469      0.005714
      2.32879      1.84564      3.03209        -0.029524     -0.019290      0.004260
     14.20582      7.18459      4.94820        -0.000517     -0.000373     -0.002960
     11.56236      5.66130      6.83602        -0.011420      0.002361     -0.006546
      6.30059      5.65746      6.86588         0.008632     -0.010415      0.019682
     11.57464      5.64731      1.11818        -0.010181      0.020560     -0.004089
      6.28689      5.64718      1.12036         0.003091      0.013023     -0.009716
      7.60477      6.41802      3.02605         0.015222     -0.024886     -0.006359
      6.28706      4.13029      3.03044         0.051403      0.031462      0.008794
      3.63376      2.60388      4.94190        -0.003181     -0.007046     -0.004407
     10.22418      3.38641      6.85606        -0.000535      0.002407     -0.002831
     10.25662      3.36685      1.11930        -0.018065     -0.003476     -0.013979
     10.24595      0.32558      4.94814        -0.004959     -0.004680     -0.004239
      8.92091      7.17244      4.95655         0.006278      0.013833      0.010651
     10.23294      4.90021      4.95701         0.015127     -0.004135      0.011011
      6.29060      7.17757      4.95443         0.001292      0.004941      0.001046
      4.96649      0.32726      4.94183         0.004993      0.007857      0.003569
      4.96652      6.41710      3.02983         0.015737      0.005130     -0.021627
      7.60542      0.32447      4.94668        -0.000654      0.000632     -0.004947
      8.92508      1.09285      6.83256         0.001451     -0.000231      0.000029
     10.24196      7.94822      6.83544        -0.000810     -0.020112     -0.007329
      8.93363      1.08195      1.11845        -0.010576     -0.006832      0.001070
     10.25000      7.94040      1.11577         0.002606     -0.001461     -0.001934
      4.97496      4.89834      4.95365        -0.003792     -0.006183     -0.006497
     11.55960      2.61384      4.94963        -0.002482     -0.005157     -0.001321
     14.20712      8.70425      3.02508         0.004369      0.001121     -0.027392
      8.92258      2.61813      4.95255         0.003733     -0.001069      0.005077
      6.29107      2.61796      4.95216        -0.006948     -0.002182     -0.004584
     14.20634      8.71679      8.97293        -0.003580     -0.003695     -0.002611
      3.63074      4.13993      8.96886        -0.004258     -0.016993     -0.006294
      6.27747      8.72017      8.97785        -0.005958     -0.009721      0.000827
     11.57664      4.13134      8.96062         0.000530     -0.017534      0.000812
      8.92059      8.73081      8.96106        -0.011691     -0.001439      0.001896
     10.24474      1.84845      8.97787        -0.006034     -0.009971     -0.000757
      2.31381      1.84988      8.97066         0.026257      0.012879     -0.004091
     11.56661      8.72512      8.96849         0.006017     -0.009736      0.000997
     12.89514      6.42589      8.96916        -0.005768     -0.001254     -0.000038
      4.95530      1.84533      8.96840        -0.013605     -0.001159     -0.003539
      7.58053      6.46315      9.10829        -0.006324     -0.018635      0.016251
      8.94209      4.10483      9.10460        -0.018036     -0.001550      0.006664
      4.94457      6.43749      8.96387         0.023474      0.012591     -0.002277
      7.60131      1.83506      8.96255         0.032189      0.004619     -0.000301
      6.23035      4.11071      9.03109         0.021297      0.008226     -0.002348
     10.29490      6.45810      9.02685         0.012478     -0.000973      0.011486
      7.38930      4.79692     10.09096        -0.002009      0.004530      0.016112
      9.13987      5.78765     10.08386         0.008487      0.003757      0.038561
 -----------------------------------------------------------------------------------
    total drift:                                0.016221      0.035386      0.098785


--------------------------------------------------------------------------------------------------------



  FREE ENERGIE OF THE ION-ELECTRON SYSTEM (eV)
  ---------------------------------------------------
  free  energy   TOTEN  =      -461.11721739 eV

  energy  without entropy=     -461.11823517  energy(sigma->0) =     -461.11755665
 
 d Force = 0.1579338E-02[ 0.716E-03, 0.244E-02]  d Energy = 0.1475605E-02 0.104E-03
 d Force = 0.9885918E+01[ 0.987E+01, 0.990E+01]  d Ewald  = 0.9885915E+01 0.333E-05


--------------------------------------------------------------------------------------------------------


    POTLOK:  cpu time    0.4359: real time    0.4369


--------------------------------------------------------------------------------------------------------


 Conjugate gradient step on ions:
 trial-energy change:   -0.001476  1 .order   -0.001579   -0.002442   -0.000716
  (g-gl).g = 0.139E-02      g.g   = 0.179E-02  gl.gl    = 0.310E-02
 g(Force)  = 0.179E-02   g(Stress)= 0.000E+00 ortho     =-0.352E-04
 gamma     =   0.44762
 trial     =   1.37930
 opt step  =   1.95170  (harmonic =   1.95170) maximal distance =0.01099349
 next E    =  -461.117470   (d E  =  -0.00173)


--------------------------------------------------------------------------------------------------------


  
 reached required accuracy - stopping structural energy minimisation
     LOOP+:  cpu time  685.9754: real time  687.8084
    4ORBIT:  cpu time    0.0000: real time    0.0000

 total amount of memory used by VASP MPI-rank0   236115. kBytes
=======================================================================

   base      :      30000. kBytes
   nonlr-proj:      30709. kBytes
   fftplans  :      17962. kBytes
   grid      :      48722. kBytes
   one-center:        653. kBytes
   wavefun   :     108069. kBytes
 
  
  
 General timing and accounting informations for this job:
 ========================================================
  
                  Total CPU time used (sec):    19703.947
                            User time (sec):    19687.191
                          System time (sec):       16.755
                         Elapsed time (sec):    19757.255
  
                   Maximum memory used (kb):     1062536.
                   Average memory used (kb):           0.
  
                          Minor page faults:      4065531
                          Major page faults:            0
                 Voluntary context switches:         5439
