 vasp.5.4.4.18Apr17-6-g9f103f2a35 (build Oct 25 2019 11:13:22) complex          
  
 executed on             LinuxIFC date 2021.11.02  16:38:31
 running on   48 total cores
 distrk:  each k-point on   48 cores,    1 groups
 distr:  one band on NCORES_PER_BAND=   1 cores,   48 groups


--------------------------------------------------------------------------------------------------------


 INCAR:
 POTCAR:    PAW_PBE Pt 04Feb2005                  
 POTCAR:    PAW_PBE Fe 06Sep2000                  
 POTCAR:    PAW_PBE Co 02Aug2007                  
 POTCAR:    PAW_PBE Cu 22Jun2005                  
 POTCAR:    PAW_PBE Ni 02Aug2007                  
 POTCAR:    PAW_PBE H 15Jun2001                   

 ----------------------------------------------------------------------------- 
|                                                                             |
|           W    W    AA    RRRRR   N    N  II  N    N   GGGG   !!!           |
|           W    W   A  A   R    R  NN   N  II  NN   N  G    G  !!!           |
|           W    W  A    A  R    R  N N  N  II  N N  N  G       !!!           |
|           W WW W  AAAAAA  RRRRR   N  N N  II  N  N N  G  GGG   !            |
|           WW  WW  A    A  R   R   N   NN  II  N   NN  G    G                |
|           W    W  A    A  R    R  N    N  II  N    N   GGGG   !!!           |
|                                                                             |
|      For optimal performance we recommend to set                            |
|        NCORE= 4 - approx SQRT( number of cores)                             |
|      NCORE specifies how many cores store one orbital (NPAR=cpu/NCORE).     |
|      This setting can  greatly improve the performance of VASP for DFT.     |
|      The default,   NCORE=1            might be grossly inefficient         |
|      on modern multi-core architectures or massively parallel machines.     |
|      Do your own testing !!!!                                               |
|      Unfortunately you need to use the default for GW and RPA calculations. |
|      (for HF NCORE is supported but not extensively tested yet)             |
|                                                                             |
 ----------------------------------------------------------------------------- 

 POTCAR:    PAW_PBE Pt 04Feb2005                  
   VRHFIN =Pt: s1d9                                                             
   LEXCH  = PE                                                                  
   EATOM  =   729.1176 eV,   53.5886 Ry                                         
                                                                                
   TITEL  = PAW_PBE Pt 04Feb2005                                                
   LULTRA =        F    use ultrasoft PP ?                                      
   IUNSCR =        1    unscreen: 0-lin 1-nonlin 2-no                           
   RPACOR =    2.330    partial core radius                                     
   POMASS =  195.080; ZVAL   =   10.000    mass and valenz                      
   RCORE  =    2.600    outmost cutoff radius                                   
   RWIGS  =    2.750; RWIGS  =    1.455    wigner-seitz radius (au A)           
   ENMAX  =  230.283; ENMIN  =  172.712 eV                                      
   ICORE  =        3    local potential                                         
   LCOR   =        T    correct aug charges                                     
   LPAW   =        T    paw PP                                                  
   EAUG   =  358.966                                                            
   DEXC   =    0.000                                                            
   RMAX   =    2.658    core radius for proj-oper                               
   RAUG   =    1.300    factor for augmentation sphere                          
   RDEP   =    2.761    radius for radial grids                                 
   RDEPT  =    2.203    core radius for aug-charge                              
                                                                                
   Atomic configuration                                                         
   16 entries                                                                   
     n  l   j            E        occ.                                          
     1  0  0.50    -78401.1885   2.0000                                         
     2  0  0.50    -13770.7750   2.0000                                         
     2  1  1.50    -11931.0468   6.0000                                         
     3  0  0.50     -3234.7234   2.0000                                         
     3  1  1.50     -2699.2216   6.0000                                         
     3  2  2.50     -2119.5714  10.0000                                         
     4  0  0.50      -695.1528   2.0000                                         
     4  1  1.50      -519.6034   6.0000                                         
     4  2  2.50      -306.6786  10.0000                                         
     4  3  3.50       -70.1041  14.0000                                         
     5  0  0.50      -101.7747   2.0000                                         
     5  1  1.50       -55.9873   6.0000                                         
     5  2  2.50        -6.1423   9.0000                                         
     6  0  0.50        -5.6573   1.0000                                         
     6  1  1.50        -6.8029   0.0000                                         
     5  3  2.50        -1.3606   0.0000                                         
   Description                                                                  
     l       E           TYP  RCUT    TYP  RCUT                                 
     2     -6.1423404     23  2.500                                             
     2     -7.5029230     23  2.500                                             
     0     -5.6573207     23  2.500                                             
     0      0.7416693     23  2.500                                             
     1     -2.7211652     23  2.600                                             
     1     20.4087390     23  2.600                                             
     3     -1.3605826     23  2.500                                             
  local pseudopotential read in
  partial core-charges read in
  partial kinetic energy density read in
  atomic valenz-charges read in
  non local Contribution for L=           2  read in
    real space projection operators read in
  non local Contribution for L=           2  read in
    real space projection operators read in
  non local Contribution for L=           0  read in
    real space projection operators read in
  non local Contribution for L=           0  read in
    real space projection operators read in
  non local Contribution for L=           1  read in
    real space projection operators read in
  non local Contribution for L=           1  read in
    real space projection operators read in
    PAW grid and wavefunctions read in
 
   number of l-projection  operators is LMAX  =           6
   number of lm-projection operators is LMMAX =          18
 
 POTCAR:    PAW_PBE Fe 06Sep2000                  
   VRHFIN =Fe:  d7 s1                                                           
   LEXCH  = PE                                                                  
   EATOM  =   594.3153 eV,   43.6809 Ry                                         
                                                                                
   TITEL  = PAW_PBE Fe 06Sep2000                                                
   LULTRA =        F    use ultrasoft PP ?                                      
   IUNSCR =        1    unscreen: 0-lin 1-nonlin 2-no                           
   RPACOR =    2.000    partial core radius                                     
   POMASS =   55.847; ZVAL   =    8.000    mass and valenz                      
   RCORE  =    2.300    outmost cutoff radius                                   
   RWIGS  =    2.460; RWIGS  =    1.302    wigner-seitz radius (au A)           
   ENMAX  =  267.882; ENMIN  =  200.911 eV                                      
   RCLOC  =    1.701    cutoff for local pot                                    
   LCOR   =        T    correct aug charges                                     
   LPAW   =        T    paw PP                                                  
   EAUG   =  511.368                                                            
   DEXC   =    0.000                                                            
   RMAX   =    2.356    core radius for proj-oper                               
   RAUG   =    1.300    factor for augmentation sphere                          
   RDEP   =    2.442    radius for radial grids                                 
   RDEPT  =    1.890    core radius for aug-charge                              
                                                                                
   Atomic configuration                                                         
    9 entries                                                                   
     n  l   j            E        occ.                                          
     1  0  0.50     -6993.8440   2.0000                                         
     2  0  0.50      -814.6047   2.0000                                         
     2  1  1.50      -693.3689   6.0000                                         
     3  0  0.50       -89.4732   2.0000                                         
     3  1  1.50       -55.6373   6.0000                                         
     3  2  2.50        -3.8151   7.0000                                         
     4  0  0.50        -4.2551   1.0000                                         
     4  1  1.50        -3.4015   0.0000                                         
     4  3  2.50        -1.3606   0.0000                                         
   Description                                                                  
     l       E           TYP  RCUT    TYP  RCUT                                 
     2     -3.8151135     23  2.300                                             
     2     -5.1756961     23  2.300                                             
     0     -4.2550963     23  2.300                                             
     0      7.2035603     23  2.300                                             
     1     -2.7211652     23  2.300                                             
     1     18.4316424     23  2.300                                             
  local pseudopotential read in
  partial core-charges read in
  partial kinetic energy density read in
  atomic valenz-charges read in
  non local Contribution for L=           2  read in
    real space projection operators read in
  non local Contribution for L=           2  read in
    real space projection operators read in
  non local Contribution for L=           0  read in
    real space projection operators read in
  non local Contribution for L=           0  read in
    real space projection operators read in
  non local Contribution for L=           1  read in
    real space projection operators read in
  non local Contribution for L=           1  read in
    real space projection operators read in
    PAW grid and wavefunctions read in
 
   number of l-projection  operators is LMAX  =           6
   number of lm-projection operators is LMMAX =          18
 
 POTCAR:    PAW_PBE Co 02Aug2007                  
   VRHFIN =Co: d8 s1                                                            
   LEXCH  = PE                                                                  
   EATOM  =   813.3670 eV,   59.7808 Ry                                         
                                                                                
   TITEL  = PAW_PBE Co 02Aug2007                                                
   LULTRA =        F    use ultrasoft PP ?                                      
   IUNSCR =        1    unscreen: 0-lin 1-nonlin 2-no                           
   RPACOR =    2.000    partial core radius                                     
   POMASS =   58.933; ZVAL   =    9.000    mass and valenz                      
   RCORE  =    2.300    outmost cutoff radius                                   
   RWIGS  =    2.460; RWIGS  =    1.302    wigner-seitz radius (au A)           
   ENMAX  =  267.968; ENMIN  =  200.976 eV                                      
   RCLOC  =    1.203    cutoff for local pot                                    
   LCOR   =        T    correct aug charges                                     
   LPAW   =        T    paw PP                                                  
   EAUG   =  477.818                                                            
   DEXC   =    0.000                                                            
   RMAX   =    2.360    core radius for proj-oper                               
   RAUG   =    1.300    factor for augmentation sphere                          
   RDEP   =    2.393    radius for radial grids                                 
   RDEPT  =    1.864    core radius for aug-charge                              
                                                                                
   Atomic configuration                                                         
    9 entries                                                                   
     n  l   j            E        occ.                                          
     1  0  0.50     -7587.6674   2.0000                                         
     2  0  0.50      -893.6084   2.0000                                         
     2  1  1.50      -764.5805   6.0000                                         
     3  0  0.50       -97.5973   2.0000                                         
     3  1  1.50       -60.9648   6.0000                                         
     3  2  2.50        -4.2382   8.0000                                         
     4  0  0.50        -4.3746   1.0000                                         
     4  1  1.50        -4.0817   0.0000                                         
     4  3  2.50        -1.3606   0.0000                                         
   Description                                                                  
     l       E           TYP  RCUT    TYP  RCUT                                 
     2     -4.2382362     23  2.300                                             
     2     -5.5988188     23  2.300                                             
     0     -4.3745797     23  2.300                                             
     0      5.7660125     23  2.300                                             
     1     -2.7211652     23  2.300                                             
     1     16.9860234     23  2.300                                             
  local pseudopotential read in
  partial core-charges read in
  partial kinetic energy density read in
  atomic valenz-charges read in
  non local Contribution for L=           2  read in
    real space projection operators read in
  non local Contribution for L=           2  read in
    real space projection operators read in
  non local Contribution for L=           0  read in
    real space projection operators read in
  non local Contribution for L=           0  read in
    real space projection operators read in
  non local Contribution for L=           1  read in
    real space projection operators read in
  non local Contribution for L=           1  read in
    real space projection operators read in
    PAW grid and wavefunctions read in
 
   number of l-projection  operators is LMAX  =           6
   number of lm-projection operators is LMMAX =          18
 
 POTCAR:    PAW_PBE Cu 22Jun2005                  
   VRHFIN =Cu: d10 p1                                                           
   LEXCH  = PE                                                                  
   EATOM  =  1390.9808 eV,  102.2342 Ry                                         
                                                                                
   TITEL  = PAW_PBE Cu 22Jun2005                                                
   LULTRA =        F    use ultrasoft PP ?                                      
   IUNSCR =        1    unscreen: 0-lin 1-nonlin 2-no                           
   RPACOR =    2.000    partial core radius                                     
   POMASS =   63.546; ZVAL   =   11.000    mass and valenz                      
   RCORE  =    2.300    outmost cutoff radius                                   
   RWIGS  =    2.200; RWIGS  =    1.164    wigner-seitz radius (au A)           
   ENMAX  =  295.446; ENMIN  =  221.585 eV                                      
   ICORE  =        3    local potential                                         
   LCOR   =        T    correct aug charges                                     
   LPAW   =        T    paw PP                                                  
   EAUG   =  586.980                                                            
   DEXC   =    0.000                                                            
   RMAX   =    2.344    core radius for proj-oper                               
   RAUG   =    1.300    factor for augmentation sphere                          
   RDEP   =    2.302    radius for radial grids                                 
   RDEPT  =    1.771    core radius for aug-charge                              
                                                                                
   Atomic configuration                                                         
    9 entries                                                                   
     n  l   j            E        occ.                                          
     1  0  0.50     -8850.2468   2.0000                                         
     2  0  0.50     -1062.3498   2.0000                                         
     2  1  1.50      -916.8226   6.0000                                         
     3  0  0.50      -114.6929   2.0000                                         
     3  1  1.50       -72.1325   6.0000                                         
     3  2  2.50        -5.0394  10.0000                                         
     4  0  0.50        -4.6097   1.0000                                         
     4  1  0.50        -4.0817   0.0000                                         
     4  3  2.50        -1.3606   0.0000                                         
   Description                                                                  
     l       E           TYP  RCUT    TYP  RCUT                                 
     2     -5.0393973     23  2.200                                             
     2     10.8846608     23  2.200                                             
     0     -4.6097109     23  2.200                                             
     0      8.2520465     23  2.200                                             
     1     -2.7211652     23  2.200                                             
     1     21.7055443     23  2.200                                             
     3      2.7211652     23  2.300                                             
  local pseudopotential read in
  partial core-charges read in
  partial kinetic energy density read in
  atomic valenz-charges read in
  non local Contribution for L=           2  read in
    real space projection operators read in
  non local Contribution for L=           2  read in
    real space projection operators read in
  non local Contribution for L=           0  read in
    real space projection operators read in
  non local Contribution for L=           0  read in
    real space projection operators read in
  non local Contribution for L=           1  read in
    real space projection operators read in
  non local Contribution for L=           1  read in
    real space projection operators read in
    PAW grid and wavefunctions read in
 
   number of l-projection  operators is LMAX  =           6
   number of lm-projection operators is LMMAX =          18
 
 POTCAR:    PAW_PBE Ni 02Aug2007                  
   VRHFIN =Ni:                                                                  
   LEXCH  = PE                                                                  
   EATOM  =  1077.6739 eV,   79.2068 Ry                                         
                                                                                
   TITEL  = PAW_PBE Ni 02Aug2007                                                
   LULTRA =        F    use ultrasoft PP ?                                      
   IUNSCR =        1    unscreen: 0-lin 1-nonlin 2-no                           
   RPACOR =    2.000    partial core radius                                     
   POMASS =   58.690; ZVAL   =   10.000    mass and valenz                      
   RCORE  =    2.300    outmost cutoff radius                                   
   RWIGS  =    2.430; RWIGS  =    1.286    wigner-seitz radius (au A)           
   ENMAX  =  269.532; ENMIN  =  202.149 eV                                      
   RCLOC  =    1.201    cutoff for local pot                                    
   LCOR   =        T    correct aug charges                                     
   LPAW   =        T    paw PP                                                  
   EAUG   =  544.565                                                            
   DEXC   =    0.000                                                            
   RMAX   =    2.357    core radius for proj-oper                               
   RAUG   =    1.300    factor for augmentation sphere                          
   RDEP   =    2.390    radius for radial grids                                 
   RDEPT  =    1.838    core radius for aug-charge                              
                                                                                
   Atomic configuration                                                         
    9 entries                                                                   
     n  l   j            E        occ.                                          
     1  0  0.50     -8206.4253   2.0000                                         
     2  0  0.50      -976.1748   2.0000                                         
     2  1  1.50      -839.0571   6.0000                                         
     3  0  0.50      -105.9991   2.0000                                         
     3  1  1.50       -66.4603   6.0000                                         
     3  2  2.50        -4.6458   9.0000                                         
     4  0  0.50        -4.4926   1.0000                                         
     4  1  1.50        -4.0817   0.0000                                         
     4  3  2.50        -1.3606   0.0000                                         
   Description                                                                  
     l       E           TYP  RCUT    TYP  RCUT                                 
     2     -4.6457903     23  2.300                                             
     2     -6.0063729     23  2.300                                             
     0     -4.4925590     23  2.300                                             
     0      5.0102601     23  2.300                                             
     1     -2.7211652     23  2.300                                             
     1     16.5183231     23  2.300                                             
  local pseudopotential read in
  partial core-charges read in
  partial kinetic energy density read in
  atomic valenz-charges read in
  non local Contribution for L=           2  read in
    real space projection operators read in
  non local Contribution for L=           2  read in
    real space projection operators read in
  non local Contribution for L=           0  read in
    real space projection operators read in
  non local Contribution for L=           0  read in
    real space projection operators read in
  non local Contribution for L=           1  read in
    real space projection operators read in
  non local Contribution for L=           1  read in
    real space projection operators read in
    PAW grid and wavefunctions read in
 
   number of l-projection  operators is LMAX  =           6
   number of lm-projection operators is LMMAX =          18
 
 POTCAR:    PAW_PBE H 15Jun2001                   
   VRHFIN =H: ultrasoft test                                                    
   LEXCH  = PE                                                                  
   EATOM  =    12.4884 eV,    0.9179 Ry                                         
                                                                                
   TITEL  = PAW_PBE H 15Jun2001                                                 
   LULTRA =        F    use ultrasoft PP ?                                      
   IUNSCR =        0    unscreen: 0-lin 1-nonlin 2-no                           
   RPACOR =    0.000    partial core radius                                     
   POMASS =    1.000; ZVAL   =    1.000    mass and valenz                      
   RCORE  =    1.100    outmost cutoff radius                                   
   RWIGS  =    0.700; RWIGS  =    0.370    wigner-seitz radius (au A)           
   ENMAX  =  250.000; ENMIN  =  200.000 eV                                      
   RCLOC  =    0.701    cutoff for local pot                                    
   LCOR   =        T    correct aug charges                                     
   LPAW   =        T    paw PP                                                  
   EAUG   =  400.000                                                            
   RMAX   =    1.123    core radius for proj-oper                               
   RAUG   =    1.200    factor for augmentation sphere                          
   RDEP   =    1.112    radius for radial grids                                 
   RDEPT  =    0.926    core radius for aug-charge                              
                                                                                
   Atomic configuration                                                         
    2 entries                                                                   
     n  l   j            E        occ.                                          
     1  0  0.50        -6.4927   1.0000                                         
     2  1  0.50        -3.4015   0.0000                                         
   Description                                                                  
     l       E           TYP  RCUT    TYP  RCUT                                 
     0     -6.4927494     23  1.100                                             
     0      6.8029130     23  1.100                                             
     1     -4.0817478     23  1.100                                             
  local pseudopotential read in
  atomic valenz-charges read in
  non local Contribution for L=           0  read in
    real space projection operators read in
  non local Contribution for L=           0  read in
    real space projection operators read in
  non local Contribution for L=           1  read in
    real space projection operators read in
    PAW grid and wavefunctions read in
 
   number of l-projection  operators is LMAX  =           3
   number of lm-projection operators is LMMAX =           5
 
 Optimization of the real space projectors (new method)

 maximal supplied QI-value         = 14.36
 optimisation between [QCUT,QGAM] = [ 11.92, 23.98] = [ 39.79,161.09] Ry 
 Optimized for a Real-space Cutoff    1.49 Angstroem

   l    n(q)    QCUT    max X(q) W(low)/X(q) W(high)/X(q)  e(spline) 
   2     10    11.920    66.195    0.79E-04    0.18E-03    0.24E-06
   2     10    11.920    64.643    0.81E-04    0.19E-03    0.24E-06
   0     11    11.920    95.520    0.28E-04    0.54E-04    0.18E-06
   0     11    11.920    63.403    0.27E-04    0.52E-04    0.17E-06
   1     10    11.920    19.961    0.18E-04    0.11E-03    0.23E-06
   1     10    11.920    13.289    0.25E-04    0.87E-04    0.19E-06
 Optimization of the real space projectors (new method)

 maximal supplied QI-value         = 16.25
 optimisation between [QCUT,QGAM] = [ 11.86, 23.89] = [ 39.41,159.82] Ry 
 Optimized for a Real-space Cutoff    1.49 Angstroem

   l    n(q)    QCUT    max X(q) W(low)/X(q) W(high)/X(q)  e(spline) 
   2     10    11.864    80.901    0.13E-03    0.23E-03    0.37E-06
   2     10    11.864    75.754    0.13E-03    0.23E-03    0.38E-06
   0     11    11.864    58.752    0.44E-04    0.11E-04    0.20E-06
   0     11    11.864    30.679    0.36E-04    0.10E-04    0.18E-06
   1     10    11.864    17.977    0.31E-04    0.45E-04    0.10E-06
   1     10    11.864    13.559    0.25E-04    0.37E-04    0.89E-07
 Optimization of the real space projectors (new method)

 maximal supplied QI-value         = 16.25
 optimisation between [QCUT,QGAM] = [ 11.86, 23.89] = [ 39.41,159.82] Ry 
 Optimized for a Real-space Cutoff    1.33 Angstroem

   l    n(q)    QCUT    max X(q) W(low)/X(q) W(high)/X(q)  e(spline) 
   2      9    11.864    65.824    0.22E-03    0.53E-03    0.26E-06
   2      9    11.864    61.429    0.22E-03    0.53E-03    0.26E-06
   0      9    11.864    56.174    0.21E-03    0.32E-04    0.15E-06
   0      9    11.864    31.263    0.19E-03    0.30E-04    0.14E-06
   1      9    11.864    19.828    0.63E-04    0.30E-03    0.16E-06
   1      9    11.864    15.139    0.49E-04    0.25E-03    0.13E-06
 Optimization of the real space projectors (new method)

 maximal supplied QI-value         = 16.25
 optimisation between [QCUT,QGAM] = [ 11.86, 23.89] = [ 39.41,159.82] Ry 
 Optimized for a Real-space Cutoff    1.49 Angstroem

   l    n(q)    QCUT    max X(q) W(low)/X(q) W(high)/X(q)  e(spline) 
   2     10    11.864     4.610    0.10E-03    0.20E-03    0.29E-06
   2     10    11.864     8.522    0.17E-03    0.33E-03    0.50E-06
   0     11    11.864    51.609    0.52E-04    0.55E-04    0.33E-06
   0     11    11.864    27.747    0.46E-04    0.52E-04    0.31E-06
   1     10    11.864    20.408    0.54E-04    0.25E-04    0.21E-06
   1     10    11.864    13.425    0.48E-04    0.22E-04    0.18E-06
 Optimization of the real space projectors (new method)

 maximal supplied QI-value         = 16.25
 optimisation between [QCUT,QGAM] = [ 11.86, 23.89] = [ 39.41,159.82] Ry 
 Optimized for a Real-space Cutoff    1.33 Angstroem

   l    n(q)    QCUT    max X(q) W(low)/X(q) W(high)/X(q)  e(spline) 
   2      9    11.864    60.317    0.21E-03    0.51E-03    0.25E-06
   2      9    11.864    55.921    0.21E-03    0.51E-03    0.26E-06
   0      9    11.864    51.690    0.22E-03    0.30E-04    0.17E-06
   0      9    11.864    30.015    0.20E-03    0.28E-04    0.15E-06
   1      9    11.864    18.849    0.76E-04    0.33E-03    0.17E-06
   1      9    11.864    14.624    0.60E-04    0.28E-03    0.15E-06
 Optimization of the real space projectors (new method)

 maximal supplied QI-value         = 34.20
 optimisation between [QCUT,QGAM] = [ 11.97, 23.94] = [ 40.13,160.53] Ry 
 Optimized for a Real-space Cutoff    1.18 Angstroem

   l    n(q)    QCUT    max X(q) W(low)/X(q) W(high)/X(q)  e(spline) 
   0      8    11.971    19.460    0.15E-03    0.31E-03    0.25E-06
   0      8    11.971    12.209    0.13E-03    0.29E-03    0.25E-06
   1      8    11.971     4.655    0.22E-03    0.24E-03    0.21E-06
  PAW_PBE Pt 04Feb2005                  :
 energy of atom  1       EATOM= -729.1176
 kinetic energy error for atom=    0.0021 (will be added to EATOM!!)
  PAW_PBE Fe 06Sep2000                  :
 energy of atom  2       EATOM= -594.3153
 kinetic energy error for atom=    0.0024 (will be added to EATOM!!)
  PAW_PBE Co 02Aug2007                  :
 energy of atom  3       EATOM= -813.3670
 kinetic energy error for atom=    0.0026 (will be added to EATOM!!)
  PAW_PBE Cu 22Jun2005                  :
 energy of atom  4       EATOM=-1390.9808
 kinetic energy error for atom=    0.0036 (will be added to EATOM!!)
  PAW_PBE Ni 02Aug2007                  :
 energy of atom  5       EATOM=-1077.6739
 kinetic energy error for atom=    0.0027 (will be added to EATOM!!)
  PAW_PBE H 15Jun2001                   :
 energy of atom  6       EATOM=  -12.4884
 kinetic energy error for atom=    0.0008 (will be added to EATOM!!)
 
 
 POSCAR: 10.56                                   
  positions in cartesian coordinates
  No initial velocities read in
 exchange correlation table for  LEXCH =        8
   RHO(1)=    0.500       N(1)  =     2000
   RHO(2)=  100.500       N(2)  =     4000
 


--------------------------------------------------------------------------------------------------------


 ion  position               nearest neighbor table
   1  0.786  0.879  0.317-  49 2.62  28 2.62  19 2.63  59 2.64  61 2.65  33 2.66  29 2.67  60 2.69
                             2 2.72  11 2.78   4 2.79  12 2.87
   2  0.042  0.883  0.316-  79 2.54  77 2.59  60 2.63  28 2.65  30 2.65  52 2.66  33 2.68  22 2.69
                             1 2.72   6 2.76   4 2.81  16 2.91
   3  0.279  0.381  0.320-  39 2.56  64 2.57  33 2.59  31 2.63  19 2.70  43 2.70  30 2.71  68 2.72
                             5 2.80  13 2.80  18 2.82  25 2.83
   4  0.876  0.960  0.423-  16 2.62  12 2.64   6 2.64  11 2.65   9 2.65  17 2.65  60 2.79   1 2.79
                             2 2.81
   5  0.122  0.462  0.429-   7 2.62  12 2.63  10 2.64  16 2.64  25 2.64  13 2.67  33 2.74  39 2.75
                             3 2.80
   6  0.126  0.961  0.421-   9 2.63   8 2.63  14 2.63  16 2.64   4 2.64  10 2.65   2 2.76  52 2.77
                            22 2.86
   7  0.875  0.461  0.426-   5 2.62  12 2.63  15 2.64  10 2.64   9 2.64  27 2.66  39 2.67  75 2.75
                            29 2.78
   8  0.375  0.960  0.420-  43 2.60  14 2.62  27 2.63   6 2.63  13 2.63  10 2.64  11 2.64  52 2.69
                            61 2.72
   9  0.878  0.210  0.424-  81 1.81   6 2.63  10 2.63   7 2.64   4 2.65  15 2.69  17 2.69  75 2.74
                            60 2.77  22 2.84
  10  0.126  0.211  0.422-  13 2.61   9 2.63   5 2.64   8 2.64   7 2.64   6 2.65  39 2.67  43 2.72
                            22 2.78
  11  0.625  0.960  0.424-  17 2.62  12 2.63  27 2.63  13 2.64   8 2.64   4 2.65   1 2.78  19 2.83
                            61 2.84
  12  0.874  0.711  0.427-   5 2.63  11 2.63   7 2.63   4 2.64  16 2.64  27 2.65  33 2.70  29 2.84
                             1 2.87
  13  0.374  0.210  0.425-  10 2.61  17 2.63   8 2.63  11 2.64  25 2.66   5 2.67  43 2.76   3 2.80
                            19 2.82
  14  0.375  0.712  0.424-  27 2.61   8 2.62  15 2.62   6 2.63  25 2.65  16 2.66  44 2.70  30 2.77
                            52 2.78
  15  0.624  0.465  0.425-  81 1.95  27 2.60  14 2.62   7 2.64  25 2.67   9 2.69  17 2.70  44 2.72
                            75 2.76  18 2.79
  16  0.124  0.711  0.427-  25 2.62   4 2.62   5 2.64   6 2.64  12 2.64  14 2.66  33 2.68  30 2.84
                             2 2.91
  17  0.623  0.209  0.425-  81 1.81  11 2.62  13 2.63   4 2.65  25 2.67   9 2.69  15 2.70  18 2.81
                            60 2.82  19 2.87
  18  0.549  0.376  0.318-  67 2.57  60 2.58  75 2.59  44 2.64  68 2.67  26 2.67  30 2.71  19 2.72
                            15 2.79  17 2.81   3 2.82  25 2.88
  19  0.535  0.126  0.316-  43 2.57  80 2.57  68 2.58  59 2.61   1 2.63  61 2.64   3 2.70  18 2.72
                            60 2.75  13 2.82  11 2.83  17 2.87
  20  0.547  0.124  0.040-  37 2.55  57 2.56  48 2.58  62 2.64  63 2.68  47 2.68  45 2.68  56 2.70
                            34 2.71
  21  0.121  0.460  0.128-  40 2.52  36 2.53  47 2.53  42 2.60  69 2.61  64 2.62  70 2.64  50 2.64
                            58 2.67  31 2.70  57 2.71  74 2.72
  22  0.042  0.138  0.314-  65 2.51  55 2.54  39 2.58  77 2.58  43 2.59  75 2.60  60 2.67   2 2.69
                            52 2.73  10 2.78   9 2.84   6 2.86  31 3.40
  23  0.042  0.130  0.033-  70 2.58  40 2.60  41 2.61  45 2.62  62 2.64  76 2.64  24 2.69  35 2.73
                            53 2.78
  24  0.130  0.958  0.132-  79 2.51  77 2.54  35 2.57  53 2.57  55 2.58  70 2.62  38 2.64  58 2.64
                            73 2.65  23 2.69  66 2.70  41 2.72
  25  0.372  0.463  0.426-  16 2.62   5 2.64  14 2.65  13 2.66  17 2.67  15 2.67  30 2.82   3 2.83
                            18 2.88
  26  0.455  0.546  0.219-  73 2.50  74 2.54  51 2.56  79 2.61  64 2.63  30 2.64  68 2.67  18 2.67
                            78 2.67  32 2.68  67 2.72  44 2.75
  27  0.623  0.712  0.424-  15 2.60  14 2.61   8 2.63  11 2.63  12 2.65   7 2.66  44 2.69  61 2.78
                            29 2.79
  28  0.956  0.790  0.221-  58 2.57  66 2.57  50 2.58  42 2.59  49 2.61   1 2.62  64 2.63   2 2.65
                            59 2.70  33 2.73  79 2.76  77 2.77
  29  0.794  0.623  0.319-  39 2.54  42 2.55  75 2.58  32 2.61  44 2.64  33 2.65   1 2.67  61 2.68
                            49 2.68   7 2.78  27 2.79  12 2.84
  30  0.292  0.631  0.318-  79 2.56  64 2.61  52 2.62  44 2.62  26 2.64   2 2.65  33 2.66  18 2.71
                             3 2.71  14 2.77  25 2.82  16 2.84
  31  0.203  0.281  0.225-  70 2.52  55 2.56  65 2.57  43 2.59  57 2.60   3 2.63  39 2.67  80 2.70
                            21 2.70  42 2.71  68 2.75  64 2.79  22 3.40
  32  0.706  0.549  0.221-  54 2.53  69 2.56  51 2.58  49 2.59  42 2.60  29 2.61  78 2.62  65 2.63
                            26 2.68  44 2.70  67 2.70  75 2.70
  33  0.040  0.631  0.326-   3 2.59  39 2.63  29 2.65   1 2.66  30 2.66  16 2.68   2 2.68  12 2.70
                            64 2.70  28 2.73  42 2.73   5 2.74
  34  0.797  0.862  0.042-  50 2.38  66 2.51  48 2.53  36 2.55  71 2.56  63 2.61  20 2.71  35 2.76
                            62 2.76
  35  0.056  0.866  0.038-  58 2.54  72 2.55  36 2.56  24 2.57  66 2.62  53 2.65  23 2.73  62 2.73
                            34 2.76
  36  0.046  0.628  0.037-  21 2.53  34 2.55  35 2.56  58 2.58  50 2.61  47 2.63  72 2.64  40 2.69
                            71 2.72
  37  0.627  0.222  0.129-  51 2.51  74 2.51  67 2.52  56 2.53  41 2.55  20 2.55  68 2.56  59 2.56
                            62 2.59  66 2.66  57 2.73  48 2.89
  38  0.382  0.955  0.130-  53 2.47  80 2.48  45 2.49  78 2.53  48 2.54  73 2.55  63 2.55  54 2.56
                            55 2.59  57 2.62  24 2.64  70 2.67
  39  0.036  0.384  0.324-  29 2.54   3 2.56  22 2.58  75 2.59  33 2.63  42 2.66  31 2.67  10 2.67
                             7 2.67   5 2.75  65 2.76  43 2.79
  40  0.031  0.382  0.038-  69 2.44  21 2.52  71 2.53  76 2.56  70 2.57  23 2.60  36 2.69  45 2.78
                            47 2.78
  41  0.872  0.215  0.128-  76 2.45  65 2.52  77 2.53  67 2.54  37 2.55  69 2.57  62 2.57  51 2.59
                            23 2.61  70 2.65  66 2.66  24 2.72
  42  0.955  0.545  0.224-  29 2.55  50 2.56  28 2.59  21 2.60  32 2.60  69 2.61  49 2.63  65 2.64
                            64 2.65  39 2.66  31 2.71  33 2.73
  43  0.296  0.117  0.321-  52 2.54  55 2.54  61 2.56  19 2.57  22 2.59  31 2.59   8 2.60  80 2.66
                             3 2.70  10 2.72  13 2.76  39 2.79
  44  0.540  0.630  0.322-  61 2.56  52 2.58  30 2.62  78 2.63  29 2.64  18 2.64  75 2.66  27 2.69
                            32 2.70  14 2.70  15 2.72  26 2.75
  45  0.295  0.119  0.039-  70 2.49  38 2.49  57 2.57  53 2.60  23 2.62  63 2.64  20 2.68  47 2.75
                            40 2.78
  46  0.548  0.625  0.044-  51 2.38  73 2.39  54 2.41  71 2.56  53 2.56  63 2.58  76 2.59  56 2.62
                            72 2.64
  47  0.296  0.379  0.039-  74 2.41  21 2.53  57 2.61  72 2.61  56 2.62  36 2.63  20 2.68  45 2.75
                            40 2.78
  48  0.625  0.950  0.132-  49 2.40  80 2.48  54 2.48  34 2.53  38 2.54  59 2.55  50 2.56  63 2.57
                            20 2.58  57 2.65  66 2.68  37 2.89
  49  0.706  0.794  0.220-  48 2.40  50 2.48  54 2.49  80 2.53  32 2.59  28 2.61  78 2.61   1 2.62
                            61 2.63  42 2.63  29 2.68  59 2.69
  50  0.866  0.706  0.129-  34 2.38  71 2.42  54 2.48  49 2.48  42 2.56  48 2.56  69 2.58  28 2.58
                            36 2.61  21 2.64  66 2.76  58 2.85
  51  0.626  0.460  0.127-  46 2.38  76 2.45  37 2.51  56 2.52  26 2.56  32 2.58  41 2.59  73 2.60
                            69 2.62  74 2.62  67 2.63  54 2.69
  52  0.297  0.876  0.318-  55 2.43  78 2.52  61 2.53  79 2.53  43 2.54  44 2.58  30 2.62   2 2.66
                             8 2.69  22 2.73   6 2.77  14 2.78
  53  0.306  0.868  0.040-  73 2.42  38 2.47  63 2.55  46 2.56  24 2.57  45 2.60  72 2.61  35 2.65
                            23 2.78
  54  0.627  0.715  0.128-  46 2.41  71 2.46  50 2.48  48 2.48  63 2.48  49 2.49  32 2.53  38 2.56
                            73 2.56  78 2.62  69 2.68  51 2.69
  55  0.224  0.028  0.227-  52 2.43  78 2.45  79 2.49  80 2.53  43 2.54  22 2.54  31 2.56  24 2.58
                            38 2.59  77 2.72  70 2.72  65 2.86
  56  0.543  0.381  0.035-  74 2.50  51 2.52  37 2.53  72 2.59  76 2.60  46 2.62  47 2.62  20 2.70
                            62 2.70
  57  0.378  0.205  0.133-  68 2.46  80 2.54  20 2.56  45 2.57  31 2.60  47 2.61  38 2.62  74 2.62
                            70 2.64  48 2.65  21 2.71  37 2.73
  58  0.136  0.705  0.132-  72 2.47  64 2.52  35 2.54  79 2.57  28 2.57  36 2.58  74 2.64  24 2.64
                            73 2.67  21 2.67  66 2.76  50 2.85
  59  0.705  0.050  0.220-  66 2.52  48 2.55  37 2.56  68 2.58  67 2.58  19 2.61  60 2.64   1 2.64
                            77 2.66  80 2.67  49 2.69  28 2.70
  60  0.792  0.131  0.318-  67 2.54  18 2.58  77 2.59  75 2.63   2 2.63  59 2.64  22 2.67   1 2.69
                            19 2.75   9 2.77   4 2.79  17 2.82
  61  0.538  0.874  0.317-  78 2.49  80 2.53  52 2.53  43 2.56  44 2.56  49 2.63  19 2.64   1 2.65
                            29 2.68   8 2.72  27 2.78  11 2.84
  62  0.797  0.123  0.035-  66 2.54  41 2.57  37 2.59  23 2.64  20 2.64  76 2.66  56 2.70  35 2.73
                            34 2.76
  63  0.546  0.870  0.036-  54 2.48  53 2.55  38 2.55  48 2.57  46 2.58  34 2.61  71 2.61  45 2.64
                            20 2.68
  64  0.207  0.543  0.224-  58 2.52   3 2.57  30 2.61  21 2.62  26 2.63  28 2.63  68 2.65  42 2.65
                            74 2.68  33 2.70  79 2.72  31 2.79
  65  0.952  0.297  0.221-  22 2.51  41 2.52  69 2.52  67 2.54  77 2.55  31 2.57  70 2.60  32 2.63
                            75 2.64  42 2.64  39 2.76  55 2.86
  66  0.872  0.964  0.129-  34 2.51  59 2.52  62 2.54  28 2.57  77 2.58  35 2.62  37 2.66  41 2.66
                            48 2.68  24 2.70  50 2.76  58 2.76
  67  0.714  0.290  0.223-  37 2.52  77 2.53  60 2.54  65 2.54  41 2.54  18 2.57  59 2.58  51 2.63
                            75 2.64  32 2.70  68 2.70  26 2.72
  68  0.458  0.291  0.221-  57 2.46  74 2.54  37 2.56  19 2.58  59 2.58  64 2.65  26 2.67  18 2.67
                            67 2.70   3 2.72  80 2.73  31 2.75
  69  0.876  0.457  0.128-  40 2.44  71 2.45  76 2.46  65 2.52  32 2.56  41 2.57  50 2.58  21 2.61
                            42 2.61  51 2.62  70 2.65  54 2.68
  70  0.128  0.207  0.129-  45 2.49  31 2.52  40 2.57  23 2.58  65 2.60  24 2.62  57 2.64  21 2.64
                            69 2.65  41 2.65  38 2.67  55 2.72
  71  0.792  0.622  0.040-  50 2.42  69 2.45  54 2.46  40 2.53  46 2.56  34 2.56  76 2.59  63 2.61
                            36 2.72
  72  0.298  0.625  0.042-  74 2.44  58 2.47  73 2.49  35 2.55  56 2.59  53 2.61  47 2.61  36 2.64
                            46 2.64
  73  0.386  0.711  0.129-  46 2.39  53 2.42  72 2.49  26 2.50  78 2.55  38 2.55  54 2.56  51 2.60
                            79 2.63  24 2.65  58 2.67  74 2.76
  74  0.382  0.452  0.126-  47 2.41  72 2.44  56 2.50  37 2.51  68 2.54  26 2.54  51 2.62  57 2.62
                            58 2.64  64 2.68  21 2.72  73 2.76
  75  0.792  0.380  0.321-  29 2.58  18 2.59  39 2.59  22 2.60  60 2.63  65 2.64  67 2.64  44 2.66
                            32 2.70   9 2.74   7 2.75  15 2.76
  76  0.791  0.377  0.039-  51 2.45  41 2.45  69 2.46  40 2.56  71 2.59  46 2.59  56 2.60  23 2.64
                            62 2.66
  77  0.956  0.053  0.221-  67 2.53  41 2.53  24 2.54  65 2.55  66 2.58  22 2.58   2 2.59  60 2.59
                            59 2.66  79 2.71  55 2.72  28 2.77
  78  0.458  0.797  0.224-  55 2.45  80 2.49  61 2.49  52 2.52  38 2.53  73 2.55  79 2.58  49 2.61
                            54 2.62  32 2.62  44 2.63  26 2.67
  79  0.213  0.798  0.225-  55 2.49  24 2.51  52 2.53   2 2.54  30 2.56  58 2.57  78 2.58  26 2.61
                            73 2.63  77 2.71  64 2.72  28 2.76
  80  0.462  0.030  0.222-  38 2.48  48 2.48  78 2.49  61 2.53  55 2.53  49 2.53  57 2.54  19 2.57
                            43 2.66  59 2.67  31 2.70  68 2.73
  81  0.715  0.282  0.470-  17 1.81   9 1.81  15 1.95
 
  LATTYP: Found a hexagonal cell.
 ALAT       =    10.5600004196
 C/A-ratio  =     2.0833332505
  
  Lattice vectors:
  
 A1 = (   5.2800002098,  -9.1452286274,   0.0000000000)
 A2 = ( -10.5600004196,   0.0000000000,   0.0000000000)
 A3 = (   0.0000000000,   0.0000000000, -22.0000000000)


Analysis of symmetry for initial positions (statically):
=====================================================================
 Subroutine PRICEL returns:
 Original cell was already a primitive cell.
 

 Routine SETGRP: Setting up the symmetry group for a 
 hexagonal supercell.


 Subroutine GETGRP returns: Found  1 space group operations
 (whereof  1 operations were pure point group operations)
 out of a pool of 24 trial point group operations.


The static configuration has the point symmetry C_1 .


Analysis of symmetry for dynamics (positions and initial velocities):
=====================================================================
 Subroutine PRICEL returns:
 Original cell was already a primitive cell.
 

 Routine SETGRP: Setting up the symmetry group for a 
 hexagonal supercell.


 Subroutine GETGRP returns: Found  1 space group operations
 (whereof  1 operations were pure point group operations)
 out of a pool of 24 trial point group operations.


The dynamic configuration has the point symmetry C_1 .


Analysis of constrained symmetry for selective dynamics:
=====================================================================
 Subroutine PRICEL returns:
 Original cell was already a primitive cell.
 

 Routine SETGRP: Setting up the symmetry group for a 
 hexagonal supercell.


 Subroutine GETGRP returns: Found  1 space group operations
 (whereof  1 operations were pure point group operations)
 out of a pool of 24 trial point group operations.


The constrained configuration has the point symmetry C_1 .


Analysis of structural, dynamic, and magnetic symmetry:
=====================================================================
 Subroutine PRICEL returns:
 Original cell was already a primitive cell.
 

 Routine SETGRP: Setting up the symmetry group for a 
 hexagonal supercell.


 Subroutine GETGRP returns: Found  1 space group operations
 (whereof  1 operations were pure point group operations)
 out of a pool of 24 trial point group operations.


The magnetic configuration has the point symmetry C_1 .


 Subroutine INISYM returns: Found  1 space group operations
 (whereof  1 operations are pure point group operations),
 and found     1 'primitive' translations

 
 
 KPOINTS: mesh auto                               

Automatic generation of k-mesh.
Space group operators:
 irot       det(A)        alpha          n_x          n_y          n_z        tau_x        tau_y        tau_z
    1     1.000000     0.000001     1.000000     0.000000     0.000000     0.000000     0.000000     0.000000
 
 Subroutine IBZKPT returns following result:
 ===========================================
 
 Found      4 irreducible k-points:
 
 Following reciprocal coordinates:
            Coordinates               Weight
  0.000000  0.000000  0.000000      1.000000
  0.500000  0.000000  0.000000      1.000000
  0.000000  0.500000  0.000000      1.000000
  0.500000  0.500000  0.000000      1.000000
 
 Following cartesian coordinates:
            Coordinates               Weight
  0.000000  0.000000  0.000000      1.000000
  0.047348 -0.027337  0.000000      1.000000
  0.000000  0.054673  0.000000      1.000000
  0.047348  0.027337  0.000000      1.000000
 
 TETIRR: Found     12 inequivalent tetrahedra from       24
 
 Subroutine IBZKPT_HF returns following result:
 ==============================================
 
 Found      4 k-points in 1st BZ
 the following      4 k-points will be used (e.g. in the exchange kernel)
 Following reciprocal coordinates:   # in IRBZ
  0.000000  0.000000  0.000000    0.25000000   1 t-inv F
  0.500000  0.000000  0.000000    0.25000000   2 t-inv F
  0.000000  0.500000  0.000000    0.25000000   3 t-inv F
  0.500000  0.500000  0.000000    0.25000000   4 t-inv F


--------------------------------------------------------------------------------------------------------




 Dimension of arrays:
   k-points           NKPTS =      4   k-points in BZ     NKDIM =      4   number of bands    NBANDS=    624
   number of dos      NEDOS =    301   number of ions     NIONS =     81
   non local maximal  LDIM  =      6   non local SUM 2l+1 LMDIM =     18
   total plane-waves  NPLWV = ******
   max r-space proj   IRMAX =   7802   max aug-charges    IRDMAX=  33988
   dimension x,y,z NGX =    84 NGY =   84 NGZ =  168
   dimension x,y,z NGXF=   168 NGYF=  168 NGZF=  336
   support grid    NGXF=   168 NGYF=  168 NGZF=  336
   ions per type =              32  13  10  13  12   1
   NGX,Y,Z   is equivalent  to a cutoff of  13.22, 13.22, 12.70 a.u.
   NGXF,Y,Z  is equivalent  to a cutoff of  26.45, 26.45, 25.39 a.u.

 SYSTEM =  Pt111                                   
 POSCAR =  10.56                                   

 Startparameter for this run:
   NWRITE =      2    write-flag & timer
   PREC   = accura    normal or accurate (medium, high low for compatibility)
   ISTART =      0    job   : 0-new  1-cont  2-samecut
   ICHARG =      2    charge: 1-file 2-atom 10-const
   ISPIN  =      2    spin polarized calculation?
   LNONCOLLINEAR =      F non collinear calculations
   LSORBIT =      F    spin-orbit coupling
   INIWAV =      1    electr: 0-lowe 1-rand  2-diag
   LASPH  =      F    aspherical Exc in radial PAW
   METAGGA=      F    non-selfconsistent MetaGGA calc.

 Electronic Relaxation 1
   ENCUT  =  550.0 eV  40.42 Ry    6.36 a.u.  20.19 20.19 42.07*2*pi/ulx,y,z
   ENINI  =  550.0     initial cutoff
   ENAUG  =  587.0 eV  augmentation charge cutoff
   NELM   =    200;   NELMIN=  2; NELMDL= -5     # of ELM steps 
   EDIFF  = 0.1E-04   stopping-criterion for ELM
   LREAL  =      T    real-space projection
   NLSPLINE    = F    spline interpolate recip. space projectors
   LCOMPAT=      F    compatible to vasp.4.4
   GGA_COMPAT  = T    GGA compatible to vasp.4.4-vasp.4.6
   LMAXPAW     = -100 max onsite density
   LMAXMIX     =    2 max onsite mixed and CHGCAR
   VOSKOWN=      0    Vosko Wilk Nusair interpolation
   ROPT   =   -0.00025  -0.00025  -0.00025  -0.00025
   ROPT   =   -0.00025  -0.00025
 Ionic relaxation
   EDIFFG = -.5E-01   stopping-criterion for IOM
   NSW    =   1009    number of steps for IOM
   NBLOCK =      1;   KBLOCK =   1009    inner block; outer block 
   IBRION =      5    ionic relax: 0-MD 1-quasi-New 2-CG
   NFREE  =      2    steps in history (QN), initial steepest desc. (CG)
   ISIF   =      2    stress and relaxation
   IWAVPR =     11    prediction:  0-non 1-charg 2-wave 3-comb
   ISYM   =      2    0-nonsym 1-usesym 2-fastsym
   LCORR  =      T    Harris-Foulkes like correction to forces

   POTIM  = 0.5000    time-step for ionic-motion
   TEIN   =    0.0    initial temperature
   TEBEG  =    0.0;   TEEND  =   0.0 temperature during run
   SMASS  =  -3.00    Nose mass-parameter (am)
   estimated Nose-frequenzy (Omega)   =  0.10E-29 period in steps =****** mass=  -0.255E-26a.u.
   SCALEE = 1.0000    scale energy and forces
   NPACO  =    256;   APACO  = 16.0  distance and # of slots for P.C.
   PSTRESS=    0.0 pullay stress

  Mass of Ions in am
   POMASS = 195.08 55.85 58.93 63.55 58.69  1.00
  Ionic Valenz
   ZVAL   =  10.00  8.00  9.00 11.00 10.00  1.00
  Atomic Wigner-Seitz radii
   RWIGS  =  -1.00 -1.00 -1.00 -1.00 -1.00 -1.00
  virtual crystal weights 
   VCA    =   1.00  1.00  1.00  1.00  1.00  1.00
   NELECT =     778.0000    total number of electrons
   NUPDOWN=      -1.0000    fix difference up-down

 DOS related values:
   EMIN   =  10.00;   EMAX   =-10.00  energy-range for DOS
   EFERMI =   0.00
   ISMEAR =    -5;   SIGMA  =   0.10  broadening in eV -4-tet -1-fermi 0-gaus

 Electronic relaxation 2 (details)
   IALGO  =     68    algorithm
   LDIAG  =      T    sub-space diagonalisation (order eigenvalues)
   LSUBROT=      F    optimize rotation matrix (better conditioning)
   TURBO    =      0    0=normal 1=particle mesh
   IRESTART =      0    0=no restart 2=restart with 2 vectors
   NREBOOT  =      0    no. of reboots
   NMIN     =      0    reboot dimension
   EREF     =   0.00    reference energy to select bands
   IMIX   =      4    mixing-type and parameters
     AMIX     =   0.40;   BMIX     =  1.00
     AMIX_MAG =   1.60;   BMIX_MAG =  1.00
     AMIN     =   0.10
     WC   =   100.;   INIMIX=   1;  MIXPRE=   1;  MAXMIX= -45

 Intra band minimization:
   WEIMIN = 0.0010     energy-eigenvalue tresh-hold
   EBREAK =  0.40E-08  absolut break condition
   DEPER  =   0.30     relativ break condition  

   TIME   =   0.40     timestep for ELM

  volume/ion in A,a.u.               =      26.23       177.01
  Fermi-wavevector in a.u.,A,eV,Ry     =   1.171227  2.213298 18.664091  1.371772
  Thomas-Fermi vector in A             =   2.307674
 
 Write flags
   LWAVE        =      F    write WAVECAR
   LDOWNSAMPLE  =      F    k-point downsampling of WAVECAR
   LCHARG       =      F    write CHGCAR
   LVTOT        =      F    write LOCPOT, total local potential
   LVHAR        =      F    write LOCPOT, Hartree potential only
   LELF         =      F    write electronic localiz. function (ELF)
   LORBIT       =      0    0 simple, 1 ext, 2 COOP (PROOUT), +10 PAW based schemes


 Dipole corrections
   LMONO  =      F    monopole corrections only (constant potential shift)
   LDIPOL =      F    correct potential (dipole corrections)
   IDIPOL =      0    1-x, 2-y, 3-z, 4-all directions 
   EPSILON=  1.0000000 bulk dielectric constant

 Exchange correlation treatment:
   GGA     =    --    GGA type
   LEXCH   =     8    internal setting for exchange type
   VOSKOWN=      0    Vosko Wilk Nusair interpolation
   LHFCALC =     F    Hartree Fock is set to
   LHFONE  =     F    Hartree Fock one center treatment
   AEXX    =    0.0000 exact exchange contribution

 Linear response parameters
   LEPSILON=     F    determine dielectric tensor
   LRPA    =     F    only Hartree local field effects (RPA)
   LNABLA  =     F    use nabla operator in PAW spheres
   LVEL    =     F    velocity operator in full k-point grid
   LINTERFAST=   F  fast interpolation
   KINTER  =     0    interpolate to denser k-point grid
   CSHIFT  =0.1000    complex shift for real part using Kramers Kronig
   OMEGAMAX=  -1.0    maximum frequency
   DEG_THRESHOLD= 0.2000000E-02 threshold for treating states as degnerate
   RTIME   =   -0.100 relaxation time in fs
  (WPLASMAI=    0.000 imaginary part of plasma frequency in eV, 0.658/RTIME)
   DFIELD  = 0.0000000 0.0000000 0.0000000 field for delta impulse in time
 
 Orbital magnetization related:
   ORBITALMAG=     F  switch on orbital magnetization
   LCHIMAG   =     F  perturbation theory with respect to B field
   DQ        =  0.001000  dq finite difference perturbation B field
   LLRAUG    =     F  two centre corrections for induced B field



--------------------------------------------------------------------------------------------------------


 finite differences
   using selective dynamics as specified on POSCAR
   WARNING: If single coordinates had been selected the selection of coordinates
            is made according to the corresponding   d i r e c t   coordinates!
            Don't support selection of single cartesian coordinates -- sorry ...
  !
 charge density and potential will be updated during run
 spin polarized calculation
 RMM-DIIS sequential band-by-band and
  variant of blocked Davidson during initial phase
 perform sub-space diagonalisation
    before iterative eigenvector-optimisation
 modified Broyden-mixing scheme, WC =      100.0
 initial mixing is a Kerker type mixing with AMIX =  0.4000 and BMIX =      1.0000
 Hartree-type preconditioning will be used
 using additional bands          235
 real space projection scheme for non local part
 use partial core corrections
 calculate Harris-corrections to forces 
   (improved forces if not selfconsistent)
 use gradient corrections 
 use of overlap-Matrix (Vanderbilt PP)
 Fermi weights with tetrahedron method with Bloechl corrections


--------------------------------------------------------------------------------------------------------


  energy-cutoff  :      550.00
  volume of cell :     2124.62
      direct lattice vectors                 reciprocal lattice vectors
    10.560000420  0.000000000  0.000000000     0.094696966 -0.054673319  0.000000000
     5.280000210  9.145228627  0.000000000     0.000000000  0.109346638  0.000000000
     0.000000000  0.000000000 22.000000000     0.000000000  0.000000000  0.045454545

  length of vectors
    10.560000420 10.560000420 22.000000000     0.109346638  0.109346638  0.045454545


 
 k-points in units of 2pi/SCALE and weight: mesh auto                               
   0.00000000  0.00000000  0.00000000       0.250
   0.04734848 -0.02733666  0.00000000       0.250
   0.00000000  0.05467332  0.00000000       0.250
   0.04734848  0.02733666  0.00000000       0.250
 
 k-points in reciprocal lattice and weights: mesh auto                               
   0.00000000  0.00000000  0.00000000       0.250
   0.50000000  0.00000000  0.00000000       0.250
   0.00000000  0.50000000  0.00000000       0.250
   0.50000000  0.50000000  0.00000000       0.250
 
 position of ions in fractional coordinates (direct lattice) 
   0.78644930  0.87918293  0.31725147
   0.04214927  0.88311935  0.31551633
   0.27943702  0.38086280  0.31959560
   0.87568647  0.95957596  0.42289251
   0.12223560  0.46233427  0.42882393
   0.12566675  0.96050671  0.42147233
   0.87519530  0.46119314  0.42583776
   0.37455616  0.96034623  0.41996132
   0.87751688  0.20962589  0.42353105
   0.12582967  0.21115102  0.42233836
   0.62464326  0.96008833  0.42415053
   0.87379061  0.71112527  0.42721440
   0.37410761  0.20958968  0.42504079
   0.37531156  0.71238094  0.42397350
   0.62364835  0.46502083  0.42495842
   0.12413425  0.71122600  0.42676050
   0.62312848  0.20913209  0.42505164
   0.54915261  0.37621109  0.31772295
   0.53509816  0.12574288  0.31564664
   0.54700026  0.12353325  0.03994180
   0.12080895  0.46017830  0.12803950
   0.04206484  0.13773955  0.31440903
   0.04244149  0.13021000  0.03298030
   0.13048322  0.95798537  0.13183245
   0.37196890  0.46274732  0.42574953
   0.45454095  0.54571928  0.21885182
   0.62290788  0.71176352  0.42376075
   0.95571501  0.79013093  0.22104486
   0.79399309  0.62273790  0.31885583
   0.29193115  0.63141522  0.31823868
   0.20263023  0.28057175  0.22546492
   0.70645161  0.54939058  0.22075077
   0.04044016  0.63067492  0.32567463
   0.79731809  0.86162656  0.04207609
   0.05609859  0.86571859  0.03774080
   0.04641287  0.62819901  0.03699114
   0.62737558  0.22224168  0.12875060
   0.38211413  0.95500403  0.12988305
   0.03582362  0.38385944  0.32448532
   0.03114053  0.38167600  0.03750461
   0.87224044  0.21539432  0.12829500
   0.95471211  0.54518808  0.22389055
   0.29640504  0.11677773  0.32133472
   0.54031658  0.63039947  0.32206944
   0.29525378  0.11938697  0.03940923
   0.54825113  0.62531765  0.04365578
   0.29553136  0.37948250  0.03889216
   0.62548736  0.94995762  0.13208615
   0.70634189  0.79434825  0.22010408
   0.86572308  0.70559157  0.12880862
   0.62619676  0.46010837  0.12710353
   0.29732057  0.87635956  0.31779730
   0.30581838  0.86812735  0.04029659
   0.62671135  0.71465279  0.12827184
   0.22389857  0.02823957  0.22731031
   0.54269301  0.38102257  0.03461701
   0.37824999  0.20530955  0.13259126
   0.13618402  0.70497383  0.13178299
   0.70486941  0.05028396  0.22036332
   0.79245709  0.13097480  0.31780930
   0.53801640  0.87388705  0.31672749
   0.79655062  0.12311547  0.03453465
   0.54614634  0.87048754  0.03589640
   0.20722235  0.54282065  0.22417055
   0.95151324  0.29672189  0.22129229
   0.87185770  0.96385702  0.12897658
   0.71421099  0.29004436  0.22334568
   0.45764413  0.29147175  0.22083053
   0.87581008  0.45650690  0.12794668
   0.12769165  0.20692390  0.12876336
   0.79229095  0.62176839  0.04024823
   0.29784859  0.62540744  0.04208964
   0.38567508  0.71146547  0.12891873
   0.38207648  0.45160905  0.12649526
   0.79244764  0.37960595  0.32117814
   0.79092480  0.37725959  0.03945628
   0.95559961  0.05293444  0.22143250
   0.45755740  0.79715593  0.22440887
   0.21315004  0.79768722  0.22457904
   0.46239859  0.03021630  0.22200270
   0.71460700  0.28181237  0.47043725
 
 position of ions in cartesian coordinates  (Angst):
  12.94699106  8.04032892  6.97953231
   5.10796666  8.07632839  6.94135922
   4.96181073  3.48307739  7.03110313
  14.31381077  8.77554155  9.30363520
   3.73193299  4.22815257  9.43412653
   6.39851660  8.78405344  9.27239117
  11.67716268  4.21771675  9.36843083
   9.02594145  8.78258580  9.23914896
  10.37340338  1.91707666  9.31768306
   2.44363875  1.93102432  9.29144394
  11.66549964  8.78022732  9.33131175
  12.98197080  6.50340316  9.39871673
   5.05721012  1.91674553  9.35089745
   7.72466170  6.51488657  9.32741691
   9.04103698  4.25272183  9.34908519
   5.06613117  6.50432442  9.38873098
   7.68445445  1.91256078  9.35113614
   7.78544640  3.44053644  6.98990485
   6.31455925  1.14994736  6.94422610
   6.42857854  1.12973983  0.87871960
   3.70548407  4.20843578  2.81686897
   1.17146956  1.25965971  6.91699857
   1.13569097  1.19080020  0.72556650
   6.43606578  8.76099519  2.90031393
   6.37129775  4.23193008  9.36648975
   7.68135056  4.99072754  4.81474005
  10.33601899  6.50924008  9.32273653
  14.26424239  7.22592798  4.86298700
  11.67262358  5.69508044  7.01482816
   6.41666555  5.77443654  7.00125088
   3.62119418  2.56589278  4.96022829
  10.36091172  5.02430245  4.85651690
   3.75701178  5.76766631  7.16484182
  12.96906778  7.87977186  0.92567400
   5.16339550  7.91719447  0.83029765
   3.80701088  5.74502359  0.81380505
   7.79852245  2.03245096  2.83251312
   9.07754686  8.73373018  2.85742705
   2.40507538  3.51048231  7.13867707
   2.34409331  3.49051425  0.82510140
  10.34814148  1.96983035  2.82248993
  12.96035349  4.98586960  4.92559202
   3.74662378  1.06795900  7.06936373
   9.03425260  5.76514726  7.08552774
   3.74824325  1.09182115  0.86700304
   9.09120953  5.71867289  0.96042722
   5.12447898  3.47045423  0.85562744
  11.62092318  8.68757958  2.90589533
  11.65312961  7.26449633  4.84228978
  12.86755974  6.45279623  2.83378953
   9.04201027  4.20779619  2.79627770
   7.76688401  8.01450855  6.99154059
   7.81315482  7.93922313  0.88652503
  10.39143898  6.53566319  2.82198042
   2.51347389  0.25825733  5.00082675
   7.74263770  3.48453850  0.76157429
   5.07835445  1.87760273  2.91700770
   5.16036530  6.44714688  2.89922570
   7.70892058  0.45985829  4.84799308
   9.05989415  1.19779451  6.99180457
  10.29557724  7.99189685  6.96800468
   9.06162455  1.12591908  0.75976228
  10.36347996  7.96080760  0.78972076
   5.05436124  4.96421897  4.93175206
  11.61467189  2.71358951  4.86843040
  14.29598293  8.81469279  2.83748465
   9.07350258  2.65252196  4.91360499
   6.37169315  2.66557579  4.85827162
  11.65891135  4.17485993  2.81482702
   2.44098212  1.89236634  2.83279397
  11.64953004  5.68621407  0.88546096
   6.44743266  5.71949403  0.92597203
   7.82926683  6.50651440  2.83621200
   6.41922371  4.13006800  2.78289578
  10.37256692  3.47158324  7.06591912
  10.34409694  3.45012521  0.86803825
  10.37062613  0.48409754  4.87151493
   9.04078979  7.29017323  4.93699507
   6.46265315  7.29503196  4.94073890
   5.04247138  0.27633499  4.88405930
   9.03421962  2.57723855 10.34961944
 


--------------------------------------------------------------------------------------------------------


 k-point  1 :   0.0000 0.0000 0.0000  plane waves:   62167
 k-point  2 :   0.5000 0.0000 0.0000  plane waves:   62242
 k-point  3 :   0.0000 0.5000 0.0000  plane waves:   62242
 k-point  4 :   0.5000 0.5000 0.0000  plane waves:   62242

 maximum and minimum number of plane-waves per node :     62242    62167

 maximum number of plane-waves:     62242
 maximum index in each direction: 
   IXMAX=   20   IYMAX=   20   IZMAX=   42
   IXMIN=  -20   IYMIN=  -20   IZMIN=  -42


 serial   3D FFT for wavefunctions
 parallel 3D FFT for charge:
    minimum data exchange during FFTs selected (reduces bandwidth)


 total amount of memory used by VASP MPI-rank0   369631. kBytes
=======================================================================

   base      :      30000. kBytes
   nonlr-proj:      98404. kBytes
   fftplans  :      12162. kBytes
   grid      :     120476. kBytes
   one-center:       2519. kBytes
   wavefun   :     106070. kBytes
 
     INWAV:  cpu time    0.0000: real time    0.0005
 Broyden mixing: mesh for mixing (old mesh)
   NGX = 41   NGY = 41   NGZ = 85
  (NGX  =168   NGY  =168   NGZ  =336)
  gives a total of 142885 points

 initial charge density was supplied:
 charge density of overlapping atoms calculated
 number of electron     778.0000000 magnetization     231.0000000
 keeping initial charge density in first step


--------------------------------------------------------------------------------------------------------


 Maximum index for non-local projection operator         7553
 Maximum index for augmentation-charges         1469 (set IRDMAX)


--------------------------------------------------------------------------------------------------------


 First call to EWALD:  gamma=   0.138
 Maximum number of real-space cells 4x 4x 2
 Maximum number of reciprocal cells 2x 2x 4

    FEWALD:  cpu time    0.0040: real time    0.0041


--------------------------------------- Iteration      1(   1)  ---------------------------------------


    POTLOK:  cpu time    0.4309: real time    0.4341
    SETDIJ:  cpu time    0.0330: real time    0.0331
     EDDAV:  cpu time   57.3266: real time   57.5996
 BZINTS: Fermi energy: 17.756667;778.000000 electrons
         Band energy:7938.788721;  BLOECHL correction: -0.022510
       DOS:  cpu time    0.0229: real time    0.0537
    --------------------------------------------
      LOOP:  cpu time   57.8134: real time   58.1206

 eigenvalue-minimisations  :  9984
 total energy-change (2. order) : 0.7622562E+04  (-0.3351214E+05)
 number of electron     778.0000000 magnetization     231.0000000
 augmentation part      778.0000000 magnetization     231.0000000

 Free energy of the ion-electron system (eV)
  ---------------------------------------------------
  alpha Z        PSCENC =      2238.96497515
  Ewald energy   TEWEN  =    223800.31063457
  -Hartree energ DENC   =   -296060.14609646
  -exchange      EXHF   =         0.00000000
  -V(xc)+E(xc)   XCENC  =      1387.89801177
  PAW double counting   =     64136.80006862   -66038.70876209
  entropy T*S    EENTRO =         0.00000000
  eigenvalues    EBANDS =      7938.78872050
  atomic energy  EATOM  =     70218.65458108
  Solvation  Ediel_sol  =         0.00000000
  ---------------------------------------------------
  free energy    TOTEN  =      7622.56213315 eV

  energy without entropy =     7622.56213315  energy(sigma->0) =     7622.56213315


--------------------------------------------------------------------------------------------------------




--------------------------------------- Iteration      1(   2)  ---------------------------------------


     EDDAV:  cpu time   57.6140: real time   57.7990
 BZINTS: Fermi energy:  5.936013;778.000000 electrons
         Band energy: 973.627884;  BLOECHL correction: -0.090268
       DOS:  cpu time    0.0234: real time    0.0244
    --------------------------------------------
      LOOP:  cpu time   57.6374: real time   57.8234

 eigenvalue-minimisations  : 10080
 total energy-change (2. order) :-0.6965161E+04  (-0.6178522E+04)
 number of electron     778.0000000 magnetization     231.0000000
 augmentation part      778.0000000 magnetization     231.0000000

 Free energy of the ion-electron system (eV)
  ---------------------------------------------------
  alpha Z        PSCENC =      2238.96497515
  Ewald energy   TEWEN  =    223800.31063457
  -Hartree energ DENC   =   -296060.14609646
  -exchange      EXHF   =         0.00000000
  -V(xc)+E(xc)   XCENC  =      1387.89801177
  PAW double counting   =     64136.80006862   -66038.70876209
  entropy T*S    EENTRO =         0.00000000
  eigenvalues    EBANDS =       973.62788393
  atomic energy  EATOM  =     70218.65458108
  Solvation  Ediel_sol  =         0.00000000
  ---------------------------------------------------
  free energy    TOTEN  =       657.40129658 eV

  energy without entropy =      657.40129658  energy(sigma->0) =      657.40129658


--------------------------------------------------------------------------------------------------------




--------------------------------------- Iteration      1(   3)  ---------------------------------------


     EDDAV:  cpu time   57.6459: real time   57.8100
 BZINTS: Fermi energy:  3.560316;778.000000 electrons
         Band energy:-110.501330;  BLOECHL correction: -0.060401
       DOS:  cpu time    0.0235: real time    0.0241
    --------------------------------------------
      LOOP:  cpu time   57.6694: real time   57.8341

 eigenvalue-minimisations  : 10080
 total energy-change (2. order) :-0.1084129E+04  (-0.9059014E+03)
 number of electron     778.0000000 magnetization     231.0000000
 augmentation part      778.0000000 magnetization     231.0000000

 Free energy of the ion-electron system (eV)
  ---------------------------------------------------
  alpha Z        PSCENC =      2238.96497515
  Ewald energy   TEWEN  =    223800.31063457
  -Hartree energ DENC   =   -296060.14609646
  -exchange      EXHF   =         0.00000000
  -V(xc)+E(xc)   XCENC  =      1387.89801177
  PAW double counting   =     64136.80006862   -66038.70876209
  entropy T*S    EENTRO =         0.00000000
  eigenvalues    EBANDS =      -110.50132960
  atomic energy  EATOM  =     70218.65458108
  Solvation  Ediel_sol  =         0.00000000
  ---------------------------------------------------
  free energy    TOTEN  =      -426.72791696 eV

  energy without entropy =     -426.72791696  energy(sigma->0) =     -426.72791696


--------------------------------------------------------------------------------------------------------




--------------------------------------- Iteration      1(   4)  ---------------------------------------


     EDDAV:  cpu time   67.3776: real time   67.5647
 BZINTS: Fermi energy:  3.442762;778.000000 electrons
         Band energy:-178.397824;  BLOECHL correction: -0.058677
       DOS:  cpu time    0.0470: real time    0.1155
    --------------------------------------------
      LOOP:  cpu time   67.4246: real time   67.6802

 eigenvalue-minimisations  : 12240
 total energy-change (2. order) :-0.6789649E+02  (-0.6521815E+02)
 number of electron     778.0000000 magnetization     231.0000000
 augmentation part      778.0000000 magnetization     231.0000000

 Free energy of the ion-electron system (eV)
  ---------------------------------------------------
  alpha Z        PSCENC =      2238.96497515
  Ewald energy   TEWEN  =    223800.31063457
  -Hartree energ DENC   =   -296060.14609646
  -exchange      EXHF   =         0.00000000
  -V(xc)+E(xc)   XCENC  =      1387.89801177
  PAW double counting   =     64136.80006862   -66038.70876209
  entropy T*S    EENTRO =         0.00000000
  eigenvalues    EBANDS =      -178.39782431
  atomic energy  EATOM  =     70218.65458108
  Solvation  Ediel_sol  =         0.00000000
  ---------------------------------------------------
  free energy    TOTEN  =      -494.62441167 eV

  energy without entropy =     -494.62441167  energy(sigma->0) =     -494.62441167


--------------------------------------------------------------------------------------------------------




--------------------------------------- Iteration      1(   5)  ---------------------------------------


     EDDAV:  cpu time   67.9752: real time   68.1773
 BZINTS: Fermi energy:  3.438885;778.000000 electrons
         Band energy:-180.626846;  BLOECHL correction: -0.058411
       DOS:  cpu time    0.0491: real time    0.0805
    CHARGE:  cpu time    2.6052: real time    2.6142
    MIXING:  cpu time    0.0102: real time    0.0103
    --------------------------------------------
      LOOP:  cpu time   70.6397: real time   70.8824

 eigenvalue-minimisations  : 12384
 total energy-change (2. order) :-0.2229021E+01  (-0.2223428E+01)
 number of electron     778.0000038 magnetization     216.4151623
 augmentation part      334.8938254 magnetization     184.3824672

 Broyden mixing:
  rms(total) = 0.11871E+02    rms(broyden)= 0.11871E+02
  rms(prec ) = 0.12164E+02
  weight for this iteration     100.00

 Free energy of the ion-electron system (eV)
  ---------------------------------------------------
  alpha Z        PSCENC =      2238.96497515
  Ewald energy   TEWEN  =    223800.31063457
  -Hartree energ DENC   =   -296060.14609646
  -exchange      EXHF   =         0.00000000
  -V(xc)+E(xc)   XCENC  =      1387.89801177
  PAW double counting   =     64136.80006862   -66038.70876209
  entropy T*S    EENTRO =         0.00000000
  eigenvalues    EBANDS =      -180.62684565
  atomic energy  EATOM  =     70218.65458108
  Solvation  Ediel_sol  =         0.00000000
  ---------------------------------------------------
  free energy    TOTEN  =      -496.85343301 eV

  energy without entropy =     -496.85343301  energy(sigma->0) =     -496.85343301


--------------------------------------------------------------------------------------------------------




--------------------------------------- Iteration      1(   6)  ---------------------------------------


    POTLOK:  cpu time    0.3977: real time    0.4004
    SETDIJ:  cpu time    0.0326: real time    0.0327
    EDDIAG:  cpu time    9.5156: real time    9.5432
  RMM-DIIS:  cpu time   37.0123: real time   37.1218
    ORTHCH:  cpu time    1.4589: real time    1.4674
 BZINTS: Fermi energy:  1.565568;778.000000 electrons
         Band energy:***********;  BLOECHL correction: -0.008285
       DOS:  cpu time    0.0287: real time    0.0288
    CHARGE:  cpu time    2.6085: real time    2.6210
    MIXING:  cpu time    0.0106: real time    0.0116
    --------------------------------------------
      LOOP:  cpu time   51.0649: real time   51.2269

 eigenvalue-minimisations  : 10016
 total energy-change (2. order) :-0.1169264E+03  (-0.8058357E+02)
 number of electron     778.0000045 magnetization     212.0609836
 augmentation part      405.4201106 magnetization     179.0584568

 Broyden mixing:
  rms(total) = 0.18856E+02    rms(broyden)= 0.18855E+02
  rms(prec ) = 0.24081E+02
  weight for this iteration     100.00

 eigenvalues of (default mixing * dielectric matrix)
  average eigenvalue GAMMA=   0.2420
  0.2420

 Free energy of the ion-electron system (eV)
  ---------------------------------------------------
  alpha Z        PSCENC =      2238.96497515
  Ewald energy   TEWEN  =    223800.31063457
  -Hartree energ DENC   =   -294456.59638142
  -exchange      EXHF   =         0.00000000
  -V(xc)+E(xc)   XCENC  =      1342.74126383
  PAW double counting   =     69166.98197495   -70865.56532726
  entropy T*S    EENTRO =         0.00000000
  eigenvalues    EBANDS =     -2059.27153866
  atomic energy  EATOM  =     70218.65458108
  Solvation  Ediel_sol  =         0.00000000
  ---------------------------------------------------
  free energy    TOTEN  =      -613.77981777 eV

  energy without entropy =     -613.77981777  energy(sigma->0) =     -613.77981777


--------------------------------------------------------------------------------------------------------




--------------------------------------- Iteration      1(   7)  ---------------------------------------


    POTLOK:  cpu time    0.4004: real time    0.4026
    SETDIJ:  cpu time    0.0327: real time    0.0329
    EDDIAG:  cpu time    9.5066: real time    9.5341
  RMM-DIIS:  cpu time   36.7967: real time   36.9288
    ORTHCH:  cpu time    1.4548: real time    1.4619
 BZINTS: Fermi energy:  3.378892;778.000000 electrons
         Band energy:***********;  BLOECHL correction: -0.031459
       DOS:  cpu time    0.0249: real time    0.0250
    CHARGE:  cpu time    2.6304: real time    2.6379
    MIXING:  cpu time    0.0136: real time    0.0151
    --------------------------------------------
      LOOP:  cpu time   50.8600: real time   51.0384

 eigenvalue-minimisations  :  9998
 total energy-change (2. order) : 0.5309835E+02  (-0.1507822E+02)
 number of electron     778.0000041 magnetization     207.5084461
 augmentation part      362.7406267 magnetization     165.1691983

 Broyden mixing:
  rms(total) = 0.16329E+02    rms(broyden)= 0.16329E+02
  rms(prec ) = 0.22309E+02
  weight for this iteration     100.00

 eigenvalues of (default mixing * dielectric matrix)
  average eigenvalue GAMMA=   0.2724
  0.3804  0.1643

 Free energy of the ion-electron system (eV)
  ---------------------------------------------------
  alpha Z        PSCENC =      2238.96497515
  Ewald energy   TEWEN  =    223800.31063457
  -Hartree energ DENC   =   -295159.79693181
  -exchange      EXHF   =         0.00000000
  -V(xc)+E(xc)   XCENC  =      1363.92415632
  PAW double counting   =     70298.92950884   -72165.31797619
  entropy T*S    EENTRO =         0.00000000
  eigenvalues    EBANDS =     -1156.35041247
  atomic energy  EATOM  =     70218.65458108
  Solvation  Ediel_sol  =         0.00000000
  ---------------------------------------------------
  free energy    TOTEN  =      -560.68146452 eV

  energy without entropy =     -560.68146452  energy(sigma->0) =     -560.68146452


--------------------------------------------------------------------------------------------------------




--------------------------------------- Iteration      1(   8)  ---------------------------------------


    POTLOK:  cpu time    0.3967: real time    0.4147
    SETDIJ:  cpu time    0.0326: real time    0.0327
    EDDIAG:  cpu time    9.5072: real time    9.5383
  RMM-DIIS:  cpu time   36.7268: real time   36.8491
    ORTHCH:  cpu time    1.4537: real time    1.4637
 BZINTS: Fermi energy:  2.894834;778.000000 electrons
         Band energy:-722.303267;  BLOECHL correction: -0.018824
       DOS:  cpu time    0.0260: real time    0.0261
    CHARGE:  cpu time    2.6120: real time    2.6255
    MIXING:  cpu time    0.0112: real time    0.0115
    --------------------------------------------
      LOOP:  cpu time   50.7662: real time   50.9615

 eigenvalue-minimisations  : 10000
[...]
      9.034253  5.765147  7.085528            0           0           0  
      3.748243  1.091821  0.867003            0           0           0  
      9.091210  5.718673  0.960427            0           0           0  
      5.124479  3.470454  0.855627            0           0           0  
     11.620923  8.687580  2.905895            0           0           0  
     11.653130  7.264496  4.842290            0           0           0  
     12.867560  6.452796  2.833790            0           0           0  
      9.042010  4.207796  2.796278            0           0           0  
      7.766884  8.014509  6.991541            0           0           0  
      7.813155  7.939223  0.886525            0           0           0  
     10.391439  6.535663  2.821980            0           0           0  
      2.513474  0.258257  5.000827            0           0           0  
      7.742638  3.484538  0.761574            0           0           0  
      5.078354  1.877603  2.917008            0           0           0  
      5.160365  6.447147  2.899226            0           0           0  
      7.708921  0.459858  4.847993            0           0           0  
      9.059894  1.197795  6.991805            0           0           0  
     10.295577  7.991897  6.968005            0           0           0  
      9.061625  1.125919  0.759762            0           0           0  
     10.363480  7.960808  0.789721            0           0           0  
      5.054361  4.964219  4.931752            0           0           0  
     11.614672  2.713590  4.868430            0           0           0  
     14.295983  8.814693  2.837485            0           0           0  
      9.073503  2.652522  4.913605            0           0           0  
      6.371693  2.665576  4.858272            0           0           0  
     11.658911  4.174860  2.814827            0           0           0  
      2.440982  1.892366  2.832794            0           0           0  
     11.649530  5.686214  0.885461            0           0           0  
      6.447433  5.719494  0.925972            0           0           0  
      7.829267  6.506514  2.836212            0           0           0  
      6.419224  4.130068  2.782896            0           0           0  
     10.372567  3.471583  7.065919            0           0           0  
     10.344097  3.450125  0.868038            0           0           0  
     10.370626  0.484098  4.871515            0           0           0  
      9.040790  7.290173  4.936995            0           0           0  
      6.462653  7.295032  4.940739            0           0           0  
      5.042471  0.276335  4.884059            0           0           0  
      9.034220  2.577239 10.349619     0.023336    0.218975    0.975451  
 
   2 f  =   19.973649 THz   125.498138 2PiTHz  666.249198 cm-1    82.604402 meV
             X         Y         Z           dx          dy          dz
     12.946991  8.040329  6.979532            0           0           0  
      5.107967  8.076328  6.941359            0           0           0  
      4.961811  3.483077  7.031103            0           0           0  
     14.313811  8.775542  9.303635            0           0           0  
      3.731933  4.228153  9.434127            0           0           0  
      6.398517  8.784053  9.272391            0           0           0  
     11.677163  4.217717  9.368431            0           0           0  
      9.025941  8.782586  9.239149            0           0           0  
     10.373403  1.917077  9.317683            0           0           0  
      2.443639  1.931024  9.291444            0           0           0  
     11.665500  8.780227  9.331312            0           0           0  
     12.981971  6.503403  9.398717            0           0           0  
      5.057210  1.916746  9.350897            0           0           0  
      7.724662  6.514887  9.327417            0           0           0  
      9.041037  4.252722  9.349085            0           0           0  
      5.066131  6.504324  9.388731            0           0           0  
      7.684454  1.912561  9.351136            0           0           0  
      7.785446  3.440536  6.989905            0           0           0  
      6.314559  1.149947  6.944226            0           0           0  
      6.428579  1.129740  0.878720            0           0           0  
      3.705484  4.208436  2.816869            0           0           0  
      1.171470  1.259660  6.916999            0           0           0  
      1.135691  1.190800  0.725566            0           0           0  
      6.436066  8.760995  2.900314            0           0           0  
      6.371298  4.231930  9.366490            0           0           0  
      7.681351  4.990728  4.814740            0           0           0  
     10.336019  6.509240  9.322737            0           0           0  
     14.264242  7.225928  4.862987            0           0           0  
     11.672624  5.695080  7.014828            0           0           0  
      6.416666  5.774437  7.001251            0           0           0  
      3.621194  2.565893  4.960228            0           0           0  
     10.360912  5.024302  4.856517            0           0           0  
      3.757012  5.767666  7.164842            0           0           0  
     12.969068  7.879772  0.925674            0           0           0  
      5.163396  7.917194  0.830298            0           0           0  
      3.807011  5.745024  0.813805            0           0           0  
      7.798522  2.032451  2.832513            0           0           0  
      9.077547  8.733730  2.857427            0           0           0  
      2.405075  3.510482  7.138677            0           0           0  
      2.344093  3.490514  0.825101            0           0           0  
     10.348141  1.969830  2.822490            0           0           0  
     12.960353  4.985870  4.925592            0           0           0  
      3.746624  1.067959  7.069364            0           0           0  
      9.034253  5.765147  7.085528            0           0           0  
      3.748243  1.091821  0.867003            0           0           0  
      9.091210  5.718673  0.960427            0           0           0  
      5.124479  3.470454  0.855627            0           0           0  
     11.620923  8.687580  2.905895            0           0           0  
     11.653130  7.264496  4.842290            0           0           0  
     12.867560  6.452796  2.833790            0           0           0  
      9.042010  4.207796  2.796278            0           0           0  
      7.766884  8.014509  6.991541            0           0           0  
      7.813155  7.939223  0.886525            0           0           0  
     10.391439  6.535663  2.821980            0           0           0  
      2.513474  0.258257  5.000827            0           0           0  
      7.742638  3.484538  0.761574            0           0           0  
      5.078354  1.877603  2.917008            0           0           0  
      5.160365  6.447147  2.899226            0           0           0  
      7.708921  0.459858  4.847993            0           0           0  
      9.059894  1.197795  6.991805            0           0           0  
     10.295577  7.991897  6.968005            0           0           0  
      9.061625  1.125919  0.759762            0           0           0  
     10.363480  7.960808  0.789721            0           0           0  
      5.054361  4.964219  4.931752            0           0           0  
     11.614672  2.713590  4.868430            0           0           0  
     14.295983  8.814693  2.837485            0           0           0  
      9.073503  2.652522  4.913605            0           0           0  
      6.371693  2.665576  4.858272            0           0           0  
     11.658911  4.174860  2.814827            0           0           0  
      2.440982  1.892366  2.832794            0           0           0  
     11.649530  5.686214  0.885461            0           0           0  
      6.447433  5.719494  0.925972            0           0           0  
      7.829267  6.506514  2.836212            0           0           0  
      6.419224  4.130068  2.782896            0           0           0  
     10.372567  3.471583  7.065919            0           0           0  
     10.344097  3.450125  0.868038            0           0           0  
     10.370626  0.484098  4.871515            0           0           0  
      9.040790  7.290173  4.936995            0           0           0  
      6.462653  7.295032  4.940739            0           0           0  
      5.042471  0.276335  4.884059            0           0           0  
      9.034220  2.577239 10.349619     0.999453    0.017760   -0.027897  
 
   3 f  =   12.992963 THz    81.637194 2PiTHz  433.398579 cm-1    53.734595 meV
             X         Y         Z           dx          dy          dz
     12.946991  8.040329  6.979532            0           0           0  
      5.107967  8.076328  6.941359            0           0           0  
      4.961811  3.483077  7.031103            0           0           0  
     14.313811  8.775542  9.303635            0           0           0  
      3.731933  4.228153  9.434127            0           0           0  
      6.398517  8.784053  9.272391            0           0           0  
     11.677163  4.217717  9.368431            0           0           0  
      9.025941  8.782586  9.239149            0           0           0  
     10.373403  1.917077  9.317683            0           0           0  
      2.443639  1.931024  9.291444            0           0           0  
     11.665500  8.780227  9.331312            0           0           0  
     12.981971  6.503403  9.398717            0           0           0  
      5.057210  1.916746  9.350897            0           0           0  
      7.724662  6.514887  9.327417            0           0           0  
      9.041037  4.252722  9.349085            0           0           0  
      5.066131  6.504324  9.388731            0           0           0  
      7.684454  1.912561  9.351136            0           0           0  
      7.785446  3.440536  6.989905            0           0           0  
      6.314559  1.149947  6.944226            0           0           0  
      6.428579  1.129740  0.878720            0           0           0  
      3.705484  4.208436  2.816869            0           0           0  
      1.171470  1.259660  6.916999            0           0           0  
      1.135691  1.190800  0.725566            0           0           0  
      6.436066  8.760995  2.900314            0           0           0  
      6.371298  4.231930  9.366490            0           0           0  
      7.681351  4.990728  4.814740            0           0           0  
     10.336019  6.509240  9.322737            0           0           0  
     14.264242  7.225928  4.862987            0           0           0  
     11.672624  5.695080  7.014828            0           0           0  
      6.416666  5.774437  7.001251            0           0           0  
      3.621194  2.565893  4.960228            0           0           0  
     10.360912  5.024302  4.856517            0           0           0  
      3.757012  5.767666  7.164842            0           0           0  
     12.969068  7.879772  0.925674            0           0           0  
      5.163396  7.917194  0.830298            0           0           0  
      3.807011  5.745024  0.813805            0           0           0  
      7.798522  2.032451  2.832513            0           0           0  
      9.077547  8.733730  2.857427            0           0           0  
      2.405075  3.510482  7.138677            0           0           0  
      2.344093  3.490514  0.825101            0           0           0  
     10.348141  1.969830  2.822490            0           0           0  
     12.960353  4.985870  4.925592            0           0           0  
      3.746624  1.067959  7.069364            0           0           0  
      9.034253  5.765147  7.085528            0           0           0  
      3.748243  1.091821  0.867003            0           0           0  
      9.091210  5.718673  0.960427            0           0           0  
      5.124479  3.470454  0.855627            0           0           0  
     11.620923  8.687580  2.905895            0           0           0  
     11.653130  7.264496  4.842290            0           0           0  
     12.867560  6.452796  2.833790            0           0           0  
      9.042010  4.207796  2.796278            0           0           0  
      7.766884  8.014509  6.991541            0           0           0  
      7.813155  7.939223  0.886525            0           0           0  
     10.391439  6.535663  2.821980            0           0           0  
      2.513474  0.258257  5.000827            0           0           0  
      7.742638  3.484538  0.761574            0           0           0  
      5.078354  1.877603  2.917008            0           0           0  
      5.160365  6.447147  2.899226            0           0           0  
      7.708921  0.459858  4.847993            0           0           0  
      9.059894  1.197795  6.991805            0           0           0  
     10.295577  7.991897  6.968005            0           0           0  
      9.061625  1.125919  0.759762            0           0           0  
     10.363480  7.960808  0.789721            0           0           0  
      5.054361  4.964219  4.931752            0           0           0  
     11.614672  2.713590  4.868430            0           0           0  
     14.295983  8.814693  2.837485            0           0           0  
      9.073503  2.652522  4.913605            0           0           0  
      6.371693  2.665576  4.858272            0           0           0  
     11.658911  4.174860  2.814827            0           0           0  
      2.440982  1.892366  2.832794            0           0           0  
     11.649530  5.686214  0.885461            0           0           0  
      6.447433  5.719494  0.925972            0           0           0  
      7.829267  6.506514  2.836212            0           0           0  
      6.419224  4.130068  2.782896            0           0           0  
     10.372567  3.471583  7.065919            0           0           0  
     10.344097  3.450125  0.868038            0           0           0  
     10.370626  0.484098  4.871515            0           0           0  
      9.040790  7.290173  4.936995            0           0           0  
      6.462653  7.295032  4.940739            0           0           0  
      5.042471  0.276335  4.884059            0           0           0  
      9.034220  2.577239 10.349619    -0.023433    0.975569   -0.218441  
 
 Finite differences POTIM=  1.500000000000000E-002
  LATTYP: Found a hexagonal cell.
 ALAT       =    10.5600004196
 C/A-ratio  =     2.0833332505
  
  Lattice vectors:
  
 A1 = (   5.2800002098,  -9.1452286274,   0.0000000000)
 A2 = ( -10.5600004196,   0.0000000000,   0.0000000000)
 A3 = (   0.0000000000,   0.0000000000, -22.0000000000)


Analysis of symmetry for initial positions (statically):
=====================================================================
 Subroutine PRICEL returns:
 Original cell was already a primitive cell.
 

 Routine SETGRP: Setting up the symmetry group for a 
 hexagonal supercell.


 Subroutine GETGRP returns: Found  1 space group operations
 (whereof  1 operations were pure point group operations)
 out of a pool of 24 trial point group operations.


The static configuration has the point symmetry C_1 .


Analysis of symmetry for dynamics (positions and initial velocities):
=====================================================================
 Subroutine PRICEL returns:
 Original cell was already a primitive cell.
 

 Routine SETGRP: Setting up the symmetry group for a 
 hexagonal supercell.


 Subroutine GETGRP returns: Found  1 space group operations
 (whereof  1 operations were pure point group operations)
 out of a pool of 24 trial point group operations.


The dynamic configuration has the point symmetry C_1 .


Analysis of constrained symmetry for selective dynamics:
=====================================================================
 Subroutine PRICEL returns:
 Original cell was already a primitive cell.
 

 Routine SETGRP: Setting up the symmetry group for a 
 hexagonal supercell.


 Subroutine GETGRP returns: Found  1 space group operations
 (whereof  1 operations were pure point group operations)
 out of a pool of 24 trial point group operations.


The constrained configuration has the point symmetry C_1 .


Analysis of structural, dynamic, and magnetic symmetry:
=====================================================================
 Subroutine PRICEL returns:
 Original cell was already a primitive cell.
 

 Routine SETGRP: Setting up the symmetry group for a 
 hexagonal supercell.


 Subroutine GETGRP returns: Found  1 space group operations
 (whereof  1 operations were pure point group operations)
 out of a pool of 24 trial point group operations.


The magnetic configuration has the point symmetry C_1 .


 Subroutine INISYM returns: Found  1 space group operations
 (whereof  1 operations are pure point group operations),
 and found     1 'primitive' translations

 
 KPOINTS: mesh auto                               

Automatic generation of k-mesh.
Space group operators:
 irot       det(A)        alpha          n_x          n_y          n_z        tau_x        tau_y        tau_z
    1     1.000000     0.000001     1.000000     0.000000     0.000000     0.000000     0.000000     0.000000
 
 Subroutine IBZKPT returns following result:
 ===========================================
 
 Found      4 irreducible k-points:
 
 Following reciprocal coordinates:
            Coordinates               Weight
  0.000000  0.000000  0.000000      1.000000
  0.500000  0.000000  0.000000      1.000000
  0.000000  0.500000  0.000000      1.000000
  0.500000  0.500000  0.000000      1.000000
 
 Following cartesian coordinates:
            Coordinates               Weight
  0.000000  0.000000  0.000000      1.000000
  0.047348 -0.027337  0.000000      1.000000
  0.000000  0.054673  0.000000      1.000000
  0.047348  0.027337  0.000000      1.000000
 
 TETIRR: Found     12 inequivalent tetrahedra from       24
     LOOP+:  cpu time  624.3270: real time  626.7417
    4ORBIT:  cpu time    0.0000: real time    0.0000
 BZINTS: Fermi energy:  2.059106;778.000000 electrons
         Band energy:-677.875167;  BLOECHL correction: -0.240414

 total amount of memory used by VASP MPI-rank0   369631. kBytes
=======================================================================

   base      :      30000. kBytes
   nonlr-proj:      98404. kBytes
   fftplans  :      12162. kBytes
   grid      :     120476. kBytes
   one-center:       2519. kBytes
   wavefun   :     106070. kBytes
 
  
  
 General timing and accounting informations for this job:
 ========================================================
  
                  Total CPU time used (sec):     8423.034
                            User time (sec):     8393.153
                          System time (sec):       29.881
                         Elapsed time (sec):     8458.901
  
                   Maximum memory used (kb):      701216.
                   Average memory used (kb):           0.
  
                          Minor page faults:      3419428
                          Major page faults:          161
                 Voluntary context switches:         8522
