 vasp.5.4.4.18Apr17-6-g9f103f2a35 (build Oct 25 2019 11:13:22) complex          
  
 executed on             LinuxIFC date 2022.02.05  09:06:12
 running on   48 total cores
 distrk:  each k-point on   48 cores,    1 groups
 distr:  one band on NCORES_PER_BAND=   1 cores,   48 groups


--------------------------------------------------------------------------------------------------------


 INCAR:
 POTCAR:    PAW_PBE Pt 04Feb2005                  
 POTCAR:    PAW_PBE Fe 06Sep2000                  
 POTCAR:    PAW_PBE Co 02Aug2007                  
 POTCAR:    PAW_PBE Cu 22Jun2005                  
 POTCAR:    PAW_PBE Ni 02Aug2007                  
 POTCAR:    PAW_PBE H 15Jun2001                   

 ----------------------------------------------------------------------------- 
|                                                                             |
|           W    W    AA    RRRRR   N    N  II  N    N   GGGG   !!!           |
|           W    W   A  A   R    R  NN   N  II  NN   N  G    G  !!!           |
|           W    W  A    A  R    R  N N  N  II  N N  N  G       !!!           |
|           W WW W  AAAAAA  RRRRR   N  N N  II  N  N N  G  GGG   !            |
|           WW  WW  A    A  R   R   N   NN  II  N   NN  G    G                |
|           W    W  A    A  R    R  N    N  II  N    N   GGGG   !!!           |
|                                                                             |
|      For optimal performance we recommend to set                            |
|        NCORE= 4 - approx SQRT( number of cores)                             |
|      NCORE specifies how many cores store one orbital (NPAR=cpu/NCORE).     |
|      This setting can  greatly improve the performance of VASP for DFT.     |
|      The default,   NCORE=1            might be grossly inefficient         |
|      on modern multi-core architectures or massively parallel machines.     |
|      Do your own testing !!!!                                               |
|      Unfortunately you need to use the default for GW and RPA calculations. |
|      (for HF NCORE is supported but not extensively tested yet)             |
|                                                                             |
 ----------------------------------------------------------------------------- 

 POTCAR:    PAW_PBE Pt 04Feb2005                  
   VRHFIN =Pt: s1d9                                                             
   LEXCH  = PE                                                                  
   EATOM  =   729.1176 eV,   53.5886 Ry                                         
                                                                                
   TITEL  = PAW_PBE Pt 04Feb2005                                                
   LULTRA =        F    use ultrasoft PP ?                                      
   IUNSCR =        1    unscreen: 0-lin 1-nonlin 2-no                           
   RPACOR =    2.330    partial core radius                                     
   POMASS =  195.080; ZVAL   =   10.000    mass and valenz                      
   RCORE  =    2.600    outmost cutoff radius                                   
   RWIGS  =    2.750; RWIGS  =    1.455    wigner-seitz radius (au A)           
   ENMAX  =  230.283; ENMIN  =  172.712 eV                                      
   ICORE  =        3    local potential                                         
   LCOR   =        T    correct aug charges                                     
   LPAW   =        T    paw PP                                                  
   EAUG   =  358.966                                                            
   DEXC   =    0.000                                                            
   RMAX   =    2.658    core radius for proj-oper                               
   RAUG   =    1.300    factor for augmentation sphere                          
   RDEP   =    2.761    radius for radial grids                                 
   RDEPT  =    2.203    core radius for aug-charge                              
                                                                                
   Atomic configuration                                                         
   16 entries                                                                   
     n  l   j            E        occ.                                          
     1  0  0.50    -78401.1885   2.0000                                         
     2  0  0.50    -13770.7750   2.0000                                         
     2  1  1.50    -11931.0468   6.0000                                         
     3  0  0.50     -3234.7234   2.0000                                         
     3  1  1.50     -2699.2216   6.0000                                         
     3  2  2.50     -2119.5714  10.0000                                         
     4  0  0.50      -695.1528   2.0000                                         
     4  1  1.50      -519.6034   6.0000                                         
     4  2  2.50      -306.6786  10.0000                                         
     4  3  3.50       -70.1041  14.0000                                         
     5  0  0.50      -101.7747   2.0000                                         
     5  1  1.50       -55.9873   6.0000                                         
     5  2  2.50        -6.1423   9.0000                                         
     6  0  0.50        -5.6573   1.0000                                         
     6  1  1.50        -6.8029   0.0000                                         
     5  3  2.50        -1.3606   0.0000                                         
   Description                                                                  
     l       E           TYP  RCUT    TYP  RCUT                                 
     2     -6.1423404     23  2.500                                             
     2     -7.5029230     23  2.500                                             
     0     -5.6573207     23  2.500                                             
     0      0.7416693     23  2.500                                             
     1     -2.7211652     23  2.600                                             
     1     20.4087390     23  2.600                                             
     3     -1.3605826     23  2.500                                             
  local pseudopotential read in
  partial core-charges read in
  partial kinetic energy density read in
  atomic valenz-charges read in
  non local Contribution for L=           2  read in
    real space projection operators read in
  non local Contribution for L=           2  read in
    real space projection operators read in
  non local Contribution for L=           0  read in
    real space projection operators read in
  non local Contribution for L=           0  read in
    real space projection operators read in
  non local Contribution for L=           1  read in
    real space projection operators read in
  non local Contribution for L=           1  read in
    real space projection operators read in
    PAW grid and wavefunctions read in
 
   number of l-projection  operators is LMAX  =           6
   number of lm-projection operators is LMMAX =          18
 
 POTCAR:    PAW_PBE Fe 06Sep2000                  
   VRHFIN =Fe:  d7 s1                                                           
   LEXCH  = PE                                                                  
   EATOM  =   594.3153 eV,   43.6809 Ry                                         
                                                                                
   TITEL  = PAW_PBE Fe 06Sep2000                                                
   LULTRA =        F    use ultrasoft PP ?                                      
   IUNSCR =        1    unscreen: 0-lin 1-nonlin 2-no                           
   RPACOR =    2.000    partial core radius                                     
   POMASS =   55.847; ZVAL   =    8.000    mass and valenz                      
   RCORE  =    2.300    outmost cutoff radius                                   
   RWIGS  =    2.460; RWIGS  =    1.302    wigner-seitz radius (au A)           
   ENMAX  =  267.882; ENMIN  =  200.911 eV                                      
   RCLOC  =    1.701    cutoff for local pot                                    
   LCOR   =        T    correct aug charges                                     
   LPAW   =        T    paw PP                                                  
   EAUG   =  511.368                                                            
   DEXC   =    0.000                                                            
   RMAX   =    2.356    core radius for proj-oper                               
   RAUG   =    1.300    factor for augmentation sphere                          
   RDEP   =    2.442    radius for radial grids                                 
   RDEPT  =    1.890    core radius for aug-charge                              
                                                                                
   Atomic configuration                                                         
    9 entries                                                                   
     n  l   j            E        occ.                                          
     1  0  0.50     -6993.8440   2.0000                                         
     2  0  0.50      -814.6047   2.0000                                         
     2  1  1.50      -693.3689   6.0000                                         
     3  0  0.50       -89.4732   2.0000                                         
     3  1  1.50       -55.6373   6.0000                                         
     3  2  2.50        -3.8151   7.0000                                         
     4  0  0.50        -4.2551   1.0000                                         
     4  1  1.50        -3.4015   0.0000                                         
     4  3  2.50        -1.3606   0.0000                                         
   Description                                                                  
     l       E           TYP  RCUT    TYP  RCUT                                 
     2     -3.8151135     23  2.300                                             
     2     -5.1756961     23  2.300                                             
     0     -4.2550963     23  2.300                                             
     0      7.2035603     23  2.300                                             
     1     -2.7211652     23  2.300                                             
     1     18.4316424     23  2.300                                             
  local pseudopotential read in
  partial core-charges read in
  partial kinetic energy density read in
  atomic valenz-charges read in
  non local Contribution for L=           2  read in
    real space projection operators read in
  non local Contribution for L=           2  read in
    real space projection operators read in
  non local Contribution for L=           0  read in
    real space projection operators read in
  non local Contribution for L=           0  read in
    real space projection operators read in
  non local Contribution for L=           1  read in
    real space projection operators read in
  non local Contribution for L=           1  read in
    real space projection operators read in
    PAW grid and wavefunctions read in
 
   number of l-projection  operators is LMAX  =           6
   number of lm-projection operators is LMMAX =          18
 
 POTCAR:    PAW_PBE Co 02Aug2007                  
   VRHFIN =Co: d8 s1                                                            
   LEXCH  = PE                                                                  
   EATOM  =   813.3670 eV,   59.7808 Ry                                         
                                                                                
   TITEL  = PAW_PBE Co 02Aug2007                                                
   LULTRA =        F    use ultrasoft PP ?                                      
   IUNSCR =        1    unscreen: 0-lin 1-nonlin 2-no                           
   RPACOR =    2.000    partial core radius                                     
   POMASS =   58.933; ZVAL   =    9.000    mass and valenz                      
   RCORE  =    2.300    outmost cutoff radius                                   
   RWIGS  =    2.460; RWIGS  =    1.302    wigner-seitz radius (au A)           
   ENMAX  =  267.968; ENMIN  =  200.976 eV                                      
   RCLOC  =    1.203    cutoff for local pot                                    
   LCOR   =        T    correct aug charges                                     
   LPAW   =        T    paw PP                                                  
   EAUG   =  477.818                                                            
   DEXC   =    0.000                                                            
   RMAX   =    2.360    core radius for proj-oper                               
   RAUG   =    1.300    factor for augmentation sphere                          
   RDEP   =    2.393    radius for radial grids                                 
   RDEPT  =    1.864    core radius for aug-charge                              
                                                                                
   Atomic configuration                                                         
    9 entries                                                                   
     n  l   j            E        occ.                                          
     1  0  0.50     -7587.6674   2.0000                                         
     2  0  0.50      -893.6084   2.0000                                         
     2  1  1.50      -764.5805   6.0000                                         
     3  0  0.50       -97.5973   2.0000                                         
     3  1  1.50       -60.9648   6.0000                                         
     3  2  2.50        -4.2382   8.0000                                         
     4  0  0.50        -4.3746   1.0000                                         
     4  1  1.50        -4.0817   0.0000                                         
     4  3  2.50        -1.3606   0.0000                                         
   Description                                                                  
     l       E           TYP  RCUT    TYP  RCUT                                 
     2     -4.2382362     23  2.300                                             
     2     -5.5988188     23  2.300                                             
     0     -4.3745797     23  2.300                                             
     0      5.7660125     23  2.300                                             
     1     -2.7211652     23  2.300                                             
     1     16.9860234     23  2.300                                             
  local pseudopotential read in
  partial core-charges read in
  partial kinetic energy density read in
  atomic valenz-charges read in
  non local Contribution for L=           2  read in
    real space projection operators read in
  non local Contribution for L=           2  read in
    real space projection operators read in
  non local Contribution for L=           0  read in
    real space projection operators read in
  non local Contribution for L=           0  read in
    real space projection operators read in
  non local Contribution for L=           1  read in
    real space projection operators read in
  non local Contribution for L=           1  read in
    real space projection operators read in
    PAW grid and wavefunctions read in
 
   number of l-projection  operators is LMAX  =           6
   number of lm-projection operators is LMMAX =          18
 
 POTCAR:    PAW_PBE Cu 22Jun2005                  
   VRHFIN =Cu: d10 p1                                                           
   LEXCH  = PE                                                                  
   EATOM  =  1390.9808 eV,  102.2342 Ry                                         
                                                                                
   TITEL  = PAW_PBE Cu 22Jun2005                                                
   LULTRA =        F    use ultrasoft PP ?                                      
   IUNSCR =        1    unscreen: 0-lin 1-nonlin 2-no                           
   RPACOR =    2.000    partial core radius                                     
   POMASS =   63.546; ZVAL   =   11.000    mass and valenz                      
   RCORE  =    2.300    outmost cutoff radius                                   
   RWIGS  =    2.200; RWIGS  =    1.164    wigner-seitz radius (au A)           
   ENMAX  =  295.446; ENMIN  =  221.585 eV                                      
   ICORE  =        3    local potential                                         
   LCOR   =        T    correct aug charges                                     
   LPAW   =        T    paw PP                                                  
   EAUG   =  586.980                                                            
   DEXC   =    0.000                                                            
   RMAX   =    2.344    core radius for proj-oper                               
   RAUG   =    1.300    factor for augmentation sphere                          
   RDEP   =    2.302    radius for radial grids                                 
   RDEPT  =    1.771    core radius for aug-charge                              
                                                                                
   Atomic configuration                                                         
    9 entries                                                                   
     n  l   j            E        occ.                                          
     1  0  0.50     -8850.2468   2.0000                                         
     2  0  0.50     -1062.3498   2.0000                                         
     2  1  1.50      -916.8226   6.0000                                         
     3  0  0.50      -114.6929   2.0000                                         
     3  1  1.50       -72.1325   6.0000                                         
     3  2  2.50        -5.0394  10.0000                                         
     4  0  0.50        -4.6097   1.0000                                         
     4  1  0.50        -4.0817   0.0000                                         
     4  3  2.50        -1.3606   0.0000                                         
   Description                                                                  
     l       E           TYP  RCUT    TYP  RCUT                                 
     2     -5.0393973     23  2.200                                             
     2     10.8846608     23  2.200                                             
     0     -4.6097109     23  2.200                                             
     0      8.2520465     23  2.200                                             
     1     -2.7211652     23  2.200                                             
     1     21.7055443     23  2.200                                             
     3      2.7211652     23  2.300                                             
  local pseudopotential read in
  partial core-charges read in
  partial kinetic energy density read in
  atomic valenz-charges read in
  non local Contribution for L=           2  read in
    real space projection operators read in
  non local Contribution for L=           2  read in
    real space projection operators read in
  non local Contribution for L=           0  read in
    real space projection operators read in
  non local Contribution for L=           0  read in
    real space projection operators read in
  non local Contribution for L=           1  read in
    real space projection operators read in
  non local Contribution for L=           1  read in
    real space projection operators read in
    PAW grid and wavefunctions read in
 
   number of l-projection  operators is LMAX  =           6
   number of lm-projection operators is LMMAX =          18
 
 POTCAR:    PAW_PBE Ni 02Aug2007                  
   VRHFIN =Ni:                                                                  
   LEXCH  = PE                                                                  
   EATOM  =  1077.6739 eV,   79.2068 Ry                                         
                                                                                
   TITEL  = PAW_PBE Ni 02Aug2007                                                
   LULTRA =        F    use ultrasoft PP ?                                      
   IUNSCR =        1    unscreen: 0-lin 1-nonlin 2-no                           
   RPACOR =    2.000    partial core radius                                     
   POMASS =   58.690; ZVAL   =   10.000    mass and valenz                      
   RCORE  =    2.300    outmost cutoff radius                                   
   RWIGS  =    2.430; RWIGS  =    1.286    wigner-seitz radius (au A)           
   ENMAX  =  269.532; ENMIN  =  202.149 eV                                      
   RCLOC  =    1.201    cutoff for local pot                                    
   LCOR   =        T    correct aug charges                                     
   LPAW   =        T    paw PP                                                  
   EAUG   =  544.565                                                            
   DEXC   =    0.000                                                            
   RMAX   =    2.357    core radius for proj-oper                               
   RAUG   =    1.300    factor for augmentation sphere                          
   RDEP   =    2.390    radius for radial grids                                 
   RDEPT  =    1.838    core radius for aug-charge                              
                                                                                
   Atomic configuration                                                         
    9 entries                                                                   
     n  l   j            E        occ.                                          
     1  0  0.50     -8206.4253   2.0000                                         
     2  0  0.50      -976.1748   2.0000                                         
     2  1  1.50      -839.0571   6.0000                                         
     3  0  0.50      -105.9991   2.0000                                         
     3  1  1.50       -66.4603   6.0000                                         
     3  2  2.50        -4.6458   9.0000                                         
     4  0  0.50        -4.4926   1.0000                                         
     4  1  1.50        -4.0817   0.0000                                         
     4  3  2.50        -1.3606   0.0000                                         
   Description                                                                  
     l       E           TYP  RCUT    TYP  RCUT                                 
     2     -4.6457903     23  2.300                                             
     2     -6.0063729     23  2.300                                             
     0     -4.4925590     23  2.300                                             
     0      5.0102601     23  2.300                                             
     1     -2.7211652     23  2.300                                             
     1     16.5183231     23  2.300                                             
  local pseudopotential read in
  partial core-charges read in
  partial kinetic energy density read in
  atomic valenz-charges read in
  non local Contribution for L=           2  read in
    real space projection operators read in
  non local Contribution for L=           2  read in
    real space projection operators read in
  non local Contribution for L=           0  read in
    real space projection operators read in
  non local Contribution for L=           0  read in
    real space projection operators read in
  non local Contribution for L=           1  read in
    real space projection operators read in
  non local Contribution for L=           1  read in
    real space projection operators read in
    PAW grid and wavefunctions read in
 
   number of l-projection  operators is LMAX  =           6
   number of lm-projection operators is LMMAX =          18
 
 POTCAR:    PAW_PBE H 15Jun2001                   
   VRHFIN =H: ultrasoft test                                                    
   LEXCH  = PE                                                                  
   EATOM  =    12.4884 eV,    0.9179 Ry                                         
                                                                                
   TITEL  = PAW_PBE H 15Jun2001                                                 
   LULTRA =        F    use ultrasoft PP ?                                      
   IUNSCR =        0    unscreen: 0-lin 1-nonlin 2-no                           
   RPACOR =    0.000    partial core radius                                     
   POMASS =    1.000; ZVAL   =    1.000    mass and valenz                      
   RCORE  =    1.100    outmost cutoff radius                                   
   RWIGS  =    0.700; RWIGS  =    0.370    wigner-seitz radius (au A)           
   ENMAX  =  250.000; ENMIN  =  200.000 eV                                      
   RCLOC  =    0.701    cutoff for local pot                                    
   LCOR   =        T    correct aug charges                                     
   LPAW   =        T    paw PP                                                  
   EAUG   =  400.000                                                            
   RMAX   =    1.123    core radius for proj-oper                               
   RAUG   =    1.200    factor for augmentation sphere                          
   RDEP   =    1.112    radius for radial grids                                 
   RDEPT  =    0.926    core radius for aug-charge                              
                                                                                
   Atomic configuration                                                         
    2 entries                                                                   
     n  l   j            E        occ.                                          
     1  0  0.50        -6.4927   1.0000                                         
     2  1  0.50        -3.4015   0.0000                                         
   Description                                                                  
     l       E           TYP  RCUT    TYP  RCUT                                 
     0     -6.4927494     23  1.100                                             
     0      6.8029130     23  1.100                                             
     1     -4.0817478     23  1.100                                             
  local pseudopotential read in
  atomic valenz-charges read in
  non local Contribution for L=           0  read in
    real space projection operators read in
  non local Contribution for L=           0  read in
    real space projection operators read in
  non local Contribution for L=           1  read in
    real space projection operators read in
    PAW grid and wavefunctions read in
 
   number of l-projection  operators is LMAX  =           3
   number of lm-projection operators is LMMAX =           5
 
 Optimization of the real space projectors (new method)

 maximal supplied QI-value         = 14.36
 optimisation between [QCUT,QGAM] = [ 11.92, 23.98] = [ 39.79,161.09] Ry 
 Optimized for a Real-space Cutoff    1.49 Angstroem

   l    n(q)    QCUT    max X(q) W(low)/X(q) W(high)/X(q)  e(spline) 
   2     10    11.920    66.195    0.79E-04    0.18E-03    0.24E-06
   2     10    11.920    64.643    0.81E-04    0.19E-03    0.24E-06
   0     11    11.920    95.520    0.28E-04    0.54E-04    0.18E-06
   0     11    11.920    63.403    0.27E-04    0.52E-04    0.17E-06
   1     10    11.920    19.961    0.18E-04    0.11E-03    0.23E-06
   1     10    11.920    13.289    0.25E-04    0.87E-04    0.19E-06
 Optimization of the real space projectors (new method)

 maximal supplied QI-value         = 16.25
 optimisation between [QCUT,QGAM] = [ 11.86, 23.89] = [ 39.41,159.82] Ry 
 Optimized for a Real-space Cutoff    1.49 Angstroem

   l    n(q)    QCUT    max X(q) W(low)/X(q) W(high)/X(q)  e(spline) 
   2     10    11.864    80.901    0.13E-03    0.23E-03    0.37E-06
   2     10    11.864    75.754    0.13E-03    0.23E-03    0.38E-06
   0     11    11.864    58.752    0.44E-04    0.11E-04    0.20E-06
   0     11    11.864    30.679    0.36E-04    0.10E-04    0.18E-06
   1     10    11.864    17.977    0.31E-04    0.45E-04    0.10E-06
   1     10    11.864    13.559    0.25E-04    0.37E-04    0.89E-07
 Optimization of the real space projectors (new method)

 maximal supplied QI-value         = 16.25
 optimisation between [QCUT,QGAM] = [ 11.86, 23.89] = [ 39.41,159.82] Ry 
 Optimized for a Real-space Cutoff    1.33 Angstroem

   l    n(q)    QCUT    max X(q) W(low)/X(q) W(high)/X(q)  e(spline) 
   2      9    11.864    65.824    0.22E-03    0.53E-03    0.26E-06
   2      9    11.864    61.429    0.22E-03    0.53E-03    0.26E-06
   0      9    11.864    56.174    0.21E-03    0.32E-04    0.15E-06
   0      9    11.864    31.263    0.19E-03    0.30E-04    0.14E-06
   1      9    11.864    19.828    0.63E-04    0.30E-03    0.16E-06
   1      9    11.864    15.139    0.49E-04    0.25E-03    0.13E-06
 Optimization of the real space projectors (new method)

 maximal supplied QI-value         = 16.25
 optimisation between [QCUT,QGAM] = [ 11.86, 23.89] = [ 39.41,159.82] Ry 
 Optimized for a Real-space Cutoff    1.49 Angstroem

   l    n(q)    QCUT    max X(q) W(low)/X(q) W(high)/X(q)  e(spline) 
   2     10    11.864     4.610    0.10E-03    0.20E-03    0.29E-06
   2     10    11.864     8.522    0.17E-03    0.33E-03    0.50E-06
   0     11    11.864    51.609    0.52E-04    0.55E-04    0.33E-06
   0     11    11.864    27.747    0.46E-04    0.52E-04    0.31E-06
   1     10    11.864    20.408    0.54E-04    0.25E-04    0.21E-06
   1     10    11.864    13.425    0.48E-04    0.22E-04    0.18E-06
 Optimization of the real space projectors (new method)

 maximal supplied QI-value         = 16.25
 optimisation between [QCUT,QGAM] = [ 11.86, 23.89] = [ 39.41,159.82] Ry 
 Optimized for a Real-space Cutoff    1.33 Angstroem

   l    n(q)    QCUT    max X(q) W(low)/X(q) W(high)/X(q)  e(spline) 
   2      9    11.864    60.317    0.21E-03    0.51E-03    0.25E-06
   2      9    11.864    55.921    0.21E-03    0.51E-03    0.26E-06
   0      9    11.864    51.690    0.22E-03    0.30E-04    0.17E-06
   0      9    11.864    30.015    0.20E-03    0.28E-04    0.15E-06
   1      9    11.864    18.849    0.76E-04    0.33E-03    0.17E-06
   1      9    11.864    14.624    0.60E-04    0.28E-03    0.15E-06
 Optimization of the real space projectors (new method)

 maximal supplied QI-value         = 34.20
 optimisation between [QCUT,QGAM] = [ 11.97, 23.94] = [ 40.13,160.53] Ry 
 Optimized for a Real-space Cutoff    1.18 Angstroem

   l    n(q)    QCUT    max X(q) W(low)/X(q) W(high)/X(q)  e(spline) 
   0      8    11.971    19.460    0.15E-03    0.31E-03    0.25E-06
   0      8    11.971    12.209    0.13E-03    0.29E-03    0.25E-06
   1      8    11.971     4.655    0.22E-03    0.24E-03    0.21E-06
  PAW_PBE Pt 04Feb2005                  :
 energy of atom  1       EATOM= -729.1176
 kinetic energy error for atom=    0.0021 (will be added to EATOM!!)
  PAW_PBE Fe 06Sep2000                  :
 energy of atom  2       EATOM= -594.3153
 kinetic energy error for atom=    0.0024 (will be added to EATOM!!)
  PAW_PBE Co 02Aug2007                  :
 energy of atom  3       EATOM= -813.3670
 kinetic energy error for atom=    0.0026 (will be added to EATOM!!)
  PAW_PBE Cu 22Jun2005                  :
 energy of atom  4       EATOM=-1390.9808
 kinetic energy error for atom=    0.0036 (will be added to EATOM!!)
  PAW_PBE Ni 02Aug2007                  :
 energy of atom  5       EATOM=-1077.6739
 kinetic energy error for atom=    0.0027 (will be added to EATOM!!)
  PAW_PBE H 15Jun2001                   :
 energy of atom  6       EATOM=  -12.4884
 kinetic energy error for atom=    0.0008 (will be added to EATOM!!)
 
 
 POSCAR: 10.66                                   
  positions in cartesian coordinates
  No initial velocities read in
 exchange correlation table for  LEXCH =        8
   RHO(1)=    0.500       N(1)  =     2000
   RHO(2)=  100.500       N(2)  =     4000
 


--------------------------------------------------------------------------------------------------------


 ion  position               nearest neighbor table
   1  0.788  0.878  0.317-  49 2.62  28 2.63  19 2.64  59 2.65  61 2.67  33 2.68  29 2.69  60 2.71
                             2 2.75   4 2.81  12 2.82  11 2.86
   2  0.044  0.882  0.315-  79 2.54  77 2.59  60 2.64  28 2.65  30 2.67  52 2.69  33 2.70  22 2.72
                             1 2.75   6 2.76   4 2.82  16 2.89
   3  0.281  0.380  0.319-  64 2.57  39 2.59  33 2.62  31 2.63  68 2.70  30 2.73  43 2.74  19 2.74
                            13 2.78   5 2.78  25 2.84  18 2.84
   4  0.878  0.962  0.422-   9 2.64   6 2.65  17 2.65  16 2.67  11 2.68  12 2.69  60 2.79   1 2.81
                             2 2.82
   5  0.124  0.462  0.427-  12 2.62   7 2.65  10 2.66  16 2.66  13 2.69  25 2.69  33 2.73  39 2.73
                             3 2.78
   6  0.127  0.960  0.420-   8 2.64   4 2.65  14 2.66  16 2.67   9 2.67  10 2.68  52 2.76   2 2.76
                            22 2.85
   7  0.878  0.457  0.426-  15 2.64   9 2.64   5 2.65  10 2.65  39 2.67  27 2.68  12 2.69  75 2.77
                            29 2.79
   8  0.374  0.961  0.418-  43 2.58   6 2.64  14 2.64  10 2.65  13 2.67  52 2.67  61 2.68  27 2.70
                            11 2.71
   9  0.877  0.211  0.419-   4 2.64   7 2.64  17 2.66  15 2.66   6 2.67  75 2.68  10 2.68  60 2.72
                            22 2.80
  10  0.128  0.211  0.421-  13 2.64   8 2.65   7 2.65   5 2.66  39 2.66   6 2.68   9 2.68  43 2.72
                            22 2.78
  11  0.627  0.962  0.428-  81 1.69  17 2.65  13 2.66   4 2.68  12 2.70  27 2.71   8 2.71   1 2.86
                            19 2.89  61 2.93
  12  0.880  0.709  0.424-   5 2.62  16 2.65  33 2.65   7 2.69   4 2.69  27 2.70  11 2.70  29 2.79
                             1 2.82
  13  0.376  0.210  0.423-  10 2.64  11 2.66   8 2.67  25 2.68  17 2.68   5 2.69  43 2.77   3 2.78
                            19 2.78
  14  0.378  0.711  0.421-  27 2.64   8 2.64  15 2.66   6 2.66  44 2.67  25 2.68  16 2.68  52 2.73
                            30 2.76
  15  0.628  0.462  0.420-  27 2.62   7 2.64  14 2.66   9 2.66  44 2.66  25 2.69  75 2.69  17 2.70
                            18 2.75
  16  0.127  0.710  0.425-  12 2.65   5 2.66  25 2.66   6 2.67   4 2.67  33 2.68  14 2.68  30 2.81
                             2 2.89
  17  0.628  0.209  0.420-  11 2.65   4 2.65   9 2.66  25 2.67  13 2.68  15 2.70  18 2.74  60 2.76
                            19 2.83
  18  0.550  0.374  0.317-  67 2.56  60 2.61  75 2.64  68 2.65  44 2.67  26 2.67  30 2.74  17 2.74
                            15 2.75  19 2.75   3 2.84  25 2.85
  19  0.537  0.123  0.316-  80 2.56  43 2.58  68 2.60  59 2.61   1 2.64  61 2.66   3 2.74  18 2.75
                            60 2.78  13 2.78  17 2.83  11 2.89
  20  0.549  0.122  0.042-  37 2.55  57 2.55  48 2.57  62 2.66  63 2.70  34 2.71  45 2.73  47 2.74
                            56 2.74
  21  0.120  0.460  0.128-  40 2.52  36 2.53  47 2.53  42 2.61  64 2.62  69 2.62  70 2.66  50 2.67
                            31 2.71  58 2.71  57 2.74  74 2.75
  22  0.045  0.136  0.313-  65 2.51  55 2.54  77 2.57  43 2.60  39 2.61  75 2.64  60 2.71   2 2.72
                            52 2.75  10 2.78   9 2.80   6 2.85  31 3.39
  23  0.042  0.131  0.034-  70 2.57  40 2.60  41 2.61  45 2.64  62 2.65  76 2.65  24 2.69  35 2.76
                            53 2.81
  24  0.131  0.958  0.132-  79 2.51  77 2.54  35 2.57  53 2.58  55 2.58  70 2.64  38 2.66  58 2.66
                            73 2.67  23 2.69  66 2.73  41 2.75
  25  0.377  0.460  0.424-  16 2.66  17 2.67  13 2.68  14 2.68  15 2.69   5 2.69  30 2.82   3 2.84
                            18 2.85
  26  0.456  0.545  0.219-  73 2.50  51 2.54  74 2.55  79 2.63  30 2.65  64 2.66  18 2.67  32 2.69
                            68 2.70  78 2.70  44 2.74  67 2.75
  27  0.626  0.709  0.428-  81 1.85  15 2.62  14 2.64   7 2.68   8 2.70  12 2.70  11 2.71  44 2.81
                            29 2.84  61 2.86
  28  0.956  0.788  0.221-  58 2.56  50 2.58  66 2.58  42 2.61  49 2.63   1 2.63   2 2.65  64 2.66
                            33 2.71  59 2.73  79 2.81  77 2.82
  29  0.794  0.623  0.320-  42 2.57  39 2.57  75 2.60  32 2.63  44 2.66  61 2.67  33 2.68  49 2.68
                             1 2.69   7 2.79  12 2.79  27 2.84
  30  0.292  0.630  0.317-  79 2.56  64 2.60  52 2.64  26 2.65  44 2.65   2 2.67  33 2.67   3 2.73
                            18 2.74  14 2.76  16 2.81  25 2.82
  31  0.203  0.280  0.225-  70 2.52  55 2.58  43 2.58  65 2.59  57 2.60   3 2.63  39 2.67  21 2.71
                            80 2.73  42 2.74  68 2.79  64 2.82  22 3.39
  32  0.707  0.550  0.221-  54 2.54  69 2.56  51 2.58  49 2.60  42 2.62  29 2.63  78 2.63  65 2.65
                            44 2.68  75 2.68  26 2.69  67 2.73
  33  0.041  0.630  0.325-   3 2.62  12 2.65  39 2.66  30 2.67   1 2.68  16 2.68  29 2.68   2 2.70
                            64 2.71  28 2.71  42 2.72   5 2.73
  34  0.796  0.862  0.044-  50 2.39  66 2.51  48 2.52  36 2.55  71 2.58  63 2.62  20 2.71  62 2.79
                            35 2.80
  35  0.057  0.865  0.039-  58 2.54  72 2.55  36 2.56  24 2.57  66 2.62  53 2.68  23 2.76  62 2.76
                            34 2.80
  36  0.044  0.632  0.039-  21 2.53  34 2.55  35 2.56  58 2.58  50 2.59  47 2.67  72 2.69  71 2.74
                            40 2.76
  37  0.628  0.224  0.129-  51 2.51  67 2.52  56 2.52  74 2.53  20 2.55  68 2.56  41 2.57  59 2.57
                            62 2.59  66 2.69  57 2.76  48 2.95
  38  0.383  0.954  0.131-  53 2.46  45 2.47  80 2.49  78 2.53  73 2.56  63 2.56  48 2.56  55 2.56
                            54 2.58  57 2.65  24 2.66  70 2.70
  39  0.036  0.384  0.324-  29 2.57   3 2.59  75 2.60  22 2.61  42 2.64  33 2.66  10 2.66  31 2.67
                             7 2.67   5 2.73  65 2.74  43 2.84
  40  0.028  0.381  0.039-  69 2.42  21 2.52  71 2.54  76 2.54  70 2.56  23 2.60  36 2.76  45 2.84
                            47 2.85
  41  0.872  0.215  0.129-  76 2.45  77 2.52  65 2.52  67 2.53  37 2.57  62 2.57  69 2.59  23 2.61
                            51 2.61  70 2.68  66 2.68  24 2.75
  42  0.955  0.544  0.224-  50 2.56  29 2.57  69 2.60  21 2.61  28 2.61  32 2.62  39 2.64  65 2.65
                            49 2.65  64 2.69  33 2.72  31 2.74
  43  0.299  0.114  0.320-  55 2.52  52 2.56   8 2.58  19 2.58  31 2.58  61 2.58  22 2.60  80 2.61
                            10 2.72   3 2.74  13 2.77  39 2.84
  44  0.541  0.628  0.321-  61 2.59  52 2.60  78 2.62  30 2.65  29 2.66  15 2.66  14 2.67  18 2.67
                            32 2.68  75 2.68  26 2.74  27 2.81
  45  0.296  0.116  0.041-  38 2.47  70 2.49  57 2.57  53 2.58  23 2.64  63 2.65  20 2.73  47 2.83
                            40 2.84
  46  0.549  0.625  0.045-  51 2.38  73 2.39  54 2.41  71 2.57  53 2.59  63 2.60  76 2.62  56 2.63
                            72 2.66
  47  0.294  0.382  0.040-  74 2.41  21 2.53  57 2.64  72 2.65  56 2.66  36 2.67  20 2.74  45 2.83
                            40 2.85
  48  0.626  0.948  0.133-  49 2.40  54 2.48  80 2.49  34 2.52  63 2.56  59 2.56  38 2.56  20 2.57
                            50 2.58  57 2.68  66 2.72  37 2.95
  49  0.707  0.793  0.221-  48 2.40  50 2.48  54 2.50  80 2.56  32 2.60   1 2.62  78 2.62  28 2.63
                            61 2.63  42 2.65  29 2.68  59 2.72
  50  0.865  0.704  0.130-  34 2.39  71 2.42  49 2.48  54 2.49  42 2.56  48 2.58  28 2.58  69 2.58
                            36 2.59  21 2.67  66 2.81  58 2.90
  51  0.627  0.460  0.128-  46 2.38  76 2.44  56 2.51  37 2.51  26 2.54  32 2.58  41 2.61  67 2.63
                            73 2.63  69 2.64  74 2.65  54 2.72
  52  0.299  0.874  0.317-  55 2.44  78 2.52  79 2.53  61 2.56  43 2.56  44 2.60  30 2.64   8 2.67
                             2 2.69  14 2.73  22 2.75   6 2.76
  53  0.307  0.869  0.042-  73 2.42  38 2.46  63 2.57  24 2.58  45 2.58  46 2.59  72 2.61  35 2.68
                            23 2.81
  54  0.627  0.715  0.129-  46 2.41  71 2.46  63 2.48  48 2.48  50 2.49  49 2.50  32 2.54  38 2.58
                            73 2.58  78 2.61  69 2.70  51 2.72
  55  0.226  0.027  0.227-  52 2.44  78 2.47  79 2.51  43 2.52  22 2.54  80 2.54  38 2.56  31 2.58
                            24 2.58  70 2.71  77 2.76  65 2.91
  56  0.544  0.381  0.036-  74 2.50  51 2.51  37 2.52  76 2.61  46 2.63  72 2.64  47 2.66  62 2.72
                            20 2.74
  57  0.379  0.204  0.133-  68 2.47  80 2.55  20 2.55  45 2.57  31 2.60  47 2.64  38 2.65  74 2.66
                            70 2.66  48 2.68  21 2.74  37 2.76
  58  0.137  0.705  0.133-  72 2.46  64 2.51  35 2.54  28 2.56  79 2.56  36 2.58  74 2.66  24 2.66
                            73 2.70  21 2.71  50 2.90
  59  0.705  0.050  0.221-  66 2.53  48 2.56  37 2.57  68 2.60  19 2.61  60 2.61  67 2.61   1 2.65
                            77 2.69  80 2.70  49 2.72  28 2.73
  60  0.795  0.129  0.316-  67 2.52  77 2.57  59 2.61  18 2.61   2 2.64  75 2.67   1 2.71  22 2.71
                             9 2.72  17 2.76  19 2.78   4 2.79
  61  0.541  0.871  0.318-  78 2.50  80 2.54  52 2.56  43 2.58  44 2.59  49 2.63  19 2.66   1 2.67
                            29 2.67   8 2.68  27 2.86  11 2.93
  62  0.797  0.123  0.036-  66 2.53  41 2.57  37 2.59  23 2.65  20 2.66  76 2.68  56 2.72  35 2.76
                            34 2.79
  63  0.546  0.870  0.037-  54 2.48  38 2.56  48 2.56  53 2.57  46 2.60  34 2.62  71 2.63  45 2.65
                            20 2.70
  64  0.209  0.542  0.224-  58 2.51   3 2.57  30 2.60  21 2.62  28 2.66  26 2.66  74 2.67  68 2.67
                            42 2.69  33 2.71  79 2.76  31 2.82
  65  0.952  0.298  0.222-  22 2.51  69 2.52  41 2.52  67 2.56  77 2.58  31 2.59  75 2.60  70 2.60
                            42 2.65  32 2.65  39 2.74  55 2.91
  66  0.872  0.964  0.130-  34 2.51  59 2.53  62 2.53  77 2.57  28 2.58  35 2.62  41 2.68  37 2.69
                            48 2.72  24 2.73  50 2.81
  67  0.716  0.289  0.224-  37 2.52  60 2.52  41 2.53  77 2.54  65 2.56  18 2.56  59 2.61  75 2.63
                            51 2.63  32 2.73  68 2.74  26 2.75
  68  0.458  0.291  0.221-  57 2.47  74 2.55  37 2.56  19 2.60  59 2.60  18 2.65  64 2.67  26 2.70
                             3 2.70  67 2.74  80 2.77  31 2.79
  69  0.875  0.457  0.129-  40 2.42  71 2.45  76 2.46  65 2.52  32 2.56  50 2.58  41 2.59  42 2.60
                            21 2.62  51 2.64  70 2.68  54 2.70
  70  0.128  0.206  0.129-  45 2.49  31 2.52  40 2.56  23 2.57  65 2.60  24 2.64  21 2.66  57 2.66
                            41 2.68  69 2.68  38 2.70  55 2.71
  71  0.792  0.622  0.041-  50 2.42  69 2.45  54 2.46  40 2.54  46 2.57  34 2.58  76 2.61  63 2.63
                            36 2.74
  72  0.298  0.629  0.044-  74 2.46  58 2.46  73 2.47  35 2.55  53 2.61  56 2.64  47 2.65  46 2.66
                            36 2.69
  73  0.386  0.713  0.130-  46 2.39  53 2.42  72 2.47  26 2.50  78 2.55  38 2.56  54 2.58  79 2.61
                            51 2.63  24 2.67  58 2.70  74 2.80
  74  0.382  0.451  0.127-  47 2.41  72 2.46  56 2.50  37 2.53  26 2.55  68 2.55  51 2.65  57 2.66
                            58 2.66  64 2.67  21 2.75  73 2.80
  75  0.795  0.379  0.320-  29 2.60  39 2.60  65 2.60  67 2.63  22 2.64  18 2.64  60 2.67   9 2.68
                            44 2.68  32 2.68  15 2.69   7 2.77
  76  0.791  0.377  0.041-  51 2.44  41 2.45  69 2.46  40 2.54  56 2.61  71 2.61  46 2.62  23 2.65
                            62 2.68
  77  0.956  0.053  0.221-  41 2.52  24 2.54  67 2.54  60 2.57  22 2.57  66 2.57  65 2.58   2 2.59
                            59 2.69  79 2.75  55 2.76  28 2.82
  78  0.460  0.796  0.225-  55 2.47  61 2.50  80 2.50  52 2.52  38 2.53  73 2.55  79 2.60  54 2.61
                            44 2.62  49 2.62  32 2.63  26 2.70
  79  0.216  0.797  0.225-  24 2.51  55 2.51  52 2.53   2 2.54  30 2.56  58 2.56  78 2.60  73 2.61
                            26 2.63  77 2.75  64 2.76  28 2.81
  80  0.463  0.029  0.223-  48 2.49  38 2.49  78 2.50  55 2.54  61 2.54  57 2.55  19 2.56  49 2.56
                            43 2.61  59 2.70  31 2.73  68 2.77
  81  0.630  0.843  0.480-  11 1.69  27 1.85
 
  LATTYP: Found a hexagonal cell.
 ALAT       =    10.6599998474
 C/A-ratio  =     2.0637898982
  
  Lattice vectors:
  
 A1 = (   5.3299999237,  -9.2318306722,   0.0000000000)
 A2 = ( -10.6599998474,   0.0000000000,   0.0000000000)
 A3 = (   0.0000000000,   0.0000000000, -22.0000000000)


Analysis of symmetry for initial positions (statically):
=====================================================================
 Subroutine PRICEL returns:
 Original cell was already a primitive cell.
 

 Routine SETGRP: Setting up the symmetry group for a 
 hexagonal supercell.


 Subroutine GETGRP returns: Found  1 space group operations
 (whereof  1 operations were pure point group operations)
 out of a pool of 24 trial point group operations.


The static configuration has the point symmetry C_1 .


Analysis of symmetry for dynamics (positions and initial velocities):
=====================================================================
 Subroutine PRICEL returns:
 Original cell was already a primitive cell.
 

 Routine SETGRP: Setting up the symmetry group for a 
 hexagonal supercell.


 Subroutine GETGRP returns: Found  1 space group operations
 (whereof  1 operations were pure point group operations)
 out of a pool of 24 trial point group operations.


The dynamic configuration has the point symmetry C_1 .


Analysis of constrained symmetry for selective dynamics:
=====================================================================
 Subroutine PRICEL returns:
 Original cell was already a primitive cell.
 

 Routine SETGRP: Setting up the symmetry group for a 
 hexagonal supercell.


 Subroutine GETGRP returns: Found  1 space group operations
 (whereof  1 operations were pure point group operations)
 out of a pool of 24 trial point group operations.


The constrained configuration has the point symmetry C_1 .


Analysis of structural, dynamic, and magnetic symmetry:
=====================================================================
 Subroutine PRICEL returns:
 Original cell was already a primitive cell.
 

 Routine SETGRP: Setting up the symmetry group for a 
 hexagonal supercell.


 Subroutine GETGRP returns: Found  1 space group operations
 (whereof  1 operations were pure point group operations)
 out of a pool of 24 trial point group operations.


The magnetic configuration has the point symmetry C_1 .


 Subroutine INISYM returns: Found  1 space group operations
 (whereof  1 operations are pure point group operations),
 and found     1 'primitive' translations

 
 
 KPOINTS: mesh auto                               

Automatic generation of k-mesh.
Space group operators:
 irot       det(A)        alpha          n_x          n_y          n_z        tau_x        tau_y        tau_z
    1     1.000000     0.000000     1.000000     0.000000     0.000000     0.000000     0.000000     0.000000
 
 Subroutine IBZKPT returns following result:
 ===========================================
 
 Found      4 irreducible k-points:
 
 Following reciprocal coordinates:
            Coordinates               Weight
  0.000000  0.000000  0.000000      1.000000
  0.500000 -0.000000  0.000000      1.000000
  0.000000  0.500000  0.000000      1.000000
  0.500000  0.500000  0.000000      1.000000
 
 Following cartesian coordinates:
            Coordinates               Weight
  0.000000  0.000000  0.000000      1.000000
  0.046904 -0.027080  0.000000      1.000000
  0.000000  0.054160  0.000000      1.000000
  0.046904  0.027080  0.000000      1.000000
 
 TETIRR: Found     12 inequivalent tetrahedra from       24
 
 Subroutine IBZKPT_HF returns following result:
 ==============================================
 
 Found      4 k-points in 1st BZ
 the following      4 k-points will be used (e.g. in the exchange kernel)
 Following reciprocal coordinates:   # in IRBZ
  0.000000  0.000000  0.000000    0.25000000   1 t-inv F
  0.500000 -0.000000  0.000000    0.25000000   2 t-inv F
  0.000000  0.500000  0.000000    0.25000000   3 t-inv F
  0.500000  0.500000  0.000000    0.25000000   4 t-inv F


--------------------------------------------------------------------------------------------------------




 Dimension of arrays:
   k-points           NKPTS =      4   k-points in BZ     NKDIM =      4   number of bands    NBANDS=    624
   number of dos      NEDOS =    301   number of ions     NIONS =     81
   non local maximal  LDIM  =      6   non local SUM 2l+1 LMDIM =     18
   total plane-waves  NPLWV = ******
   max r-space proj   IRMAX =   7657   max aug-charges    IRDMAX=  33358
   dimension x,y,z NGX =    84 NGY =   84 NGZ =  168
   dimension x,y,z NGXF=   168 NGYF=  168 NGZF=  336
   support grid    NGXF=   168 NGYF=  168 NGZF=  336
   ions per type =              32  13  10  13  12   1
   NGX,Y,Z   is equivalent  to a cutoff of  13.10, 13.10, 12.70 a.u.
   NGXF,Y,Z  is equivalent  to a cutoff of  26.20, 26.20, 25.39 a.u.

 SYSTEM =  Pt111                                   
 POSCAR =  10.66                                   

 Startparameter for this run:
   NWRITE =      2    write-flag & timer
   PREC   = accura    normal or accurate (medium, high low for compatibility)
   ISTART =      0    job   : 0-new  1-cont  2-samecut
   ICHARG =      2    charge: 1-file 2-atom 10-const
   ISPIN  =      2    spin polarized calculation?
   LNONCOLLINEAR =      F non collinear calculations
   LSORBIT =      F    spin-orbit coupling
   INIWAV =      1    electr: 0-lowe 1-rand  2-diag
   LASPH  =      F    aspherical Exc in radial PAW
   METAGGA=      F    non-selfconsistent MetaGGA calc.

 Electronic Relaxation 1
   ENCUT  =  550.0 eV  40.42 Ry    6.36 a.u.  20.38 20.38 42.07*2*pi/ulx,y,z
   ENINI  =  550.0     initial cutoff
   ENAUG  =  587.0 eV  augmentation charge cutoff
   NELM   =    200;   NELMIN=  2; NELMDL= -5     # of ELM steps 
   EDIFF  = 0.1E-04   stopping-criterion for ELM
   LREAL  =      T    real-space projection
   NLSPLINE    = F    spline interpolate recip. space projectors
   LCOMPAT=      F    compatible to vasp.4.4
   GGA_COMPAT  = T    GGA compatible to vasp.4.4-vasp.4.6
   LMAXPAW     = -100 max onsite density
   LMAXMIX     =    2 max onsite mixed and CHGCAR
   VOSKOWN=      0    Vosko Wilk Nusair interpolation
   ROPT   =   -0.00025  -0.00025  -0.00025  -0.00025
   ROPT   =   -0.00025  -0.00025
 Ionic relaxation
   EDIFFG = -.5E-01   stopping-criterion for IOM
   NSW    =   1009    number of steps for IOM
   NBLOCK =      1;   KBLOCK =   1009    inner block; outer block 
   IBRION =      5    ionic relax: 0-MD 1-quasi-New 2-CG
   NFREE  =      2    steps in history (QN), initial steepest desc. (CG)
   ISIF   =      2    stress and relaxation
   IWAVPR =     11    prediction:  0-non 1-charg 2-wave 3-comb
   ISYM   =      2    0-nonsym 1-usesym 2-fastsym
   LCORR  =      T    Harris-Foulkes like correction to forces

   POTIM  = 0.5000    time-step for ionic-motion
   TEIN   =    0.0    initial temperature
   TEBEG  =    0.0;   TEEND  =   0.0 temperature during run
   SMASS  =  -3.00    Nose mass-parameter (am)
   estimated Nose-frequenzy (Omega)   =  0.10E-29 period in steps =****** mass=  -0.260E-26a.u.
   SCALEE = 1.0000    scale energy and forces
   NPACO  =    256;   APACO  = 16.0  distance and # of slots for P.C.
   PSTRESS=    0.0 pullay stress

  Mass of Ions in am
   POMASS = 195.08 55.85 58.93 63.55 58.69  1.00
  Ionic Valenz
   ZVAL   =  10.00  8.00  9.00 11.00 10.00  1.00
  Atomic Wigner-Seitz radii
   RWIGS  =  -1.00 -1.00 -1.00 -1.00 -1.00 -1.00
  virtual crystal weights 
   VCA    =   1.00  1.00  1.00  1.00  1.00  1.00
   NELECT =     778.0000    total number of electrons
   NUPDOWN=      -1.0000    fix difference up-down

 DOS related values:
   EMIN   =  10.00;   EMAX   =-10.00  energy-range for DOS
   EFERMI =   0.00
   ISMEAR =    -5;   SIGMA  =   0.10  broadening in eV -4-tet -1-fermi 0-gaus

 Electronic relaxation 2 (details)
   IALGO  =     68    algorithm
   LDIAG  =      T    sub-space diagonalisation (order eigenvalues)
   LSUBROT=      F    optimize rotation matrix (better conditioning)
   TURBO    =      0    0=normal 1=particle mesh
   IRESTART =      0    0=no restart 2=restart with 2 vectors
   NREBOOT  =      0    no. of reboots
   NMIN     =      0    reboot dimension
   EREF     =   0.00    reference energy to select bands
   IMIX   =      4    mixing-type and parameters
     AMIX     =   0.40;   BMIX     =  1.00
     AMIX_MAG =   1.60;   BMIX_MAG =  1.00
     AMIN     =   0.10
     WC   =   100.;   INIMIX=   1;  MIXPRE=   1;  MAXMIX= -45

 Intra band minimization:
   WEIMIN = 0.0010     energy-eigenvalue tresh-hold
   EBREAK =  0.40E-08  absolut break condition
   DEPER  =   0.30     relativ break condition  

   TIME   =   0.40     timestep for ELM

  volume/ion in A,a.u.               =      26.73       180.38
  Fermi-wavevector in a.u.,A,eV,Ry     =   1.163891  2.199434 18.431011  1.354641
  Thomas-Fermi vector in A             =   2.300435
 
 Write flags
   LWAVE        =      F    write WAVECAR
   LDOWNSAMPLE  =      F    k-point downsampling of WAVECAR
   LCHARG       =      F    write CHGCAR
   LVTOT        =      F    write LOCPOT, total local potential
   LVHAR        =      F    write LOCPOT, Hartree potential only
   LELF         =      F    write electronic localiz. function (ELF)
   LORBIT       =      0    0 simple, 1 ext, 2 COOP (PROOUT), +10 PAW based schemes


 Dipole corrections
   LMONO  =      F    monopole corrections only (constant potential shift)
   LDIPOL =      F    correct potential (dipole corrections)
   IDIPOL =      0    1-x, 2-y, 3-z, 4-all directions 
   EPSILON=  1.0000000 bulk dielectric constant

 Exchange correlation treatment:
   GGA     =    --    GGA type
   LEXCH   =     8    internal setting for exchange type
   VOSKOWN=      0    Vosko Wilk Nusair interpolation
   LHFCALC =     F    Hartree Fock is set to
   LHFONE  =     F    Hartree Fock one center treatment
   AEXX    =    0.0000 exact exchange contribution

 Linear response parameters
   LEPSILON=     F    determine dielectric tensor
   LRPA    =     F    only Hartree local field effects (RPA)
   LNABLA  =     F    use nabla operator in PAW spheres
   LVEL    =     F    velocity operator in full k-point grid
   LINTERFAST=   F  fast interpolation
   KINTER  =     0    interpolate to denser k-point grid
   CSHIFT  =0.1000    complex shift for real part using Kramers Kronig
   OMEGAMAX=  -1.0    maximum frequency
   DEG_THRESHOLD= 0.2000000E-02 threshold for treating states as degnerate
   RTIME   =   -0.100 relaxation time in fs
  (WPLASMAI=    0.000 imaginary part of plasma frequency in eV, 0.658/RTIME)
   DFIELD  = 0.0000000 0.0000000 0.0000000 field for delta impulse in time
 
 Orbital magnetization related:
   ORBITALMAG=     F  switch on orbital magnetization
   LCHIMAG   =     F  perturbation theory with respect to B field
   DQ        =  0.001000  dq finite difference perturbation B field
   LLRAUG    =     F  two centre corrections for induced B field



--------------------------------------------------------------------------------------------------------


 finite differences
   using selective dynamics as specified on POSCAR
   WARNING: If single coordinates had been selected the selection of coordinates
            is made according to the corresponding   d i r e c t   coordinates!
            Don't support selection of single cartesian coordinates -- sorry ...
  !
 charge density and potential will be updated during run
 spin polarized calculation
 RMM-DIIS sequential band-by-band and
  variant of blocked Davidson during initial phase
 perform sub-space diagonalisation
    before iterative eigenvector-optimisation
 modified Broyden-mixing scheme, WC =      100.0
 initial mixing is a Kerker type mixing with AMIX =  0.4000 and BMIX =      1.0000
 Hartree-type preconditioning will be used
 using additional bands          235
 real space projection scheme for non local part
 use partial core corrections
 calculate Harris-corrections to forces 
   (improved forces if not selfconsistent)
 use gradient corrections 
 use of overlap-Matrix (Vanderbilt PP)
 Fermi weights with tetrahedron method with Bloechl corrections


--------------------------------------------------------------------------------------------------------


  energy-cutoff  :      550.00
  volume of cell :     2165.05
      direct lattice vectors                 reciprocal lattice vectors
    10.659999847  0.000000000  0.000000000     0.093808632 -0.054160439  0.000000000
     5.329999924  9.231830672  0.000000000     0.000000000  0.108320878  0.000000000
     0.000000000  0.000000000 22.000000000     0.000000000  0.000000000  0.045454545

  length of vectors
    10.659999847 10.659999847 22.000000000     0.108320878  0.108320878  0.045454545


 
 k-points in units of 2pi/SCALE and weight: mesh auto                               
   0.00000000  0.00000000  0.00000000       0.250
   0.04690432 -0.02708022  0.00000000       0.250
   0.00000000  0.05416044  0.00000000       0.250
   0.04690432  0.02708022  0.00000000       0.250
 
 k-points in reciprocal lattice and weights: mesh auto                               
   0.00000000  0.00000000  0.00000000       0.250
   0.50000000 -0.00000000  0.00000000       0.250
   0.00000000  0.50000000  0.00000000       0.250
   0.50000000  0.50000000  0.00000000       0.250
 
 position of ions in fractional coordinates (direct lattice) 
   0.78779527  0.87796195  0.31732380
   0.04370236  0.88171447  0.31453490
   0.28057731  0.37963218  0.31877042
   0.87793850  0.96224999  0.42216095
   0.12388844  0.46199682  0.42656686
   0.12743452  0.95998128  0.41974668
   0.87807197  0.45738612  0.42562582
   0.37420726  0.96075643  0.41783953
   0.87651740  0.21055245  0.41882029
   0.12784493  0.21079207  0.42061957
   0.62653150  0.96235015  0.42841659
   0.87958500  0.70872016  0.42424368
   0.37616515  0.20959333  0.42281055
   0.37819528  0.71126640  0.42122817
   0.62834890  0.46214503  0.42013053
   0.12715990  0.71005255  0.42464698
   0.62789235  0.20942656  0.42040343
   0.54977536  0.37410044  0.31659153
   0.53680115  0.12256763  0.31580072
   0.54860226  0.12207837  0.04171946
   0.12037701  0.45967589  0.12832010
   0.04513354  0.13570610  0.31326755
   0.04184264  0.13051489  0.03430237
   0.13087669  0.95764103  0.13245935
   0.37725629  0.46020044  0.42416610
   0.45614781  0.54505391  0.21874120
   0.62644436  0.70854387  0.42822064
   0.95648631  0.78821354  0.22086456
   0.79359511  0.62300421  0.31962388
   0.29213570  0.62975302  0.31743310
   0.20280362  0.27964198  0.22532820
   0.70656100  0.54966397  0.22114812
   0.04131721  0.63038654  0.32458119
   0.79601056  0.86182010  0.04358326
   0.05654378  0.86511100  0.03922008
   0.04354811  0.63172365  0.03890931
   0.62768151  0.22351632  0.12936912
   0.38251648  0.95408414  0.13073287
   0.03613584  0.38353953  0.32381688
   0.02789537  0.38111357  0.03922688
   0.87238548  0.21524336  0.12909491
   0.95492323  0.54442329  0.22441770
   0.29889199  0.11428141  0.31988336
   0.54147370  0.62838419  0.32113837
   0.29593874  0.11566849  0.04109769
   0.54915757  0.62535345  0.04512996
   0.29444361  0.38188257  0.03954700
   0.62577798  0.94799811  0.13283874
   0.70705457  0.79349583  0.22076162
   0.86523064  0.70443471  0.12965162
   0.62674088  0.45978399  0.12791088
   0.29941256  0.87388600  0.31740147
   0.30656831  0.86859519  0.04153612
   0.62656079  0.71505450  0.12903147
   0.22633539  0.02707237  0.22708458
   0.54425403  0.38139876  0.03593963
   0.37883082  0.20414358  0.13341050
   0.13702030  0.70469682  0.13275664
   0.70536625  0.04978500  0.22080070
   0.79455830  0.12864003  0.31630429
   0.54072268  0.87127740  0.31786854
   0.79690904  0.12300803  0.03589815
   0.54639677  0.86991640  0.03703501
   0.20857612  0.54156661  0.22363659
   0.95168704  0.29757788  0.22163582
   0.87203635  0.96412677  0.12966428
   0.71619177  0.28931788  0.22360959
   0.45819236  0.29113746  0.22110086
   0.87549525  0.45703326  0.12894021
   0.12808024  0.20618715  0.12934578
   0.79201094  0.62176511  0.04149761
   0.29752238  0.62870438  0.04356032
   0.38614974  0.71252577  0.12966825
   0.38234618  0.45146388  0.12688447
   0.79468513  0.37896824  0.31981188
   0.79142063  0.37689392  0.04093851
   0.95609575  0.05305318  0.22142484
   0.45959986  0.79633445  0.22490978
   0.21600961  0.79658978  0.22450617
   0.46335745  0.02924231  0.22319825
   0.63048689  0.84283216  0.48009370
 
 position of ions in cartesian coordinates  (Angst):
  13.07743456  8.10519610  6.98112358
   5.16540520  8.13983871  6.91976784
   5.01439353  3.50470000  7.01294931
  14.48761669  8.88332897  9.28754087
   3.78309380  4.26507640  9.38447094
   6.47515217  8.86238467  9.23442698
  11.79811500  4.22251117  9.36376809
   9.10988100  8.86954067  9.19246965
  10.46591985  1.94378453  9.21404646
   2.48634861  1.94599669  9.25363063
  11.80815196  8.88425365  9.42516487
  13.15385436  6.54278450  9.33336095
   5.12705287  1.93493014  9.30183203
   7.82261147  6.56629099  9.26701981
   9.16143214  4.26644463  9.24287177
   5.14010457  6.55508490  9.34223360
   7.80957591  1.93339051  9.24887551
   7.85456057  3.45363187  6.96501361
   6.37558560  1.13152363  6.94761579
   6.49877769  1.12700682  0.91782815
   3.73329140  4.24365001  2.82304227
   1.20443708  1.25281575  6.89188603
   1.14168689  1.20489139  0.75465211
   6.49937211  8.84077982  2.91410569
   6.47442031  4.24849258  9.33165412
   7.76767287  5.03184543  4.81230643
  10.45443554  6.54115707  9.42085411
  14.39732202  7.27665393  4.85902021
  11.78033614  5.75146935  7.03172546
   6.47075008  5.81377328  6.98352818
   3.65237830  2.58160737  4.95722050
  10.46164906  5.07440471  4.86525854
   3.80040162  5.81962178  7.14078626
  13.07897347  7.95617723  0.95883175
   5.21379828  7.98655826  0.86284167
   3.83130979  5.83196573  0.85600479
   7.88242681  2.06346482  2.84612068
   9.16289403  8.80794326  2.87612304
   2.42947373  3.54077201  7.12397128
   2.32869997  3.51837592  0.86299137
  10.44687620  1.98709023  2.84008810
  13.08125759  5.02602360  4.93718942
   3.79530849  1.05502667  7.03743391
   9.12139718  5.80113641  7.06504414
   3.77121995  1.06783187  0.90414915
   9.18715339  5.77315714  0.99285907
   5.17420286  3.52547522  0.87003394
  11.72362308  8.75175804  2.92245229
  11.76653431  7.32541915  4.85675560
  12.97799537  6.50322193  2.85233561
   9.13170631  4.24464793  2.81403934
   7.84955021  8.06756760  6.98283231
   7.89763048  8.01872375  0.91379463
  10.49037833  6.60126203  2.83869239
   2.55703100  0.24992756  4.99586068
   7.83460323  3.52100880  0.79067188
   5.12642169  1.88461893  2.93503107
   5.21667036  6.50564171  2.92064609
   7.78455821  0.45960669  4.85761541
   9.15564273  1.18758294  6.95869433
  10.40801219  8.04348542  6.99310796
   9.15068307  1.13558928  0.78975929
  10.46124387  8.03092093  0.81477030
   5.10997143  4.99965124  4.92000491
  11.73107378  2.74718859  4.87598804
  14.43470298  8.90065509  2.85261421
   9.17666846  2.67093372  4.91941093
   6.43609313  2.68773171  4.86421883
  11.76876646  4.21925362  2.83668457
   2.46431279  1.90348482  2.84560726
  11.75684446  5.74003023  0.91294740
   6.52258279  5.80409234  0.95832694
   7.91411848  6.57791728  2.85270146
   6.48211261  4.16783809  2.79145838
  10.49124410  3.49857062  7.03586135
  10.44538833  3.47942085  0.90064720
  10.47475404  0.48977799  4.87134655
   9.14379696  7.35162476  4.94801523
   6.54848587  7.35398196  4.93913572
   5.09525187  0.26996002  4.91036142
  11.21328548  7.78088374 10.56206145
 


--------------------------------------------------------------------------------------------------------


 k-point  1 :   0.0000 0.0000 0.0000  plane waves:   63475
 k-point  2 :   0.5000-0.0000 0.0000  plane waves:   63428
 k-point  3 :   0.0000 0.5000 0.0000  plane waves:   63428
 k-point  4 :   0.5000 0.5000 0.0000  plane waves:   63428

 maximum and minimum number of plane-waves per node :     63475    63428

 maximum number of plane-waves:     63475
 maximum index in each direction: 
   IXMAX=   20   IYMAX=   20   IZMAX=   42
   IXMIN=  -20   IYMIN=  -20   IZMIN=  -42


 serial   3D FFT for wavefunctions
 parallel 3D FFT for charge:
    minimum data exchange during FFTs selected (reduces bandwidth)


 total amount of memory used by VASP MPI-rank0   369866. kBytes
=======================================================================

   base      :      30000. kBytes
   nonlr-proj:      96563. kBytes
   fftplans  :      12162. kBytes
   grid      :     120476. kBytes
   one-center:       2519. kBytes
   wavefun   :     108146. kBytes
 
     INWAV:  cpu time    0.0000: real time    0.0004
 Broyden mixing: mesh for mixing (old mesh)
   NGX = 41   NGY = 41   NGZ = 85
  (NGX  =168   NGY  =168   NGZ  =336)
  gives a total of 142885 points

 initial charge density was supplied:
 charge density of overlapping atoms calculated
 number of electron     778.0000000 magnetization     231.0000000
 keeping initial charge density in first step


--------------------------------------------------------------------------------------------------------


 Maximum index for non-local projection operator         7407
 Maximum index for augmentation-charges         1445 (set IRDMAX)


--------------------------------------------------------------------------------------------------------


 First call to EWALD:  gamma=   0.137
 Maximum number of real-space cells 4x 4x 2
 Maximum number of reciprocal cells 2x 2x 4

    FEWALD:  cpu time    0.0044: real time    0.0044


--------------------------------------- Iteration      1(   1)  ---------------------------------------


    POTLOK:  cpu time    0.4853: real time    0.4877
    SETDIJ:  cpu time    0.0366: real time    0.0367
     EDDAV:  cpu time   59.9998: real time   60.2459
 BZINTS: Fermi energy: 17.496665;778.000000 electrons
         Band energy:7818.100082;  BLOECHL correction: -0.020559
       DOS:  cpu time    0.0274: real time    0.0436
    --------------------------------------------
      LOOP:  cpu time   60.5491: real time   60.8140

 eigenvalue-minimisations  :  9984
 total energy-change (2. order) : 0.7571526E+04  (-0.3345097E+05)
 number of electron     778.0000000 magnetization     231.0000000
 augmentation part      778.0000000 magnetization     231.0000000

 Free energy of the ion-electron system (eV)
  ---------------------------------------------------
  alpha Z        PSCENC =      2197.15539535
  Ewald energy   TEWEN  =    222477.57352375
  -Hartree energ DENC   =   -294622.47781298
  -exchange      EXHF   =         0.00000000
  -V(xc)+E(xc)   XCENC  =      1384.42855536
  PAW double counting   =     64136.80006862   -66038.70876209
  entropy T*S    EENTRO =         0.00000000
  eigenvalues    EBANDS =      7818.10008155
  atomic energy  EATOM  =     70218.65458108
  Solvation  Ediel_sol  =         0.00000000
  ---------------------------------------------------
  free energy    TOTEN  =      7571.52563064 eV

  energy without entropy =     7571.52563064  energy(sigma->0) =     7571.52563064


--------------------------------------------------------------------------------------------------------




--------------------------------------- Iteration      1(   2)  ---------------------------------------


     EDDAV:  cpu time   60.5809: real time   60.7517
 BZINTS: Fermi energy:  5.730371;778.000000 electrons
         Band energy: 880.915478;  BLOECHL correction: -0.072483
       DOS:  cpu time    0.0416: real time    0.0677
    --------------------------------------------
      LOOP:  cpu time   60.6225: real time   60.8194

 eigenvalue-minimisations  : 10176
 total energy-change (2. order) :-0.6937185E+04  (-0.6149202E+04)
 number of electron     778.0000000 magnetization     231.0000000
 augmentation part      778.0000000 magnetization     231.0000000

 Free energy of the ion-electron system (eV)
  ---------------------------------------------------
  alpha Z        PSCENC =      2197.15539535
  Ewald energy   TEWEN  =    222477.57352375
  -Hartree energ DENC   =   -294622.47781298
  -exchange      EXHF   =         0.00000000
  -V(xc)+E(xc)   XCENC  =      1384.42855536
  PAW double counting   =     64136.80006862   -66038.70876209
  entropy T*S    EENTRO =         0.00000000
  eigenvalues    EBANDS =       880.91547760
  atomic energy  EATOM  =     70218.65458108
  Solvation  Ediel_sol  =         0.00000000
  ---------------------------------------------------
  free energy    TOTEN  =       634.34102669 eV

  energy without entropy =      634.34102669  energy(sigma->0) =      634.34102669


--------------------------------------------------------------------------------------------------------




--------------------------------------- Iteration      1(   3)  ---------------------------------------


     EDDAV:  cpu time   60.5240: real time   60.6995
 BZINTS: Fermi energy:  3.427861;778.000000 electrons
         Band energy:-184.123700;  BLOECHL correction: -0.030003
       DOS:  cpu time    0.0244: real time    0.0251
    --------------------------------------------
      LOOP:  cpu time   60.5484: real time   60.7246

 eigenvalue-minimisations  : 10176
 total energy-change (2. order) :-0.1065039E+04  (-0.8904609E+03)
 number of electron     778.0000000 magnetization     231.0000000
 augmentation part      778.0000000 magnetization     231.0000000

 Free energy of the ion-electron system (eV)
  ---------------------------------------------------
  alpha Z        PSCENC =      2197.15539535
  Ewald energy   TEWEN  =    222477.57352375
  -Hartree energ DENC   =   -294622.47781298
  -exchange      EXHF   =         0.00000000
  -V(xc)+E(xc)   XCENC  =      1384.42855536
  PAW double counting   =     64136.80006862   -66038.70876209
  entropy T*S    EENTRO =         0.00000000
  eigenvalues    EBANDS =      -184.12370047
  atomic energy  EATOM  =     70218.65458108
  Solvation  Ediel_sol  =         0.00000000
  ---------------------------------------------------
  free energy    TOTEN  =      -430.69815138 eV

  energy without entropy =     -430.69815138  energy(sigma->0) =     -430.69815138


--------------------------------------------------------------------------------------------------------




--------------------------------------- Iteration      1(   4)  ---------------------------------------


     EDDAV:  cpu time   70.1227: real time   70.3345
 BZINTS: Fermi energy:  3.302067;778.000000 electrons
         Band energy:-248.811948;  BLOECHL correction: -0.015174
       DOS:  cpu time    0.0277: real time    0.0353
    --------------------------------------------
      LOOP:  cpu time   70.1504: real time   70.3698

 eigenvalue-minimisations  : 12192
 total energy-change (2. order) :-0.6468825E+02  (-0.6229450E+02)
 number of electron     778.0000000 magnetization     231.0000000
 augmentation part      778.0000000 magnetization     231.0000000

 Free energy of the ion-electron system (eV)
  ---------------------------------------------------
  alpha Z        PSCENC =      2197.15539535
  Ewald energy   TEWEN  =    222477.57352375
  -Hartree energ DENC   =   -294622.47781298
  -exchange      EXHF   =         0.00000000
  -V(xc)+E(xc)   XCENC  =      1384.42855536
  PAW double counting   =     64136.80006862   -66038.70876209
  entropy T*S    EENTRO =         0.00000000
  eigenvalues    EBANDS =      -248.81194825
  atomic energy  EATOM  =     70218.65458108
  Solvation  Ediel_sol  =         0.00000000
  ---------------------------------------------------
  free energy    TOTEN  =      -495.38639916 eV

  energy without entropy =     -495.38639916  energy(sigma->0) =     -495.38639916


--------------------------------------------------------------------------------------------------------




--------------------------------------- Iteration      1(   5)  ---------------------------------------


     EDDAV:  cpu time   70.2835: real time   72.1872
 BZINTS: Fermi energy:  3.298359;778.000000 electrons
         Band energy:-250.943443;  BLOECHL correction: -0.015314
       DOS:  cpu time    0.0267: real time    0.0343
    CHARGE:  cpu time    2.7214: real time    2.7288
    MIXING:  cpu time    0.0122: real time    0.0124
    --------------------------------------------
      LOOP:  cpu time   73.0440: real time   74.9627

 eigenvalue-minimisations  : 12144
 total energy-change (2. order) :-0.2131495E+01  (-0.2126040E+01)
 number of electron     778.0000026 magnetization     216.5695357
 augmentation part      334.9615776 magnetization     184.0147688

 Broyden mixing:
  rms(total) = 0.11727E+02    rms(broyden)= 0.11726E+02
  rms(prec ) = 0.12046E+02
  weight for this iteration     100.00

 Free energy of the ion-electron system (eV)
  ---------------------------------------------------
  alpha Z        PSCENC =      2197.15539535
  Ewald energy   TEWEN  =    222477.57352375
  -Hartree energ DENC   =   -294622.47781298
  -exchange      EXHF   =         0.00000000
  -V(xc)+E(xc)   XCENC  =      1384.42855536
  PAW double counting   =     64136.80006862   -66038.70876209
  entropy T*S    EENTRO =         0.00000000
  eigenvalues    EBANDS =      -250.94344282
  atomic energy  EATOM  =     70218.65458108
  Solvation  Ediel_sol  =         0.00000000
  ---------------------------------------------------
  free energy    TOTEN  =      -497.51789373 eV

  energy without entropy =     -497.51789373  energy(sigma->0) =     -497.51789373


--------------------------------------------------------------------------------------------------------




--------------------------------------- Iteration      1(   6)  ---------------------------------------


    POTLOK:  cpu time    0.4483: real time    0.4511
    SETDIJ:  cpu time    0.0358: real time    0.0360
    EDDIAG:  cpu time    9.9303: real time    9.9619
  RMM-DIIS:  cpu time   37.3100: real time   37.4223
    ORTHCH:  cpu time    1.6295: real time    1.6446
 BZINTS: Fermi energy:  1.563210;778.000000 electrons
         Band energy:***********;  BLOECHL correction: -0.040088
       DOS:  cpu time    0.0297: real time    0.0298
    CHARGE:  cpu time    2.6956: real time    2.7028
    MIXING:  cpu time    0.0124: real time    0.0146
    --------------------------------------------
      LOOP:  cpu time   52.0917: real time   52.2633

 eigenvalue-minimisations  : 10032
 total energy-change (2. order) :-0.1676911E+03  (-0.8412689E+02)
 number of electron     778.0000032 magnetization     212.5018122
 augmentation part      406.4604423 magnetization     179.7313039

 Broyden mixing:
  rms(total) = 0.19730E+02    rms(broyden)= 0.19730E+02
  rms(prec ) = 0.25639E+02
  weight for this iteration     100.00

 eigenvalues of (default mixing * dielectric matrix)
  average eigenvalue GAMMA=   0.2236
  0.2236

 Free energy of the ion-electron system (eV)
  ---------------------------------------------------
  alpha Z        PSCENC =      2197.15539535
  Ewald energy   TEWEN  =    222477.57352375
  -Hartree energ DENC   =   -293004.54820492
  -exchange      EXHF   =         0.00000000
  -V(xc)+E(xc)   XCENC  =      1337.86896127
  PAW double counting   =     68927.62577367   -70618.95055649
  entropy T*S    EENTRO =         0.00000000
  eigenvalues    EBANDS =     -2200.58843085
  atomic energy  EATOM  =     70218.65458108
  Solvation  Ediel_sol  =         0.00000000
  ---------------------------------------------------
  free energy    TOTEN  =      -665.20895715 eV

  energy without entropy =     -665.20895715  energy(sigma->0) =     -665.20895715


--------------------------------------------------------------------------------------------------------




--------------------------------------- Iteration      1(   7)  ---------------------------------------


    POTLOK:  cpu time    0.4468: real time    0.4901
    SETDIJ:  cpu time    0.0360: real time    0.0360
    EDDIAG:  cpu time    9.9698: real time    9.9990
  RMM-DIIS:  cpu time   37.2939: real time   37.3953
    ORTHCH:  cpu time    1.6312: real time    1.6525
 BZINTS: Fermi energy:  2.988260;778.000000 electrons
         Band energy:***********;  BLOECHL correction: -0.012153
       DOS:  cpu time    0.0288: real time    0.0289
    CHARGE:  cpu time    2.7112: real time    2.7270
    MIXING:  cpu time    0.0126: real time    0.0128
    --------------------------------------------
      LOOP:  cpu time   52.1304: real time   52.3417

 eigenvalue-minimisations  :  9998
 total energy-change (2. order) : 0.1259936E+03  (-0.1456034E+02)
 number of electron     778.0000038 magnetization     207.8560433
 augmentation part      366.3835506 magnetization     165.4353454

 Broyden mixing:
  rms(total) = 0.15605E+02    rms(broyden)= 0.15605E+02
  rms(prec ) = 0.21033E+02
  weight for this iteration     100.00

 eigenvalues of (default mixing * dielectric matrix)
  average eigenvalue GAMMA=   0.2667
  0.3674  0.1661

 Free energy of the ion-electron system (eV)
  ---------------------------------------------------
  alpha Z        PSCENC =      2197.15539535
  Ewald energy   TEWEN  =    222477.57352375
  -Hartree energ DENC   =   -293694.62241603
  -exchange      EXHF   =         0.00000000
  -V(xc)+E(xc)   XCENC  =      1358.17161221
  PAW double counting   =     69970.26280974   -71821.69834841
  entropy T*S    EENTRO =         0.00000000
  eigenvalues    EBANDS =     -1244.71246569
  atomic energy  EATOM  =     70218.65458108
  Solvation  Ediel_sol  =         0.00000000
  ---------------------------------------------------
  free energy    TOTEN  =      -539.21530801 eV

  energy without entropy =     -539.21530801  energy(sigma->0) =     -539.21530801


--------------------------------------------------------------------------------------------------------




--------------------------------------- Iteration      1(   8)  ---------------------------------------


    POTLOK:  cpu time    0.4632: real time    0.4654
    SETDIJ:  cpu time    0.0388: real time    0.0389
    EDDIAG:  cpu time    9.9760: real time   10.0062
  RMM-DIIS:  cpu time   37.2542: real time   37.3555
    ORTHCH:  cpu time    1.6194: real time    1.6417
 BZINTS: Fermi energy:  2.599774;778.000000 electrons
         Band energy:-855.463175;  BLOECHL correction: -0.004665
       DOS:  cpu time    0.0265: real time    0.0265
    CHARGE:  cpu time    2.6567: real time    2.6918
    MIXING:  cpu time    0.0126: real time    0.0128
    --------------------------------------------
      LOOP:  cpu time   52.0473: real time   52.2388

 eigenvalue-minimisations  : 10010
 total energy-change (2. order) : 0.6075281E+02  (-0.9206967E+01)
[...]
      9.121397  5.801136  7.065044            0           0           0  
      3.771220  1.067832  0.904149            0           0           0  
      9.187153  5.773157  0.992859            0           0           0  
      5.174203  3.525475  0.870034            0           0           0  
     11.723623  8.751758  2.922452            0           0           0  
     11.766534  7.325419  4.856756            0           0           0  
     12.977995  6.503222  2.852336            0           0           0  
      9.131706  4.244648  2.814039            0           0           0  
      7.849550  8.067568  6.982832            0           0           0  
      7.897630  8.018724  0.913795            0           0           0  
     10.490378  6.601262  2.838692            0           0           0  
      2.557031  0.249928  4.995861            0           0           0  
      7.834603  3.521009  0.790672            0           0           0  
      5.126422  1.884619  2.935031            0           0           0  
      5.216670  6.505642  2.920646            0           0           0  
      7.784558  0.459607  4.857615            0           0           0  
      9.155643  1.187583  6.958694            0           0           0  
     10.408012  8.043485  6.993108            0           0           0  
      9.150683  1.135589  0.789759            0           0           0  
     10.461244  8.030921  0.814770            0           0           0  
      5.109971  4.999651  4.920005            0           0           0  
     11.731074  2.747189  4.875988            0           0           0  
     14.434703  8.900655  2.852614            0           0           0  
      9.176668  2.670934  4.919411            0           0           0  
      6.436093  2.687732  4.864219            0           0           0  
     11.768766  4.219254  2.836685            0           0           0  
      2.464313  1.903485  2.845607            0           0           0  
     11.756844  5.740030  0.912947            0           0           0  
      6.522583  5.804092  0.958327            0           0           0  
      7.914118  6.577917  2.852701            0           0           0  
      6.482113  4.167838  2.791458            0           0           0  
     10.491244  3.498571  7.035861            0           0           0  
     10.445388  3.479421  0.900647            0           0           0  
     10.474754  0.489778  4.871347            0           0           0  
      9.143797  7.351625  4.948015            0           0           0  
      6.548486  7.353982  4.939136            0           0           0  
      5.095252  0.269960  4.910361            0           0           0  
     11.213285  7.780884 10.562061    -0.172584   -0.351365    0.920194  
 
   2 f  =   19.679967 THz   123.652883 2PiTHz  656.453035 cm-1    81.389833 meV
             X         Y         Z           dx          dy          dz
     13.077435  8.105196  6.981124            0           0           0  
      5.165405  8.139839  6.919768            0           0           0  
      5.014394  3.504700  7.012949            0           0           0  
     14.487617  8.883329  9.287541            0           0           0  
      3.783094  4.265076  9.384471            0           0           0  
      6.475152  8.862385  9.234427            0           0           0  
     11.798115  4.222511  9.363768            0           0           0  
      9.109881  8.869541  9.192470            0           0           0  
     10.465920  1.943785  9.214046            0           0           0  
      2.486349  1.945997  9.253631            0           0           0  
     11.808152  8.884254  9.425165            0           0           0  
     13.153854  6.542784  9.333361            0           0           0  
      5.127053  1.934930  9.301832            0           0           0  
      7.822611  6.566291  9.267020            0           0           0  
      9.161432  4.266445  9.242872            0           0           0  
      5.140105  6.555085  9.342234            0           0           0  
      7.809576  1.933391  9.248876            0           0           0  
      7.854561  3.453632  6.965014            0           0           0  
      6.375586  1.131524  6.947616            0           0           0  
      6.498778  1.127007  0.917828            0           0           0  
      3.733291  4.243650  2.823042            0           0           0  
      1.204437  1.252816  6.891886            0           0           0  
      1.141687  1.204891  0.754652            0           0           0  
      6.499372  8.840780  2.914106            0           0           0  
      6.474420  4.248493  9.331654            0           0           0  
      7.767673  5.031845  4.812306            0           0           0  
     10.454436  6.541157  9.420854            0           0           0  
     14.397322  7.276654  4.859020            0           0           0  
     11.780336  5.751469  7.031725            0           0           0  
      6.470750  5.813773  6.983528            0           0           0  
      3.652378  2.581607  4.957220            0           0           0  
     10.461649  5.074405  4.865259            0           0           0  
      3.800402  5.819622  7.140786            0           0           0  
     13.078973  7.956177  0.958832            0           0           0  
      5.213798  7.986558  0.862842            0           0           0  
      3.831310  5.831966  0.856005            0           0           0  
      7.882427  2.063465  2.846121            0           0           0  
      9.162894  8.807943  2.876123            0           0           0  
      2.429474  3.540772  7.123971            0           0           0  
      2.328700  3.518376  0.862991            0           0           0  
     10.446876  1.987090  2.840088            0           0           0  
     13.081258  5.026024  4.937189            0           0           0  
      3.795308  1.055027  7.037434            0           0           0  
      9.121397  5.801136  7.065044            0           0           0  
      3.771220  1.067832  0.904149            0           0           0  
      9.187153  5.773157  0.992859            0           0           0  
      5.174203  3.525475  0.870034            0           0           0  
     11.723623  8.751758  2.922452            0           0           0  
     11.766534  7.325419  4.856756            0           0           0  
     12.977995  6.503222  2.852336            0           0           0  
      9.131706  4.244648  2.814039            0           0           0  
      7.849550  8.067568  6.982832            0           0           0  
      7.897630  8.018724  0.913795            0           0           0  
     10.490378  6.601262  2.838692            0           0           0  
      2.557031  0.249928  4.995861            0           0           0  
      7.834603  3.521009  0.790672            0           0           0  
      5.126422  1.884619  2.935031            0           0           0  
      5.216670  6.505642  2.920646            0           0           0  
      7.784558  0.459607  4.857615            0           0           0  
      9.155643  1.187583  6.958694            0           0           0  
     10.408012  8.043485  6.993108            0           0           0  
      9.150683  1.135589  0.789759            0           0           0  
     10.461244  8.030921  0.814770            0           0           0  
      5.109971  4.999651  4.920005            0           0           0  
     11.731074  2.747189  4.875988            0           0           0  
     14.434703  8.900655  2.852614            0           0           0  
      9.176668  2.670934  4.919411            0           0           0  
      6.436093  2.687732  4.864219            0           0           0  
     11.768766  4.219254  2.836685            0           0           0  
      2.464313  1.903485  2.845607            0           0           0  
     11.756844  5.740030  0.912947            0           0           0  
      6.522583  5.804092  0.958327            0           0           0  
      7.914118  6.577917  2.852701            0           0           0  
      6.482113  4.167838  2.791458            0           0           0  
     10.491244  3.498571  7.035861            0           0           0  
     10.445388  3.479421  0.900647            0           0           0  
     10.474754  0.489778  4.871347            0           0           0  
      9.143797  7.351625  4.948015            0           0           0  
      6.548486  7.353982  4.939136            0           0           0  
      5.095252  0.269960  4.910361            0           0           0  
     11.213285  7.780884 10.562061     0.419086    0.819243    0.391419  
 
   3 f  =    9.350197 THz    58.749019 2PiTHz  311.888986 cm-1    38.669320 meV
             X         Y         Z           dx          dy          dz
     13.077435  8.105196  6.981124            0           0           0  
      5.165405  8.139839  6.919768            0           0           0  
      5.014394  3.504700  7.012949            0           0           0  
     14.487617  8.883329  9.287541            0           0           0  
      3.783094  4.265076  9.384471            0           0           0  
      6.475152  8.862385  9.234427            0           0           0  
     11.798115  4.222511  9.363768            0           0           0  
      9.109881  8.869541  9.192470            0           0           0  
     10.465920  1.943785  9.214046            0           0           0  
      2.486349  1.945997  9.253631            0           0           0  
     11.808152  8.884254  9.425165            0           0           0  
     13.153854  6.542784  9.333361            0           0           0  
      5.127053  1.934930  9.301832            0           0           0  
      7.822611  6.566291  9.267020            0           0           0  
      9.161432  4.266445  9.242872            0           0           0  
      5.140105  6.555085  9.342234            0           0           0  
      7.809576  1.933391  9.248876            0           0           0  
      7.854561  3.453632  6.965014            0           0           0  
      6.375586  1.131524  6.947616            0           0           0  
      6.498778  1.127007  0.917828            0           0           0  
      3.733291  4.243650  2.823042            0           0           0  
      1.204437  1.252816  6.891886            0           0           0  
      1.141687  1.204891  0.754652            0           0           0  
      6.499372  8.840780  2.914106            0           0           0  
      6.474420  4.248493  9.331654            0           0           0  
      7.767673  5.031845  4.812306            0           0           0  
     10.454436  6.541157  9.420854            0           0           0  
     14.397322  7.276654  4.859020            0           0           0  
     11.780336  5.751469  7.031725            0           0           0  
      6.470750  5.813773  6.983528            0           0           0  
      3.652378  2.581607  4.957220            0           0           0  
     10.461649  5.074405  4.865259            0           0           0  
      3.800402  5.819622  7.140786            0           0           0  
     13.078973  7.956177  0.958832            0           0           0  
      5.213798  7.986558  0.862842            0           0           0  
      3.831310  5.831966  0.856005            0           0           0  
      7.882427  2.063465  2.846121            0           0           0  
      9.162894  8.807943  2.876123            0           0           0  
      2.429474  3.540772  7.123971            0           0           0  
      2.328700  3.518376  0.862991            0           0           0  
     10.446876  1.987090  2.840088            0           0           0  
     13.081258  5.026024  4.937189            0           0           0  
      3.795308  1.055027  7.037434            0           0           0  
      9.121397  5.801136  7.065044            0           0           0  
      3.771220  1.067832  0.904149            0           0           0  
      9.187153  5.773157  0.992859            0           0           0  
      5.174203  3.525475  0.870034            0           0           0  
     11.723623  8.751758  2.922452            0           0           0  
     11.766534  7.325419  4.856756            0           0           0  
     12.977995  6.503222  2.852336            0           0           0  
      9.131706  4.244648  2.814039            0           0           0  
      7.849550  8.067568  6.982832            0           0           0  
      7.897630  8.018724  0.913795            0           0           0  
     10.490378  6.601262  2.838692            0           0           0  
      2.557031  0.249928  4.995861            0           0           0  
      7.834603  3.521009  0.790672            0           0           0  
      5.126422  1.884619  2.935031            0           0           0  
      5.216670  6.505642  2.920646            0           0           0  
      7.784558  0.459607  4.857615            0           0           0  
      9.155643  1.187583  6.958694            0           0           0  
     10.408012  8.043485  6.993108            0           0           0  
      9.150683  1.135589  0.789759            0           0           0  
     10.461244  8.030921  0.814770            0           0           0  
      5.109971  4.999651  4.920005            0           0           0  
     11.731074  2.747189  4.875988            0           0           0  
     14.434703  8.900655  2.852614            0           0           0  
      9.176668  2.670934  4.919411            0           0           0  
      6.436093  2.687732  4.864219            0           0           0  
     11.768766  4.219254  2.836685            0           0           0  
      2.464313  1.903485  2.845607            0           0           0  
     11.756844  5.740030  0.912947            0           0           0  
      6.522583  5.804092  0.958327            0           0           0  
      7.914118  6.577917  2.852701            0           0           0  
      6.482113  4.167838  2.791458            0           0           0  
     10.491244  3.498571  7.035861            0           0           0  
     10.445388  3.479421  0.900647            0           0           0  
     10.474754  0.489778  4.871347            0           0           0  
      9.143797  7.351625  4.948015            0           0           0  
      6.548486  7.353982  4.939136            0           0           0  
      5.095252  0.269960  4.910361            0           0           0  
     11.213285  7.780884 10.562061     0.891393   -0.453193   -0.005864  
 
 Finite differences POTIM=  1.500000000000000E-002
  LATTYP: Found a hexagonal cell.
 ALAT       =    10.6599998474
 C/A-ratio  =     2.0637898982
  
  Lattice vectors:
  
 A1 = (   5.3299999237,  -9.2318306722,   0.0000000000)
 A2 = ( -10.6599998474,   0.0000000000,   0.0000000000)
 A3 = (   0.0000000000,   0.0000000000, -22.0000000000)


Analysis of symmetry for initial positions (statically):
=====================================================================
 Subroutine PRICEL returns:
 Original cell was already a primitive cell.
 

 Routine SETGRP: Setting up the symmetry group for a 
 hexagonal supercell.


 Subroutine GETGRP returns: Found  1 space group operations
 (whereof  1 operations were pure point group operations)
 out of a pool of 24 trial point group operations.


The static configuration has the point symmetry C_1 .


Analysis of symmetry for dynamics (positions and initial velocities):
=====================================================================
 Subroutine PRICEL returns:
 Original cell was already a primitive cell.
 

 Routine SETGRP: Setting up the symmetry group for a 
 hexagonal supercell.


 Subroutine GETGRP returns: Found  1 space group operations
 (whereof  1 operations were pure point group operations)
 out of a pool of 24 trial point group operations.


The dynamic configuration has the point symmetry C_1 .


Analysis of constrained symmetry for selective dynamics:
=====================================================================
 Subroutine PRICEL returns:
 Original cell was already a primitive cell.
 

 Routine SETGRP: Setting up the symmetry group for a 
 hexagonal supercell.


 Subroutine GETGRP returns: Found  1 space group operations
 (whereof  1 operations were pure point group operations)
 out of a pool of 24 trial point group operations.


The constrained configuration has the point symmetry C_1 .


Analysis of structural, dynamic, and magnetic symmetry:
=====================================================================
 Subroutine PRICEL returns:
 Original cell was already a primitive cell.
 

 Routine SETGRP: Setting up the symmetry group for a 
 hexagonal supercell.


 Subroutine GETGRP returns: Found  1 space group operations
 (whereof  1 operations were pure point group operations)
 out of a pool of 24 trial point group operations.


The magnetic configuration has the point symmetry C_1 .


 Subroutine INISYM returns: Found  1 space group operations
 (whereof  1 operations are pure point group operations),
 and found     1 'primitive' translations

 
 KPOINTS: mesh auto                               

Automatic generation of k-mesh.
Space group operators:
 irot       det(A)        alpha          n_x          n_y          n_z        tau_x        tau_y        tau_z
    1     1.000000     0.000000     1.000000     0.000000     0.000000     0.000000     0.000000     0.000000
 
 Subroutine IBZKPT returns following result:
 ===========================================
 
 Found      4 irreducible k-points:
 
 Following reciprocal coordinates:
            Coordinates               Weight
  0.000000  0.000000  0.000000      1.000000
  0.500000 -0.000000  0.000000      1.000000
  0.000000  0.500000  0.000000      1.000000
  0.500000  0.500000  0.000000      1.000000
 
 Following cartesian coordinates:
            Coordinates               Weight
  0.000000  0.000000  0.000000      1.000000
  0.046904 -0.027080  0.000000      1.000000
  0.000000  0.054160  0.000000      1.000000
  0.046904  0.027080  0.000000      1.000000
 
 TETIRR: Found     12 inequivalent tetrahedra from       24
     LOOP+:  cpu time  716.9925: real time  720.0265
    4ORBIT:  cpu time    0.0000: real time    0.0000
 BZINTS: Fermi energy:  1.936502;778.000000 electrons
         Band energy:-740.506781;  BLOECHL correction: -0.278824

 total amount of memory used by VASP MPI-rank0   369866. kBytes
=======================================================================

   base      :      30000. kBytes
   nonlr-proj:      96563. kBytes
   fftplans  :      12162. kBytes
   grid      :     120476. kBytes
   one-center:       2519. kBytes
   wavefun   :     108146. kBytes
 
  
  
 General timing and accounting informations for this job:
 ========================================================
  
                  Total CPU time used (sec):     8432.091
                            User time (sec):     8352.546
                          System time (sec):       79.545
                         Elapsed time (sec):     8592.294
  
                   Maximum memory used (kb):      689164.
                   Average memory used (kb):           0.
  
                          Minor page faults:     22918780
                          Major page faults:          178
                 Voluntary context switches:         9009
