 vasp.5.4.4.18Apr17-6-g9f103f2a35 (build Oct 25 2019 11:13:22) complex          
  
 executed on             LinuxIFC date 2022.02.05  08:53:00
 running on   48 total cores
 distrk:  each k-point on   48 cores,    1 groups
 distr:  one band on NCORES_PER_BAND=   1 cores,   48 groups


--------------------------------------------------------------------------------------------------------


 INCAR:
 POTCAR:    PAW_PBE Pt 04Feb2005                  
 POTCAR:    PAW_PBE Fe 06Sep2000                  
 POTCAR:    PAW_PBE Co 02Aug2007                  
 POTCAR:    PAW_PBE Cu 22Jun2005                  
 POTCAR:    PAW_PBE Ni 02Aug2007                  
 POTCAR:    PAW_PBE H 15Jun2001                   

 ----------------------------------------------------------------------------- 
|                                                                             |
|           W    W    AA    RRRRR   N    N  II  N    N   GGGG   !!!           |
|           W    W   A  A   R    R  NN   N  II  NN   N  G    G  !!!           |
|           W    W  A    A  R    R  N N  N  II  N N  N  G       !!!           |
|           W WW W  AAAAAA  RRRRR   N  N N  II  N  N N  G  GGG   !            |
|           WW  WW  A    A  R   R   N   NN  II  N   NN  G    G                |
|           W    W  A    A  R    R  N    N  II  N    N   GGGG   !!!           |
|                                                                             |
|      For optimal performance we recommend to set                            |
|        NCORE= 4 - approx SQRT( number of cores)                             |
|      NCORE specifies how many cores store one orbital (NPAR=cpu/NCORE).     |
|      This setting can  greatly improve the performance of VASP for DFT.     |
|      The default,   NCORE=1            might be grossly inefficient         |
|      on modern multi-core architectures or massively parallel machines.     |
|      Do your own testing !!!!                                               |
|      Unfortunately you need to use the default for GW and RPA calculations. |
|      (for HF NCORE is supported but not extensively tested yet)             |
|                                                                             |
 ----------------------------------------------------------------------------- 

 POTCAR:    PAW_PBE Pt 04Feb2005                  
   VRHFIN =Pt: s1d9                                                             
   LEXCH  = PE                                                                  
   EATOM  =   729.1176 eV,   53.5886 Ry                                         
                                                                                
   TITEL  = PAW_PBE Pt 04Feb2005                                                
   LULTRA =        F    use ultrasoft PP ?                                      
   IUNSCR =        1    unscreen: 0-lin 1-nonlin 2-no                           
   RPACOR =    2.330    partial core radius                                     
   POMASS =  195.080; ZVAL   =   10.000    mass and valenz                      
   RCORE  =    2.600    outmost cutoff radius                                   
   RWIGS  =    2.750; RWIGS  =    1.455    wigner-seitz radius (au A)           
   ENMAX  =  230.283; ENMIN  =  172.712 eV                                      
   ICORE  =        3    local potential                                         
   LCOR   =        T    correct aug charges                                     
   LPAW   =        T    paw PP                                                  
   EAUG   =  358.966                                                            
   DEXC   =    0.000                                                            
   RMAX   =    2.658    core radius for proj-oper                               
   RAUG   =    1.300    factor for augmentation sphere                          
   RDEP   =    2.761    radius for radial grids                                 
   RDEPT  =    2.203    core radius for aug-charge                              
                                                                                
   Atomic configuration                                                         
   16 entries                                                                   
     n  l   j            E        occ.                                          
     1  0  0.50    -78401.1885   2.0000                                         
     2  0  0.50    -13770.7750   2.0000                                         
     2  1  1.50    -11931.0468   6.0000                                         
     3  0  0.50     -3234.7234   2.0000                                         
     3  1  1.50     -2699.2216   6.0000                                         
     3  2  2.50     -2119.5714  10.0000                                         
     4  0  0.50      -695.1528   2.0000                                         
     4  1  1.50      -519.6034   6.0000                                         
     4  2  2.50      -306.6786  10.0000                                         
     4  3  3.50       -70.1041  14.0000                                         
     5  0  0.50      -101.7747   2.0000                                         
     5  1  1.50       -55.9873   6.0000                                         
     5  2  2.50        -6.1423   9.0000                                         
     6  0  0.50        -5.6573   1.0000                                         
     6  1  1.50        -6.8029   0.0000                                         
     5  3  2.50        -1.3606   0.0000                                         
   Description                                                                  
     l       E           TYP  RCUT    TYP  RCUT                                 
     2     -6.1423404     23  2.500                                             
     2     -7.5029230     23  2.500                                             
     0     -5.6573207     23  2.500                                             
     0      0.7416693     23  2.500                                             
     1     -2.7211652     23  2.600                                             
     1     20.4087390     23  2.600                                             
     3     -1.3605826     23  2.500                                             
  local pseudopotential read in
  partial core-charges read in
  partial kinetic energy density read in
  atomic valenz-charges read in
  non local Contribution for L=           2  read in
    real space projection operators read in
  non local Contribution for L=           2  read in
    real space projection operators read in
  non local Contribution for L=           0  read in
    real space projection operators read in
  non local Contribution for L=           0  read in
    real space projection operators read in
  non local Contribution for L=           1  read in
    real space projection operators read in
  non local Contribution for L=           1  read in
    real space projection operators read in
    PAW grid and wavefunctions read in
 
   number of l-projection  operators is LMAX  =           6
   number of lm-projection operators is LMMAX =          18
 
 POTCAR:    PAW_PBE Fe 06Sep2000                  
   VRHFIN =Fe:  d7 s1                                                           
   LEXCH  = PE                                                                  
   EATOM  =   594.3153 eV,   43.6809 Ry                                         
                                                                                
   TITEL  = PAW_PBE Fe 06Sep2000                                                
   LULTRA =        F    use ultrasoft PP ?                                      
   IUNSCR =        1    unscreen: 0-lin 1-nonlin 2-no                           
   RPACOR =    2.000    partial core radius                                     
   POMASS =   55.847; ZVAL   =    8.000    mass and valenz                      
   RCORE  =    2.300    outmost cutoff radius                                   
   RWIGS  =    2.460; RWIGS  =    1.302    wigner-seitz radius (au A)           
   ENMAX  =  267.882; ENMIN  =  200.911 eV                                      
   RCLOC  =    1.701    cutoff for local pot                                    
   LCOR   =        T    correct aug charges                                     
   LPAW   =        T    paw PP                                                  
   EAUG   =  511.368                                                            
   DEXC   =    0.000                                                            
   RMAX   =    2.356    core radius for proj-oper                               
   RAUG   =    1.300    factor for augmentation sphere                          
   RDEP   =    2.442    radius for radial grids                                 
   RDEPT  =    1.890    core radius for aug-charge                              
                                                                                
   Atomic configuration                                                         
    9 entries                                                                   
     n  l   j            E        occ.                                          
     1  0  0.50     -6993.8440   2.0000                                         
     2  0  0.50      -814.6047   2.0000                                         
     2  1  1.50      -693.3689   6.0000                                         
     3  0  0.50       -89.4732   2.0000                                         
     3  1  1.50       -55.6373   6.0000                                         
     3  2  2.50        -3.8151   7.0000                                         
     4  0  0.50        -4.2551   1.0000                                         
     4  1  1.50        -3.4015   0.0000                                         
     4  3  2.50        -1.3606   0.0000                                         
   Description                                                                  
     l       E           TYP  RCUT    TYP  RCUT                                 
     2     -3.8151135     23  2.300                                             
     2     -5.1756961     23  2.300                                             
     0     -4.2550963     23  2.300                                             
     0      7.2035603     23  2.300                                             
     1     -2.7211652     23  2.300                                             
     1     18.4316424     23  2.300                                             
  local pseudopotential read in
  partial core-charges read in
  partial kinetic energy density read in
  atomic valenz-charges read in
  non local Contribution for L=           2  read in
    real space projection operators read in
  non local Contribution for L=           2  read in
    real space projection operators read in
  non local Contribution for L=           0  read in
    real space projection operators read in
  non local Contribution for L=           0  read in
    real space projection operators read in
  non local Contribution for L=           1  read in
    real space projection operators read in
  non local Contribution for L=           1  read in
    real space projection operators read in
    PAW grid and wavefunctions read in
 
   number of l-projection  operators is LMAX  =           6
   number of lm-projection operators is LMMAX =          18
 
 POTCAR:    PAW_PBE Co 02Aug2007                  
   VRHFIN =Co: d8 s1                                                            
   LEXCH  = PE                                                                  
   EATOM  =   813.3670 eV,   59.7808 Ry                                         
                                                                                
   TITEL  = PAW_PBE Co 02Aug2007                                                
   LULTRA =        F    use ultrasoft PP ?                                      
   IUNSCR =        1    unscreen: 0-lin 1-nonlin 2-no                           
   RPACOR =    2.000    partial core radius                                     
   POMASS =   58.933; ZVAL   =    9.000    mass and valenz                      
   RCORE  =    2.300    outmost cutoff radius                                   
   RWIGS  =    2.460; RWIGS  =    1.302    wigner-seitz radius (au A)           
   ENMAX  =  267.968; ENMIN  =  200.976 eV                                      
   RCLOC  =    1.203    cutoff for local pot                                    
   LCOR   =        T    correct aug charges                                     
   LPAW   =        T    paw PP                                                  
   EAUG   =  477.818                                                            
   DEXC   =    0.000                                                            
   RMAX   =    2.360    core radius for proj-oper                               
   RAUG   =    1.300    factor for augmentation sphere                          
   RDEP   =    2.393    radius for radial grids                                 
   RDEPT  =    1.864    core radius for aug-charge                              
                                                                                
   Atomic configuration                                                         
    9 entries                                                                   
     n  l   j            E        occ.                                          
     1  0  0.50     -7587.6674   2.0000                                         
     2  0  0.50      -893.6084   2.0000                                         
     2  1  1.50      -764.5805   6.0000                                         
     3  0  0.50       -97.5973   2.0000                                         
     3  1  1.50       -60.9648   6.0000                                         
     3  2  2.50        -4.2382   8.0000                                         
     4  0  0.50        -4.3746   1.0000                                         
     4  1  1.50        -4.0817   0.0000                                         
     4  3  2.50        -1.3606   0.0000                                         
   Description                                                                  
     l       E           TYP  RCUT    TYP  RCUT                                 
     2     -4.2382362     23  2.300                                             
     2     -5.5988188     23  2.300                                             
     0     -4.3745797     23  2.300                                             
     0      5.7660125     23  2.300                                             
     1     -2.7211652     23  2.300                                             
     1     16.9860234     23  2.300                                             
  local pseudopotential read in
  partial core-charges read in
  partial kinetic energy density read in
  atomic valenz-charges read in
  non local Contribution for L=           2  read in
    real space projection operators read in
  non local Contribution for L=           2  read in
    real space projection operators read in
  non local Contribution for L=           0  read in
    real space projection operators read in
  non local Contribution for L=           0  read in
    real space projection operators read in
  non local Contribution for L=           1  read in
    real space projection operators read in
  non local Contribution for L=           1  read in
    real space projection operators read in
    PAW grid and wavefunctions read in
 
   number of l-projection  operators is LMAX  =           6
   number of lm-projection operators is LMMAX =          18
 
 POTCAR:    PAW_PBE Cu 22Jun2005                  
   VRHFIN =Cu: d10 p1                                                           
   LEXCH  = PE                                                                  
   EATOM  =  1390.9808 eV,  102.2342 Ry                                         
                                                                                
   TITEL  = PAW_PBE Cu 22Jun2005                                                
   LULTRA =        F    use ultrasoft PP ?                                      
   IUNSCR =        1    unscreen: 0-lin 1-nonlin 2-no                           
   RPACOR =    2.000    partial core radius                                     
   POMASS =   63.546; ZVAL   =   11.000    mass and valenz                      
   RCORE  =    2.300    outmost cutoff radius                                   
   RWIGS  =    2.200; RWIGS  =    1.164    wigner-seitz radius (au A)           
   ENMAX  =  295.446; ENMIN  =  221.585 eV                                      
   ICORE  =        3    local potential                                         
   LCOR   =        T    correct aug charges                                     
   LPAW   =        T    paw PP                                                  
   EAUG   =  586.980                                                            
   DEXC   =    0.000                                                            
   RMAX   =    2.344    core radius for proj-oper                               
   RAUG   =    1.300    factor for augmentation sphere                          
   RDEP   =    2.302    radius for radial grids                                 
   RDEPT  =    1.771    core radius for aug-charge                              
                                                                                
   Atomic configuration                                                         
    9 entries                                                                   
     n  l   j            E        occ.                                          
     1  0  0.50     -8850.2468   2.0000                                         
     2  0  0.50     -1062.3498   2.0000                                         
     2  1  1.50      -916.8226   6.0000                                         
     3  0  0.50      -114.6929   2.0000                                         
     3  1  1.50       -72.1325   6.0000                                         
     3  2  2.50        -5.0394  10.0000                                         
     4  0  0.50        -4.6097   1.0000                                         
     4  1  0.50        -4.0817   0.0000                                         
     4  3  2.50        -1.3606   0.0000                                         
   Description                                                                  
     l       E           TYP  RCUT    TYP  RCUT                                 
     2     -5.0393973     23  2.200                                             
     2     10.8846608     23  2.200                                             
     0     -4.6097109     23  2.200                                             
     0      8.2520465     23  2.200                                             
     1     -2.7211652     23  2.200                                             
     1     21.7055443     23  2.200                                             
     3      2.7211652     23  2.300                                             
  local pseudopotential read in
  partial core-charges read in
  partial kinetic energy density read in
  atomic valenz-charges read in
  non local Contribution for L=           2  read in
    real space projection operators read in
  non local Contribution for L=           2  read in
    real space projection operators read in
  non local Contribution for L=           0  read in
    real space projection operators read in
  non local Contribution for L=           0  read in
    real space projection operators read in
  non local Contribution for L=           1  read in
    real space projection operators read in
  non local Contribution for L=           1  read in
    real space projection operators read in
    PAW grid and wavefunctions read in
 
   number of l-projection  operators is LMAX  =           6
   number of lm-projection operators is LMMAX =          18
 
 POTCAR:    PAW_PBE Ni 02Aug2007                  
   VRHFIN =Ni:                                                                  
   LEXCH  = PE                                                                  
   EATOM  =  1077.6739 eV,   79.2068 Ry                                         
                                                                                
   TITEL  = PAW_PBE Ni 02Aug2007                                                
   LULTRA =        F    use ultrasoft PP ?                                      
   IUNSCR =        1    unscreen: 0-lin 1-nonlin 2-no                           
   RPACOR =    2.000    partial core radius                                     
   POMASS =   58.690; ZVAL   =   10.000    mass and valenz                      
   RCORE  =    2.300    outmost cutoff radius                                   
   RWIGS  =    2.430; RWIGS  =    1.286    wigner-seitz radius (au A)           
   ENMAX  =  269.532; ENMIN  =  202.149 eV                                      
   RCLOC  =    1.201    cutoff for local pot                                    
   LCOR   =        T    correct aug charges                                     
   LPAW   =        T    paw PP                                                  
   EAUG   =  544.565                                                            
   DEXC   =    0.000                                                            
   RMAX   =    2.357    core radius for proj-oper                               
   RAUG   =    1.300    factor for augmentation sphere                          
   RDEP   =    2.390    radius for radial grids                                 
   RDEPT  =    1.838    core radius for aug-charge                              
                                                                                
   Atomic configuration                                                         
    9 entries                                                                   
     n  l   j            E        occ.                                          
     1  0  0.50     -8206.4253   2.0000                                         
     2  0  0.50      -976.1748   2.0000                                         
     2  1  1.50      -839.0571   6.0000                                         
     3  0  0.50      -105.9991   2.0000                                         
     3  1  1.50       -66.4603   6.0000                                         
     3  2  2.50        -4.6458   9.0000                                         
     4  0  0.50        -4.4926   1.0000                                         
     4  1  1.50        -4.0817   0.0000                                         
     4  3  2.50        -1.3606   0.0000                                         
   Description                                                                  
     l       E           TYP  RCUT    TYP  RCUT                                 
     2     -4.6457903     23  2.300                                             
     2     -6.0063729     23  2.300                                             
     0     -4.4925590     23  2.300                                             
     0      5.0102601     23  2.300                                             
     1     -2.7211652     23  2.300                                             
     1     16.5183231     23  2.300                                             
  local pseudopotential read in
  partial core-charges read in
  partial kinetic energy density read in
  atomic valenz-charges read in
  non local Contribution for L=           2  read in
    real space projection operators read in
  non local Contribution for L=           2  read in
    real space projection operators read in
  non local Contribution for L=           0  read in
    real space projection operators read in
  non local Contribution for L=           0  read in
    real space projection operators read in
  non local Contribution for L=           1  read in
    real space projection operators read in
  non local Contribution for L=           1  read in
    real space projection operators read in
    PAW grid and wavefunctions read in
 
   number of l-projection  operators is LMAX  =           6
   number of lm-projection operators is LMMAX =          18
 
 POTCAR:    PAW_PBE H 15Jun2001                   
   VRHFIN =H: ultrasoft test                                                    
   LEXCH  = PE                                                                  
   EATOM  =    12.4884 eV,    0.9179 Ry                                         
                                                                                
   TITEL  = PAW_PBE H 15Jun2001                                                 
   LULTRA =        F    use ultrasoft PP ?                                      
   IUNSCR =        0    unscreen: 0-lin 1-nonlin 2-no                           
   RPACOR =    0.000    partial core radius                                     
   POMASS =    1.000; ZVAL   =    1.000    mass and valenz                      
   RCORE  =    1.100    outmost cutoff radius                                   
   RWIGS  =    0.700; RWIGS  =    0.370    wigner-seitz radius (au A)           
   ENMAX  =  250.000; ENMIN  =  200.000 eV                                      
   RCLOC  =    0.701    cutoff for local pot                                    
   LCOR   =        T    correct aug charges                                     
   LPAW   =        T    paw PP                                                  
   EAUG   =  400.000                                                            
   RMAX   =    1.123    core radius for proj-oper                               
   RAUG   =    1.200    factor for augmentation sphere                          
   RDEP   =    1.112    radius for radial grids                                 
   RDEPT  =    0.926    core radius for aug-charge                              
                                                                                
   Atomic configuration                                                         
    2 entries                                                                   
     n  l   j            E        occ.                                          
     1  0  0.50        -6.4927   1.0000                                         
     2  1  0.50        -3.4015   0.0000                                         
   Description                                                                  
     l       E           TYP  RCUT    TYP  RCUT                                 
     0     -6.4927494     23  1.100                                             
     0      6.8029130     23  1.100                                             
     1     -4.0817478     23  1.100                                             
  local pseudopotential read in
  atomic valenz-charges read in
  non local Contribution for L=           0  read in
    real space projection operators read in
  non local Contribution for L=           0  read in
    real space projection operators read in
  non local Contribution for L=           1  read in
    real space projection operators read in
    PAW grid and wavefunctions read in
 
   number of l-projection  operators is LMAX  =           3
   number of lm-projection operators is LMMAX =           5
 
 Optimization of the real space projectors (new method)

 maximal supplied QI-value         = 14.36
 optimisation between [QCUT,QGAM] = [ 11.92, 23.98] = [ 39.79,161.09] Ry 
 Optimized for a Real-space Cutoff    1.49 Angstroem

   l    n(q)    QCUT    max X(q) W(low)/X(q) W(high)/X(q)  e(spline) 
   2     10    11.920    66.195    0.79E-04    0.18E-03    0.24E-06
   2     10    11.920    64.643    0.81E-04    0.19E-03    0.24E-06
   0     11    11.920    95.520    0.28E-04    0.54E-04    0.18E-06
   0     11    11.920    63.403    0.27E-04    0.52E-04    0.17E-06
   1     10    11.920    19.961    0.18E-04    0.11E-03    0.23E-06
   1     10    11.920    13.289    0.25E-04    0.87E-04    0.19E-06
 Optimization of the real space projectors (new method)

 maximal supplied QI-value         = 16.25
 optimisation between [QCUT,QGAM] = [ 11.86, 23.89] = [ 39.41,159.82] Ry 
 Optimized for a Real-space Cutoff    1.49 Angstroem

   l    n(q)    QCUT    max X(q) W(low)/X(q) W(high)/X(q)  e(spline) 
   2     10    11.864    80.901    0.13E-03    0.23E-03    0.37E-06
   2     10    11.864    75.754    0.13E-03    0.23E-03    0.38E-06
   0     11    11.864    58.752    0.44E-04    0.11E-04    0.20E-06
   0     11    11.864    30.679    0.36E-04    0.10E-04    0.18E-06
   1     10    11.864    17.977    0.31E-04    0.45E-04    0.10E-06
   1     10    11.864    13.559    0.25E-04    0.37E-04    0.89E-07
 Optimization of the real space projectors (new method)

 maximal supplied QI-value         = 16.25
 optimisation between [QCUT,QGAM] = [ 11.86, 23.89] = [ 39.41,159.82] Ry 
 Optimized for a Real-space Cutoff    1.33 Angstroem

   l    n(q)    QCUT    max X(q) W(low)/X(q) W(high)/X(q)  e(spline) 
   2      9    11.864    65.824    0.22E-03    0.53E-03    0.26E-06
   2      9    11.864    61.429    0.22E-03    0.53E-03    0.26E-06
   0      9    11.864    56.174    0.21E-03    0.32E-04    0.15E-06
   0      9    11.864    31.263    0.19E-03    0.30E-04    0.14E-06
   1      9    11.864    19.828    0.63E-04    0.30E-03    0.16E-06
   1      9    11.864    15.139    0.49E-04    0.25E-03    0.13E-06
 Optimization of the real space projectors (new method)

 maximal supplied QI-value         = 16.25
 optimisation between [QCUT,QGAM] = [ 11.86, 23.89] = [ 39.41,159.82] Ry 
 Optimized for a Real-space Cutoff    1.49 Angstroem

   l    n(q)    QCUT    max X(q) W(low)/X(q) W(high)/X(q)  e(spline) 
   2     10    11.864     4.610    0.10E-03    0.20E-03    0.29E-06
   2     10    11.864     8.522    0.17E-03    0.33E-03    0.50E-06
   0     11    11.864    51.609    0.52E-04    0.55E-04    0.33E-06
   0     11    11.864    27.747    0.46E-04    0.52E-04    0.31E-06
   1     10    11.864    20.408    0.54E-04    0.25E-04    0.21E-06
   1     10    11.864    13.425    0.48E-04    0.22E-04    0.18E-06
 Optimization of the real space projectors (new method)

 maximal supplied QI-value         = 16.25
 optimisation between [QCUT,QGAM] = [ 11.86, 23.89] = [ 39.41,159.82] Ry 
 Optimized for a Real-space Cutoff    1.33 Angstroem

   l    n(q)    QCUT    max X(q) W(low)/X(q) W(high)/X(q)  e(spline) 
   2      9    11.864    60.317    0.21E-03    0.51E-03    0.25E-06
   2      9    11.864    55.921    0.21E-03    0.51E-03    0.26E-06
   0      9    11.864    51.690    0.22E-03    0.30E-04    0.17E-06
   0      9    11.864    30.015    0.20E-03    0.28E-04    0.15E-06
   1      9    11.864    18.849    0.76E-04    0.33E-03    0.17E-06
   1      9    11.864    14.624    0.60E-04    0.28E-03    0.15E-06
 Optimization of the real space projectors (new method)

 maximal supplied QI-value         = 34.20
 optimisation between [QCUT,QGAM] = [ 11.97, 23.94] = [ 40.13,160.53] Ry 
 Optimized for a Real-space Cutoff    1.18 Angstroem

   l    n(q)    QCUT    max X(q) W(low)/X(q) W(high)/X(q)  e(spline) 
   0      8    11.971    19.460    0.15E-03    0.31E-03    0.25E-06
   0      8    11.971    12.209    0.13E-03    0.29E-03    0.25E-06
   1      8    11.971     4.655    0.22E-03    0.24E-03    0.21E-06
  PAW_PBE Pt 04Feb2005                  :
 energy of atom  1       EATOM= -729.1176
 kinetic energy error for atom=    0.0021 (will be added to EATOM!!)
  PAW_PBE Fe 06Sep2000                  :
 energy of atom  2       EATOM= -594.3153
 kinetic energy error for atom=    0.0024 (will be added to EATOM!!)
  PAW_PBE Co 02Aug2007                  :
 energy of atom  3       EATOM= -813.3670
 kinetic energy error for atom=    0.0026 (will be added to EATOM!!)
  PAW_PBE Cu 22Jun2005                  :
 energy of atom  4       EATOM=-1390.9808
 kinetic energy error for atom=    0.0036 (will be added to EATOM!!)
  PAW_PBE Ni 02Aug2007                  :
 energy of atom  5       EATOM=-1077.6739
 kinetic energy error for atom=    0.0027 (will be added to EATOM!!)
  PAW_PBE H 15Jun2001                   :
 energy of atom  6       EATOM=  -12.4884
 kinetic energy error for atom=    0.0008 (will be added to EATOM!!)
 
 
 POSCAR: 10.66                                   
  positions in cartesian coordinates
  No initial velocities read in
 exchange correlation table for  LEXCH =        8
   RHO(1)=    0.500       N(1)  =     2000
   RHO(2)=  100.500       N(2)  =     4000
 


--------------------------------------------------------------------------------------------------------


 ion  position               nearest neighbor table
   1  0.787  0.880  0.316-  49 2.61  28 2.62  59 2.64  19 2.66  61 2.68  33 2.68  29 2.69  60 2.71
                             2 2.75  11 2.76   4 2.81  12 2.85
   2  0.043  0.883  0.315-  79 2.54  77 2.59  60 2.65  28 2.65  30 2.67  52 2.68  33 2.70  22 2.72
                             6 2.74   1 2.75   4 2.82  16 2.88
   3  0.280  0.382  0.319-  64 2.56  39 2.59  33 2.61  31 2.64  68 2.71  19 2.73  43 2.73  30 2.75
                             5 2.77  13 2.80  25 2.83  18 2.84
   4  0.875  0.963  0.422-   9 2.65  17 2.65   6 2.66  11 2.67  16 2.67  12 2.69  60 2.79   1 2.81
                             2 2.82
   5  0.122  0.464  0.426-   7 2.64  12 2.64  16 2.66  10 2.66  25 2.68  13 2.70  39 2.71  33 2.71
                             3 2.77
   6  0.125  0.963  0.419-   9 2.66   4 2.66   8 2.66  10 2.67  16 2.67  14 2.68   2 2.74  52 2.76
                            22 2.84
   7  0.877  0.459  0.425-   5 2.64   9 2.65  15 2.65  10 2.65  39 2.67  27 2.68  12 2.68  75 2.76
                            29 2.79
   8  0.374  0.963  0.417-  43 2.57  13 2.65  10 2.65   6 2.66  52 2.67  11 2.68  14 2.68  61 2.69
                            27 2.70
   9  0.875  0.211  0.419-  15 2.63   7 2.65   4 2.65   6 2.66  17 2.67  75 2.68  10 2.68  60 2.71
                            22 2.81
  10  0.126  0.212  0.421-  13 2.64   7 2.65   8 2.65   5 2.66   6 2.67  39 2.67   9 2.68  43 2.72
                            22 2.77
  11  0.626  0.962  0.422-  17 2.65  12 2.66  13 2.66   4 2.67  27 2.67   8 2.68   1 2.76  19 2.81
                            61 2.82
  12  0.874  0.712  0.425-   5 2.64  27 2.65  11 2.66  16 2.67   7 2.68   4 2.69  33 2.69  29 2.79
                             1 2.85
  13  0.375  0.210  0.423-  10 2.64   8 2.65  11 2.66  25 2.67  17 2.67   5 2.70  43 2.76   3 2.80
                            19 2.82
  14  0.375  0.711  0.426-  81 1.72  16 2.67  27 2.67  25 2.68   6 2.68   8 2.68  15 2.70  44 2.74
                            30 2.79  52 2.85
  15  0.628  0.459  0.420-   9 2.63   7 2.65  17 2.66  44 2.67  27 2.68  75 2.69  25 2.70  14 2.70
                            18 2.73
  16  0.124  0.712  0.424-   5 2.66  33 2.66  12 2.67   4 2.67  14 2.67   6 2.67  25 2.67  30 2.80
                             2 2.88
  17  0.625  0.211  0.421-   4 2.65  11 2.65  15 2.66  25 2.67  13 2.67   9 2.67  18 2.76  60 2.78
                            19 2.85
  18  0.549  0.376  0.316-  67 2.56  60 2.61  75 2.64  68 2.65  26 2.66  44 2.68  15 2.73  30 2.73
                            19 2.75  17 2.76   3 2.84  25 2.87
  19  0.535  0.126  0.314-  80 2.55  68 2.57  43 2.58  59 2.60   1 2.66  61 2.67   3 2.73  18 2.75
                            60 2.78  11 2.81  13 2.82  17 2.85
  20  0.549  0.122  0.042-  37 2.55  57 2.55  48 2.57  62 2.66  63 2.70  34 2.71  45 2.73  47 2.74
                            56 2.74
  21  0.120  0.460  0.128-  40 2.52  36 2.53  47 2.53  42 2.60  69 2.62  64 2.63  70 2.66  50 2.67
                            31 2.70  58 2.71  57 2.74  74 2.75
  22  0.045  0.137  0.313-  65 2.51  55 2.54  77 2.57  43 2.60  39 2.60  75 2.64  60 2.72   2 2.72
                            52 2.74  10 2.77   9 2.81   6 2.84  31 3.38
  23  0.042  0.131  0.034-  70 2.57  40 2.60  41 2.61  45 2.64  62 2.65  76 2.65  24 2.69  35 2.76
                            53 2.81
  24  0.131  0.958  0.132-  79 2.51  77 2.54  35 2.57  53 2.58  55 2.58  70 2.64  38 2.66  58 2.66
                            73 2.67  23 2.69  66 2.73  41 2.75
  25  0.374  0.460  0.424-  13 2.67  17 2.67  16 2.67  14 2.68   5 2.68  15 2.70  30 2.82   3 2.83
                            18 2.87
  26  0.455  0.547  0.219-  73 2.50  51 2.55  74 2.56  79 2.62  64 2.65  30 2.65  18 2.66  78 2.69
                            68 2.69  32 2.70  67 2.75  44 2.77
  27  0.626  0.711  0.427-  81 1.80  12 2.65  14 2.67  11 2.67   7 2.68  15 2.68   8 2.70  44 2.76
                            29 2.83  61 2.86
  28  0.957  0.789  0.221-  58 2.55  66 2.58  50 2.58  42 2.61   1 2.62  49 2.63  64 2.65   2 2.65
                            33 2.70  59 2.74  79 2.81  77 2.82
  29  0.793  0.624  0.320-  39 2.57  42 2.58  75 2.60  32 2.62  44 2.66  61 2.68  33 2.68  49 2.68
                             1 2.69   7 2.79  12 2.79  27 2.83
  30  0.294  0.633  0.319-  79 2.57  52 2.62  44 2.63  64 2.64  26 2.65   2 2.67  33 2.70  18 2.73
                             3 2.75  14 2.79  16 2.80  25 2.82
  31  0.202  0.280  0.225-  70 2.52  55 2.58  43 2.58  65 2.59  57 2.60   3 2.64  39 2.67  21 2.70
                            80 2.73  42 2.73  68 2.79  64 2.83  22 3.38
  32  0.706  0.550  0.221-  54 2.54  69 2.57  51 2.59  49 2.60  42 2.62  29 2.62  78 2.63  65 2.65
                            75 2.67  26 2.70  44 2.70  67 2.72
  33  0.041  0.632  0.324-   3 2.61  39 2.66  16 2.66  29 2.68   1 2.68  12 2.69  30 2.70   2 2.70
                            28 2.70  64 2.70   5 2.71  42 2.72
  34  0.796  0.862  0.044-  50 2.39  66 2.51  48 2.52  36 2.55  71 2.58  63 2.62  20 2.71  62 2.79
                            35 2.80
  35  0.057  0.865  0.039-  58 2.54  72 2.55  36 2.56  24 2.57  66 2.62  53 2.68  23 2.76  62 2.76
                            34 2.80
  36  0.044  0.632  0.039-  21 2.53  34 2.55  35 2.56  58 2.58  50 2.59  47 2.67  72 2.69  71 2.74
                            40 2.76
  37  0.628  0.224  0.129-  51 2.51  67 2.52  56 2.52  74 2.53  20 2.55  59 2.56  68 2.56  41 2.57
                            62 2.59  66 2.69  57 2.76  48 2.95
  38  0.383  0.954  0.131-  53 2.46  45 2.47  80 2.48  78 2.53  73 2.56  55 2.56  63 2.56  48 2.56
                            54 2.58  57 2.65  24 2.66  70 2.70
  39  0.036  0.385  0.324-  29 2.57   3 2.59  75 2.60  22 2.60  42 2.65  33 2.66  31 2.67  10 2.67
                             7 2.67   5 2.71  65 2.75  43 2.83
  40  0.028  0.381  0.039-  69 2.42  21 2.52  71 2.54  76 2.54  70 2.56  23 2.60  36 2.76  45 2.84
                            47 2.85
  41  0.872  0.215  0.129-  76 2.45  77 2.52  65 2.52  67 2.53  37 2.57  62 2.57  69 2.59  23 2.61
                            51 2.61  70 2.68  66 2.68  24 2.75
  42  0.955  0.545  0.224-  50 2.55  29 2.58  69 2.60  21 2.60  28 2.61  32 2.62  49 2.64  39 2.65
                            65 2.65  64 2.69  33 2.72  31 2.73
  43  0.298  0.117  0.320-  55 2.54  52 2.57   8 2.57  19 2.58  31 2.58  61 2.59  22 2.60  80 2.64
                            10 2.72   3 2.73  13 2.76  39 2.83
  44  0.541  0.631  0.323-  61 2.58  52 2.61  30 2.63  78 2.64  29 2.66  15 2.67  18 2.68  75 2.68
                            32 2.70  14 2.74  27 2.76  26 2.77
  45  0.296  0.116  0.041-  38 2.47  70 2.49  57 2.57  53 2.58  23 2.64  63 2.65  20 2.73  47 2.83
                            40 2.84
  46  0.549  0.625  0.045-  51 2.38  73 2.39  54 2.41  71 2.57  53 2.59  63 2.60  76 2.62  56 2.63
                            72 2.66
  47  0.294  0.382  0.040-  74 2.41  21 2.53  57 2.64  72 2.65  56 2.66  36 2.67  20 2.74  45 2.83
                            40 2.85
  48  0.626  0.948  0.133-  49 2.40  54 2.48  80 2.48  34 2.52  59 2.56  63 2.56  38 2.56  20 2.57
                            50 2.58  57 2.68  66 2.72  37 2.95
  49  0.708  0.794  0.220-  48 2.40  50 2.47  54 2.49  80 2.57  32 2.60   1 2.61  28 2.63  61 2.63
                            78 2.63  42 2.64  29 2.68  59 2.73
  50  0.865  0.704  0.130-  34 2.39  71 2.42  49 2.47  54 2.49  42 2.55  48 2.58  28 2.58  69 2.58
                            36 2.59  21 2.67  66 2.81  58 2.90
  51  0.627  0.460  0.128-  46 2.38  76 2.44  56 2.51  37 2.51  26 2.55  32 2.59  41 2.61  67 2.62
                            73 2.63  69 2.64  74 2.65  54 2.72
  52  0.298  0.876  0.317-  55 2.42  78 2.52  79 2.52  61 2.56  43 2.57  44 2.61  30 2.62   8 2.67
                             2 2.68  22 2.74   6 2.76  14 2.85
  53  0.307  0.869  0.042-  73 2.42  38 2.46  63 2.57  24 2.58  45 2.58  46 2.59  72 2.61  35 2.68
                            23 2.81
  54  0.627  0.715  0.129-  46 2.41  71 2.46  63 2.48  48 2.48  50 2.49  49 2.49  32 2.54  38 2.58
                            73 2.58  78 2.61  69 2.70  51 2.72
  55  0.227  0.027  0.227-  52 2.42  78 2.47  79 2.51  80 2.53  43 2.54  22 2.54  38 2.56  31 2.58
                            24 2.58  70 2.71  77 2.76  65 2.92
  56  0.544  0.381  0.036-  74 2.50  51 2.51  37 2.52  76 2.61  46 2.63  72 2.64  47 2.66  62 2.72
                            20 2.74
  57  0.379  0.204  0.133-  68 2.47  80 2.54  20 2.55  45 2.57  31 2.60  47 2.64  38 2.65  74 2.66
                            70 2.66  48 2.68  21 2.74  37 2.76
  58  0.137  0.705  0.133-  72 2.46  64 2.50  35 2.54  28 2.55  79 2.57  36 2.58  74 2.66  24 2.66
                            73 2.70  21 2.71  50 2.90
  59  0.705  0.051  0.220-  66 2.52  37 2.56  48 2.56  19 2.60  68 2.61  67 2.61  60 2.62   1 2.64
                            77 2.69  80 2.70  49 2.73  28 2.74
  60  0.794  0.130  0.316-  67 2.52  77 2.57  18 2.61  59 2.62   2 2.65  75 2.67   1 2.71   9 2.71
                            22 2.72  19 2.78  17 2.78   4 2.79
  61  0.539  0.873  0.317-  78 2.48  80 2.53  52 2.56  44 2.58  43 2.59  49 2.63  19 2.67   1 2.68
                            29 2.68   8 2.69  11 2.82  27 2.86
  62  0.797  0.123  0.036-  66 2.53  41 2.57  37 2.59  23 2.65  20 2.66  76 2.68  56 2.72  35 2.76
                            34 2.79
  63  0.546  0.870  0.037-  54 2.48  38 2.56  48 2.56  53 2.57  46 2.60  34 2.62  71 2.63  45 2.65
                            20 2.70
  64  0.209  0.543  0.224-  58 2.50   3 2.56  21 2.63  30 2.64  28 2.65  26 2.65  68 2.66  74 2.67
                            42 2.69  33 2.70  79 2.75  31 2.83
  65  0.951  0.299  0.222-  22 2.51  69 2.51  41 2.52  67 2.55  77 2.58  31 2.59  75 2.60  70 2.61
                            32 2.65  42 2.65  39 2.75  55 2.92
  66  0.872  0.964  0.130-  34 2.51  59 2.52  62 2.53  77 2.58  28 2.58  35 2.62  41 2.68  37 2.69
                            48 2.72  24 2.73  50 2.81
  67  0.715  0.291  0.224-  37 2.52  60 2.52  41 2.53  77 2.54  65 2.55  18 2.56  59 2.61  51 2.62
                            75 2.63  32 2.72  68 2.74  26 2.75
  68  0.457  0.293  0.221-  57 2.47  74 2.53  37 2.56  19 2.57  59 2.61  18 2.65  64 2.66  26 2.69
                             3 2.71  67 2.74  80 2.78  31 2.79
  69  0.875  0.457  0.129-  40 2.42  71 2.45  76 2.46  65 2.51  32 2.57  50 2.58  41 2.59  42 2.60
                            21 2.62  51 2.64  70 2.68  54 2.70
  70  0.128  0.206  0.129-  45 2.49  31 2.52  40 2.56  23 2.57  65 2.61  24 2.64  21 2.66  57 2.66
                            41 2.68  69 2.68  38 2.70  55 2.71
  71  0.792  0.622  0.041-  50 2.42  69 2.45  54 2.46  40 2.54  46 2.57  34 2.58  76 2.61  63 2.63
                            36 2.74
  72  0.298  0.629  0.044-  74 2.46  58 2.46  73 2.47  35 2.55  53 2.61  56 2.64  47 2.65  46 2.66
                            36 2.69
  73  0.386  0.713  0.130-  46 2.39  53 2.42  72 2.47  26 2.50  78 2.55  38 2.56  54 2.58  79 2.62
                            51 2.63  24 2.67  58 2.70  74 2.80
  74  0.382  0.451  0.127-  47 2.41  72 2.46  56 2.50  37 2.53  68 2.53  26 2.56  51 2.65  57 2.66
                            58 2.66  64 2.67  21 2.75  73 2.80
  75  0.794  0.381  0.320-  29 2.60  39 2.60  65 2.60  67 2.63  18 2.64  22 2.64  60 2.67  32 2.67
                             9 2.68  44 2.68  15 2.69   7 2.76
  76  0.791  0.377  0.041-  51 2.44  41 2.45  69 2.46  40 2.54  56 2.61  71 2.61  46 2.62  23 2.65
                            62 2.68
  77  0.956  0.054  0.221-  41 2.52  24 2.54  67 2.54  60 2.57  22 2.57  66 2.58  65 2.58   2 2.59
                            59 2.69  79 2.76  55 2.76  28 2.82
  78  0.460  0.796  0.225-  55 2.47  61 2.48  80 2.51  52 2.52  38 2.53  73 2.55  79 2.60  54 2.61
                            32 2.63  49 2.63  44 2.64  26 2.69
  79  0.216  0.797  0.225-  24 2.51  55 2.51  52 2.52   2 2.54  58 2.57  30 2.57  78 2.60  73 2.62
                            26 2.62  64 2.75  77 2.76  28 2.81
  80  0.463  0.030  0.223-  48 2.48  38 2.48  78 2.51  61 2.53  55 2.53  57 2.54  19 2.55  49 2.57
                            43 2.64  59 2.70  31 2.73  68 2.78
  81  0.487  0.726  0.479-  14 1.72  27 1.80
 
  LATTYP: Found a hexagonal cell.
 ALAT       =    10.6599998474
 C/A-ratio  =     2.0637898982
  
  Lattice vectors:
  
 A1 = (   5.3299999237,  -9.2318306722,   0.0000000000)
 A2 = ( -10.6599998474,   0.0000000000,   0.0000000000)
 A3 = (   0.0000000000,   0.0000000000, -22.0000000000)


Analysis of symmetry for initial positions (statically):
=====================================================================
 Subroutine PRICEL returns:
 Original cell was already a primitive cell.
 

 Routine SETGRP: Setting up the symmetry group for a 
 hexagonal supercell.


 Subroutine GETGRP returns: Found  1 space group operations
 (whereof  1 operations were pure point group operations)
 out of a pool of 24 trial point group operations.


The static configuration has the point symmetry C_1 .


Analysis of symmetry for dynamics (positions and initial velocities):
=====================================================================
 Subroutine PRICEL returns:
 Original cell was already a primitive cell.
 

 Routine SETGRP: Setting up the symmetry group for a 
 hexagonal supercell.


 Subroutine GETGRP returns: Found  1 space group operations
 (whereof  1 operations were pure point group operations)
 out of a pool of 24 trial point group operations.


The dynamic configuration has the point symmetry C_1 .


Analysis of constrained symmetry for selective dynamics:
=====================================================================
 Subroutine PRICEL returns:
 Original cell was already a primitive cell.
 

 Routine SETGRP: Setting up the symmetry group for a 
 hexagonal supercell.


 Subroutine GETGRP returns: Found  1 space group operations
 (whereof  1 operations were pure point group operations)
 out of a pool of 24 trial point group operations.


The constrained configuration has the point symmetry C_1 .


Analysis of structural, dynamic, and magnetic symmetry:
=====================================================================
 Subroutine PRICEL returns:
 Original cell was already a primitive cell.
 

 Routine SETGRP: Setting up the symmetry group for a 
 hexagonal supercell.


 Subroutine GETGRP returns: Found  1 space group operations
 (whereof  1 operations were pure point group operations)
 out of a pool of 24 trial point group operations.


The magnetic configuration has the point symmetry C_1 .


 Subroutine INISYM returns: Found  1 space group operations
 (whereof  1 operations are pure point group operations),
 and found     1 'primitive' translations

 
 
 KPOINTS: mesh auto                               

Automatic generation of k-mesh.
Space group operators:
 irot       det(A)        alpha          n_x          n_y          n_z        tau_x        tau_y        tau_z
    1     1.000000     0.000000     1.000000     0.000000     0.000000     0.000000     0.000000     0.000000
 
 Subroutine IBZKPT returns following result:
 ===========================================
 
 Found      4 irreducible k-points:
 
 Following reciprocal coordinates:
            Coordinates               Weight
  0.000000  0.000000  0.000000      1.000000
  0.500000 -0.000000  0.000000      1.000000
  0.000000  0.500000  0.000000      1.000000
  0.500000  0.500000  0.000000      1.000000
 
 Following cartesian coordinates:
            Coordinates               Weight
  0.000000  0.000000  0.000000      1.000000
  0.046904 -0.027080  0.000000      1.000000
  0.000000  0.054160  0.000000      1.000000
  0.046904  0.027080  0.000000      1.000000
 
 TETIRR: Found     12 inequivalent tetrahedra from       24
 
 Subroutine IBZKPT_HF returns following result:
 ==============================================
 
 Found      4 k-points in 1st BZ
 the following      4 k-points will be used (e.g. in the exchange kernel)
 Following reciprocal coordinates:   # in IRBZ
  0.000000  0.000000  0.000000    0.25000000   1 t-inv F
  0.500000 -0.000000  0.000000    0.25000000   2 t-inv F
  0.000000  0.500000  0.000000    0.25000000   3 t-inv F
  0.500000  0.500000  0.000000    0.25000000   4 t-inv F


--------------------------------------------------------------------------------------------------------




 Dimension of arrays:
   k-points           NKPTS =      4   k-points in BZ     NKDIM =      4   number of bands    NBANDS=    624
   number of dos      NEDOS =    301   number of ions     NIONS =     81
   non local maximal  LDIM  =      6   non local SUM 2l+1 LMDIM =     18
   total plane-waves  NPLWV = ******
   max r-space proj   IRMAX =   7657   max aug-charges    IRDMAX=  33358
   dimension x,y,z NGX =    84 NGY =   84 NGZ =  168
   dimension x,y,z NGXF=   168 NGYF=  168 NGZF=  336
   support grid    NGXF=   168 NGYF=  168 NGZF=  336
   ions per type =              32  13  10  13  12   1
   NGX,Y,Z   is equivalent  to a cutoff of  13.10, 13.10, 12.70 a.u.
   NGXF,Y,Z  is equivalent  to a cutoff of  26.20, 26.20, 25.39 a.u.

 SYSTEM =  Pt111                                   
 POSCAR =  10.66                                   

 Startparameter for this run:
   NWRITE =      2    write-flag & timer
   PREC   = accura    normal or accurate (medium, high low for compatibility)
   ISTART =      0    job   : 0-new  1-cont  2-samecut
   ICHARG =      2    charge: 1-file 2-atom 10-const
   ISPIN  =      2    spin polarized calculation?
   LNONCOLLINEAR =      F non collinear calculations
   LSORBIT =      F    spin-orbit coupling
   INIWAV =      1    electr: 0-lowe 1-rand  2-diag
   LASPH  =      F    aspherical Exc in radial PAW
   METAGGA=      F    non-selfconsistent MetaGGA calc.

 Electronic Relaxation 1
   ENCUT  =  550.0 eV  40.42 Ry    6.36 a.u.  20.38 20.38 42.07*2*pi/ulx,y,z
   ENINI  =  550.0     initial cutoff
   ENAUG  =  587.0 eV  augmentation charge cutoff
   NELM   =    200;   NELMIN=  2; NELMDL= -5     # of ELM steps 
   EDIFF  = 0.1E-04   stopping-criterion for ELM
   LREAL  =      T    real-space projection
   NLSPLINE    = F    spline interpolate recip. space projectors
   LCOMPAT=      F    compatible to vasp.4.4
   GGA_COMPAT  = T    GGA compatible to vasp.4.4-vasp.4.6
   LMAXPAW     = -100 max onsite density
   LMAXMIX     =    2 max onsite mixed and CHGCAR
   VOSKOWN=      0    Vosko Wilk Nusair interpolation
   ROPT   =   -0.00025  -0.00025  -0.00025  -0.00025
   ROPT   =   -0.00025  -0.00025
 Ionic relaxation
   EDIFFG = -.5E-01   stopping-criterion for IOM
   NSW    =   1009    number of steps for IOM
   NBLOCK =      1;   KBLOCK =   1009    inner block; outer block 
   IBRION =      5    ionic relax: 0-MD 1-quasi-New 2-CG
   NFREE  =      2    steps in history (QN), initial steepest desc. (CG)
   ISIF   =      2    stress and relaxation
   IWAVPR =     11    prediction:  0-non 1-charg 2-wave 3-comb
   ISYM   =      2    0-nonsym 1-usesym 2-fastsym
   LCORR  =      T    Harris-Foulkes like correction to forces

   POTIM  = 0.5000    time-step for ionic-motion
   TEIN   =    0.0    initial temperature
   TEBEG  =    0.0;   TEEND  =   0.0 temperature during run
   SMASS  =  -3.00    Nose mass-parameter (am)
   estimated Nose-frequenzy (Omega)   =  0.10E-29 period in steps =****** mass=  -0.260E-26a.u.
   SCALEE = 1.0000    scale energy and forces
   NPACO  =    256;   APACO  = 16.0  distance and # of slots for P.C.
   PSTRESS=    0.0 pullay stress

  Mass of Ions in am
   POMASS = 195.08 55.85 58.93 63.55 58.69  1.00
  Ionic Valenz
   ZVAL   =  10.00  8.00  9.00 11.00 10.00  1.00
  Atomic Wigner-Seitz radii
   RWIGS  =  -1.00 -1.00 -1.00 -1.00 -1.00 -1.00
  virtual crystal weights 
   VCA    =   1.00  1.00  1.00  1.00  1.00  1.00
   NELECT =     778.0000    total number of electrons
   NUPDOWN=      -1.0000    fix difference up-down

 DOS related values:
   EMIN   =  10.00;   EMAX   =-10.00  energy-range for DOS
   EFERMI =   0.00
   ISMEAR =    -5;   SIGMA  =   0.10  broadening in eV -4-tet -1-fermi 0-gaus

 Electronic relaxation 2 (details)
   IALGO  =     68    algorithm
   LDIAG  =      T    sub-space diagonalisation (order eigenvalues)
   LSUBROT=      F    optimize rotation matrix (better conditioning)
   TURBO    =      0    0=normal 1=particle mesh
   IRESTART =      0    0=no restart 2=restart with 2 vectors
   NREBOOT  =      0    no. of reboots
   NMIN     =      0    reboot dimension
   EREF     =   0.00    reference energy to select bands
   IMIX   =      4    mixing-type and parameters
     AMIX     =   0.40;   BMIX     =  1.00
     AMIX_MAG =   1.60;   BMIX_MAG =  1.00
     AMIN     =   0.10
     WC   =   100.;   INIMIX=   1;  MIXPRE=   1;  MAXMIX= -45

 Intra band minimization:
   WEIMIN = 0.0010     energy-eigenvalue tresh-hold
   EBREAK =  0.40E-08  absolut break condition
   DEPER  =   0.30     relativ break condition  

   TIME   =   0.40     timestep for ELM

  volume/ion in A,a.u.               =      26.73       180.38
  Fermi-wavevector in a.u.,A,eV,Ry     =   1.163891  2.199434 18.431011  1.354641
  Thomas-Fermi vector in A             =   2.300435
 
 Write flags
   LWAVE        =      F    write WAVECAR
   LDOWNSAMPLE  =      F    k-point downsampling of WAVECAR
   LCHARG       =      F    write CHGCAR
   LVTOT        =      F    write LOCPOT, total local potential
   LVHAR        =      F    write LOCPOT, Hartree potential only
   LELF         =      F    write electronic localiz. function (ELF)
   LORBIT       =      0    0 simple, 1 ext, 2 COOP (PROOUT), +10 PAW based schemes


 Dipole corrections
   LMONO  =      F    monopole corrections only (constant potential shift)
   LDIPOL =      F    correct potential (dipole corrections)
   IDIPOL =      0    1-x, 2-y, 3-z, 4-all directions 
   EPSILON=  1.0000000 bulk dielectric constant

 Exchange correlation treatment:
   GGA     =    --    GGA type
   LEXCH   =     8    internal setting for exchange type
   VOSKOWN=      0    Vosko Wilk Nusair interpolation
   LHFCALC =     F    Hartree Fock is set to
   LHFONE  =     F    Hartree Fock one center treatment
   AEXX    =    0.0000 exact exchange contribution

 Linear response parameters
   LEPSILON=     F    determine dielectric tensor
   LRPA    =     F    only Hartree local field effects (RPA)
   LNABLA  =     F    use nabla operator in PAW spheres
   LVEL    =     F    velocity operator in full k-point grid
   LINTERFAST=   F  fast interpolation
   KINTER  =     0    interpolate to denser k-point grid
   CSHIFT  =0.1000    complex shift for real part using Kramers Kronig
   OMEGAMAX=  -1.0    maximum frequency
   DEG_THRESHOLD= 0.2000000E-02 threshold for treating states as degnerate
   RTIME   =   -0.100 relaxation time in fs
  (WPLASMAI=    0.000 imaginary part of plasma frequency in eV, 0.658/RTIME)
   DFIELD  = 0.0000000 0.0000000 0.0000000 field for delta impulse in time
 
 Orbital magnetization related:
   ORBITALMAG=     F  switch on orbital magnetization
   LCHIMAG   =     F  perturbation theory with respect to B field
   DQ        =  0.001000  dq finite difference perturbation B field
   LLRAUG    =     F  two centre corrections for induced B field



--------------------------------------------------------------------------------------------------------


 finite differences
   using selective dynamics as specified on POSCAR
   WARNING: If single coordinates had been selected the selection of coordinates
            is made according to the corresponding   d i r e c t   coordinates!
            Don't support selection of single cartesian coordinates -- sorry ...
  !
 charge density and potential will be updated during run
 spin polarized calculation
 RMM-DIIS sequential band-by-band and
  variant of blocked Davidson during initial phase
 perform sub-space diagonalisation
    before iterative eigenvector-optimisation
 modified Broyden-mixing scheme, WC =      100.0
 initial mixing is a Kerker type mixing with AMIX =  0.4000 and BMIX =      1.0000
 Hartree-type preconditioning will be used
 using additional bands          235
 real space projection scheme for non local part
 use partial core corrections
 calculate Harris-corrections to forces 
   (improved forces if not selfconsistent)
 use gradient corrections 
 use of overlap-Matrix (Vanderbilt PP)
 Fermi weights with tetrahedron method with Bloechl corrections


--------------------------------------------------------------------------------------------------------


  energy-cutoff  :      550.00
  volume of cell :     2165.05
      direct lattice vectors                 reciprocal lattice vectors
    10.659999847  0.000000000  0.000000000     0.093808632 -0.054160439  0.000000000
     5.329999924  9.231830672  0.000000000     0.000000000  0.108320878  0.000000000
     0.000000000  0.000000000 22.000000000     0.000000000  0.000000000  0.045454545

  length of vectors
    10.659999847 10.659999847 22.000000000     0.108320878  0.108320878  0.045454545


 
 k-points in units of 2pi/SCALE and weight: mesh auto                               
   0.00000000  0.00000000  0.00000000       0.250
   0.04690432 -0.02708022  0.00000000       0.250
   0.00000000  0.05416044  0.00000000       0.250
   0.04690432  0.02708022  0.00000000       0.250
 
 k-points in reciprocal lattice and weights: mesh auto                               
   0.00000000  0.00000000  0.00000000       0.250
   0.50000000 -0.00000000  0.00000000       0.250
   0.00000000  0.50000000  0.00000000       0.250
   0.50000000  0.50000000  0.00000000       0.250
 
 position of ions in fractional coordinates (direct lattice) 
   0.78714457  0.87972315  0.31637121
   0.04332375  0.88291706  0.31462999
   0.27954278  0.38211574  0.31851805
   0.87493166  0.96322206  0.42171458
   0.12158528  0.46382498  0.42575409
   0.12452377  0.96252428  0.41937537
   0.87652783  0.45880685  0.42540473
   0.37388481  0.96263409  0.41738080
   0.87514452  0.21147039  0.41870599
   0.12619780  0.21190649  0.42092908
   0.62558183  0.96152415  0.42182399
   0.87415436  0.71179223  0.42485229
   0.37492051  0.21014476  0.42314595
   0.37489134  0.71120828  0.42624462
   0.62844335  0.45853866  0.42024440
   0.12407398  0.71202732  0.42413799
   0.62490623  0.21077591  0.42108573
   0.54905878  0.37595162  0.31649031
   0.53506684  0.12570174  0.31427640
   0.54860226  0.12207837  0.04171946
   0.12037701  0.45967589  0.12832010
   0.04524679  0.13710749  0.31311046
   0.04184264  0.13051489  0.03430237
   0.13087669  0.95764103  0.13245935
   0.37436308  0.46047946  0.42449609
   0.45524451  0.54665233  0.21905292
   0.62599927  0.71064535  0.42727431
   0.95710069  0.78864651  0.22083349
   0.79333741  0.62444843  0.31959096
   0.29352103  0.63262698  0.31880314
   0.20215516  0.28034130  0.22532003
   0.70645575  0.55036617  0.22140927
   0.04103259  0.63157781  0.32441172
   0.79601056  0.86182010  0.04358326
   0.05654378  0.86511100  0.03922008
   0.04354811  0.63172365  0.03890931
   0.62768151  0.22351632  0.12936912
   0.38251648  0.95408414  0.13073287
   0.03550832  0.38503943  0.32384157
   0.02789537  0.38111357  0.03922688
   0.87238548  0.21524336  0.12909491
   0.95491148  0.54499193  0.22397987
   0.29775671  0.11706931  0.32028031
   0.54119016  0.63053205  0.32286574
   0.29593874  0.11566849  0.04109769
   0.54915757  0.62535345  0.04512996
   0.29444361  0.38188257  0.03954700
   0.62577798  0.94799811  0.13283874
   0.70785455  0.79351454  0.22033617
   0.86523064  0.70443471  0.12965162
   0.62674088  0.45978399  0.12791088
   0.29813246  0.87634682  0.31707285
   0.30656831  0.86859519  0.04153612
   0.62656079  0.71505450  0.12903147
   0.22716492  0.02701305  0.22690289
   0.54425403  0.38139876  0.03593963
   0.37883082  0.20414358  0.13341050
   0.13702030  0.70469682  0.13275664
   0.70518995  0.05093563  0.22018833
   0.79372367  0.13022557  0.31622193
   0.53945584  0.87305462  0.31682921
   0.79690904  0.12300803  0.03589815
   0.54639677  0.86991640  0.03703501
   0.20857802  0.54284177  0.22373302
   0.95081756  0.29852099  0.22162824
   0.87203635  0.96412677  0.12966428
   0.71528011  0.29082048  0.22353599
   0.45743436  0.29302583  0.22078912
   0.87549525  0.45703326  0.12894021
   0.12808024  0.20618715  0.12934578
   0.79201094  0.62176511  0.04149761
   0.29752238  0.62870438  0.04356032
   0.38614974  0.71252577  0.12966825
   0.38234618  0.45146388  0.12688447
   0.79423515  0.38051613  0.31984151
   0.79142063  0.37689392  0.04093851
   0.95568213  0.05402358  0.22143498
   0.45969126  0.79645355  0.22490692
   0.21584587  0.79712857  0.22467359
   0.46299503  0.02989512  0.22260567
   0.48715555  0.72636787  0.47854553
 
 position of ions in cartesian coordinates  (Angst):
  13.07988529  8.12145515  6.96016661
   5.16777906  8.15094083  6.92185976
   5.01660287  3.52762778  7.00739706
  14.46074486  8.89230293  9.27772076
   3.76828615  4.28195367  9.36659007
   6.45767770  8.88586120  9.22625820
  11.78922699  4.23562711  9.35890400
   9.11645171  8.88687496  9.18237750
  10.45617761  1.95225882  9.21153184
   2.47473010  1.95628485  9.26043982
  11.79362585  8.87662810  9.28012788
  13.11233790  6.57114534  9.34675031
   5.11672417  1.94002086  9.30921098
   7.78708170  6.56575444  9.37738172
   9.14321706  4.23315122  9.24537680
   5.11773416  6.57331566  9.33103581
   7.78493593  1.94584753  9.26388609
   7.85678860  3.47072167  6.96278685
   6.37380276  1.16045721  6.91408081
   6.49877769  1.12700682  0.91782815
   3.73329140  4.24365001  2.82304227
   1.21311370  1.26575316  6.88843005
   1.14168689  1.20489139  0.75465211
   6.49937211  8.84077982  2.91410569
   6.44506584  4.25106845  9.33891398
   7.76656330  5.04660175  4.81916428
  10.46089176  6.56055756  9.40003491
  14.40617908  7.28065106  4.85833669
  11.78528672  5.76480215  7.03100107
   6.50083593  5.84030520  7.01366899
   3.64919311  2.58806345  4.95704059
  10.46426986  5.08088730  4.87100386
   3.80371710  5.83061944  7.13705791
  13.07897347  7.95617723  0.95883175
   5.21379828  7.98655826  0.86284167
   3.83130979  5.83196573  0.85600479
   7.88242681  2.06346482  2.84612068
   9.16289403  8.80794326  2.87612304
   2.43077886  3.55461885  7.12451446
   2.32869997  3.51837592  0.86299137
  10.44687620  1.98709023  2.84008810
  13.08416317  5.03127325  4.92755711
   3.79806597  1.08076409  7.04616674
   9.12982284  5.82096513  7.10304636
   3.77121995  1.06783187  0.90414915
   9.18715339  5.77315714  0.99285907
   5.17420286  3.52547522  0.87003394
  11.72362308  8.75175804  2.92245229
  11.77516180  7.32559188  4.84739566
  12.97799537  6.50322193  2.85233561
   9.13170631  4.24464793  2.81403934
   7.84902048  8.09028544  6.97560262
   7.89763048  8.01872375  0.91379463
  10.49037833  6.60126203  2.83869239
   2.56555752  0.24937987  4.99186363
   7.83460323  3.52100880  0.79067188
   5.12642169  1.88461893  2.93503107
   5.21667036  6.50564171  2.92064609
   7.78881167  0.47022914  4.84414337
   9.15519652  1.20222045  6.95688249
  10.40398023  8.05989239  6.97024254
   9.15068307  1.13558928  0.78975929
  10.46124387  8.03092093  0.81477030
   5.11678826  5.01142335  4.92212637
  11.72683193  2.75589521  4.87582133
  14.43470298  8.90065509  2.85261421
   9.17495900  2.68480543  4.91779176
   6.43807782  2.70516480  4.85736070
  11.76876646  4.21925362  2.83668457
   2.46431279  1.90348482  2.84560726
  11.75684446  5.74003023  0.91294740
   6.52258279  5.80409234  0.95832694
   7.91411848  6.57791728  2.85270146
   6.48211261  4.16783809  2.79145838
  10.49469750  3.51286044  7.03651326
  10.44538833  3.47942085  0.90064720
  10.47551708  0.49873656  4.87156950
   9.14540612  7.35272431  4.94795227
   6.54961219  7.35895599  4.94281890
   5.09486791  0.27598668  4.89732481
   9.06461876  6.70570518 10.52800165
 


--------------------------------------------------------------------------------------------------------


 k-point  1 :   0.0000 0.0000 0.0000  plane waves:   63475
 k-point  2 :   0.5000-0.0000 0.0000  plane waves:   63428
 k-point  3 :   0.0000 0.5000 0.0000  plane waves:   63428
 k-point  4 :   0.5000 0.5000 0.0000  plane waves:   63428

 maximum and minimum number of plane-waves per node :     63475    63428

 maximum number of plane-waves:     63475
 maximum index in each direction: 
   IXMAX=   20   IYMAX=   20   IZMAX=   42
   IXMIN=  -20   IYMIN=  -20   IZMIN=  -42


 serial   3D FFT for wavefunctions
 parallel 3D FFT for charge:
    minimum data exchange during FFTs selected (reduces bandwidth)


 total amount of memory used by VASP MPI-rank0   369858. kBytes
=======================================================================

   base      :      30000. kBytes
   nonlr-proj:      96555. kBytes
   fftplans  :      12162. kBytes
   grid      :     120476. kBytes
   one-center:       2519. kBytes
   wavefun   :     108146. kBytes
 
     INWAV:  cpu time    0.0000: real time    0.0004
 Broyden mixing: mesh for mixing (old mesh)
   NGX = 41   NGY = 41   NGZ = 85
  (NGX  =168   NGY  =168   NGZ  =336)
  gives a total of 142885 points

 initial charge density was supplied:
 charge density of overlapping atoms calculated
 number of electron     778.0000000 magnetization     231.0000000
 keeping initial charge density in first step


--------------------------------------------------------------------------------------------------------


 Maximum index for non-local projection operator         7405
 Maximum index for augmentation-charges         1436 (set IRDMAX)


--------------------------------------------------------------------------------------------------------


 First call to EWALD:  gamma=   0.137
 Maximum number of real-space cells 4x 4x 2
 Maximum number of reciprocal cells 2x 2x 4

    FEWALD:  cpu time    0.0039: real time    0.0039


--------------------------------------- Iteration      1(   1)  ---------------------------------------


    POTLOK:  cpu time    0.4602: real time    0.4667
    SETDIJ:  cpu time    0.0324: real time    0.0326
     EDDAV:  cpu time   59.4815: real time   61.2744
 BZINTS: Fermi energy: 17.495524;778.000000 electrons
         Band energy:7817.687965;  BLOECHL correction: -0.016429
       DOS:  cpu time    0.0233: real time    0.0407
    --------------------------------------------
      LOOP:  cpu time   59.9974: real time   61.8145

 eigenvalue-minimisations  :  9984
 total energy-change (2. order) : 0.7572475E+04  (-0.3345377E+05)
 number of electron     778.0000000 magnetization     231.0000000
 augmentation part      778.0000000 magnetization     231.0000000

 Free energy of the ion-electron system (eV)
  ---------------------------------------------------
  alpha Z        PSCENC =      2197.15539535
  Ewald energy   TEWEN  =    222732.25497847
  -Hartree energ DENC   =   -294875.91756742
  -exchange      EXHF   =         0.00000000
  -V(xc)+E(xc)   XCENC  =      1384.54806005
  PAW double counting   =     64136.80006862   -66038.70876209
  entropy T*S    EENTRO =         0.00000000
  eigenvalues    EBANDS =      7817.68796500
  atomic energy  EATOM  =     70218.65458108
  Solvation  Ediel_sol  =         0.00000000
  ---------------------------------------------------
  free energy    TOTEN  =      7572.47471905 eV

  energy without entropy =     7572.47471905  energy(sigma->0) =     7572.47471905


--------------------------------------------------------------------------------------------------------




--------------------------------------- Iteration      1(   2)  ---------------------------------------


     EDDAV:  cpu time   60.4810: real time   60.6685
 BZINTS: Fermi energy:  5.709677;778.000000 electrons
         Band energy: 874.164925;  BLOECHL correction: -0.122775
       DOS:  cpu time    0.0230: real time    0.0237
    --------------------------------------------
      LOOP:  cpu time   60.5040: real time   60.6921

 eigenvalue-minimisations  : 10224
 total energy-change (2. order) :-0.6943523E+04  (-0.6149574E+04)
 number of electron     778.0000000 magnetization     231.0000000
 augmentation part      778.0000000 magnetization     231.0000000

 Free energy of the ion-electron system (eV)
  ---------------------------------------------------
  alpha Z        PSCENC =      2197.15539535
  Ewald energy   TEWEN  =    222732.25497847
  -Hartree energ DENC   =   -294875.91756742
  -exchange      EXHF   =         0.00000000
  -V(xc)+E(xc)   XCENC  =      1384.54806005
  PAW double counting   =     64136.80006862   -66038.70876209
  entropy T*S    EENTRO =         0.00000000
  eigenvalues    EBANDS =       874.16492516
  atomic energy  EATOM  =     70218.65458108
  Solvation  Ediel_sol  =         0.00000000
  ---------------------------------------------------
  free energy    TOTEN  =       628.95167922 eV

  energy without entropy =      628.95167922  energy(sigma->0) =      628.95167922


--------------------------------------------------------------------------------------------------------




--------------------------------------- Iteration      1(   3)  ---------------------------------------


     EDDAV:  cpu time   59.9093: real time   60.1595
 BZINTS: Fermi energy:  3.430149;778.000000 electrons
         Band energy:-185.605001;  BLOECHL correction: -0.019692
       DOS:  cpu time    0.0253: real time    0.0387
    --------------------------------------------
      LOOP:  cpu time   59.9346: real time   60.1982

 eigenvalue-minimisations  : 10128
 total energy-change (2. order) :-0.1059770E+04  (-0.8869395E+03)
 number of electron     778.0000000 magnetization     231.0000000
 augmentation part      778.0000000 magnetization     231.0000000

 Free energy of the ion-electron system (eV)
  ---------------------------------------------------
  alpha Z        PSCENC =      2197.15539535
  Ewald energy   TEWEN  =    222732.25497847
  -Hartree energ DENC   =   -294875.91756742
  -exchange      EXHF   =         0.00000000
  -V(xc)+E(xc)   XCENC  =      1384.54806005
  PAW double counting   =     64136.80006862   -66038.70876209
  entropy T*S    EENTRO =         0.00000000
  eigenvalues    EBANDS =      -185.60500055
  atomic energy  EATOM  =     70218.65458108
  Solvation  Ediel_sol  =         0.00000000
  ---------------------------------------------------
  free energy    TOTEN  =      -430.81824649 eV

  energy without entropy =     -430.81824649  energy(sigma->0) =     -430.81824649


--------------------------------------------------------------------------------------------------------




--------------------------------------- Iteration      1(   4)  ---------------------------------------


     EDDAV:  cpu time   69.8806: real time   70.1322
 BZINTS: Fermi energy:  3.302874;778.000000 electrons
         Band energy:-250.084107;  BLOECHL correction: -0.012777
       DOS:  cpu time    0.0241: real time    0.0343
    --------------------------------------------
      LOOP:  cpu time   69.9047: real time   70.1665

 eigenvalue-minimisations  : 12240
 total energy-change (2. order) :-0.6447911E+02  (-0.6206623E+02)
 number of electron     778.0000000 magnetization     231.0000000
 augmentation part      778.0000000 magnetization     231.0000000

 Free energy of the ion-electron system (eV)
  ---------------------------------------------------
  alpha Z        PSCENC =      2197.15539535
  Ewald energy   TEWEN  =    222732.25497847
  -Hartree energ DENC   =   -294875.91756742
  -exchange      EXHF   =         0.00000000
  -V(xc)+E(xc)   XCENC  =      1384.54806005
  PAW double counting   =     64136.80006862   -66038.70876209
  entropy T*S    EENTRO =         0.00000000
  eigenvalues    EBANDS =      -250.08410684
  atomic energy  EATOM  =     70218.65458108
  Solvation  Ediel_sol  =         0.00000000
  ---------------------------------------------------
  free energy    TOTEN  =      -495.29735278 eV

  energy without entropy =     -495.29735278  energy(sigma->0) =     -495.29735278


--------------------------------------------------------------------------------------------------------




--------------------------------------- Iteration      1(   5)  ---------------------------------------


     EDDAV:  cpu time   70.0069: real time   70.2138
 BZINTS: Fermi energy:  3.299203;778.000000 electrons
         Band energy:-252.205059;  BLOECHL correction: -0.012355
       DOS:  cpu time    0.0262: real time    0.0271
    CHARGE:  cpu time    2.6778: real time    2.6851
    MIXING:  cpu time    0.0111: real time    0.0112
    --------------------------------------------
      LOOP:  cpu time   72.7220: real time   72.9372

 eigenvalue-minimisations  : 12288
 total energy-change (2. order) :-0.2120952E+01  (-0.2116200E+01)
 number of electron     778.0000026 magnetization     216.5408102
 augmentation part      334.9894486 magnetization     184.0744781

 Broyden mixing:
  rms(total) = 0.11740E+02    rms(broyden)= 0.11740E+02
  rms(prec ) = 0.12060E+02
  weight for this iteration     100.00

 Free energy of the ion-electron system (eV)
  ---------------------------------------------------
  alpha Z        PSCENC =      2197.15539535
  Ewald energy   TEWEN  =    222732.25497847
  -Hartree energ DENC   =   -294875.91756742
  -exchange      EXHF   =         0.00000000
  -V(xc)+E(xc)   XCENC  =      1384.54806005
  PAW double counting   =     64136.80006862   -66038.70876209
  entropy T*S    EENTRO =         0.00000000
  eigenvalues    EBANDS =      -252.20505909
  atomic energy  EATOM  =     70218.65458108
  Solvation  Ediel_sol  =         0.00000000
  ---------------------------------------------------
  free energy    TOTEN  =      -497.41830504 eV

  energy without entropy =     -497.41830504  energy(sigma->0) =     -497.41830504


--------------------------------------------------------------------------------------------------------




--------------------------------------- Iteration      1(   6)  ---------------------------------------


    POTLOK:  cpu time    0.4098: real time    0.4118
    SETDIJ:  cpu time    0.0314: real time    0.0315
    EDDIAG:  cpu time    9.9953: real time   10.0231
  RMM-DIIS:  cpu time   37.8017: real time   37.9086
    ORTHCH:  cpu time    1.6159: real time    1.6204
 BZINTS: Fermi energy:  1.568155;778.000000 electrons
         Band energy:***********;  BLOECHL correction: -0.046540
       DOS:  cpu time    0.0275: real time    0.0275
    CHARGE:  cpu time    2.6680: real time    2.6751
    MIXING:  cpu time    0.0140: real time    0.0159
    --------------------------------------------
      LOOP:  cpu time   52.5636: real time   52.7140

 eigenvalue-minimisations  : 10036
 total energy-change (2. order) :-0.1687340E+03  (-0.8431686E+02)
 number of electron     778.0000035 magnetization     212.4743403
 augmentation part      406.3776266 magnetization     179.5289739

 Broyden mixing:
  rms(total) = 0.19734E+02    rms(broyden)= 0.19734E+02
  rms(prec ) = 0.25646E+02
  weight for this iteration     100.00

 eigenvalues of (default mixing * dielectric matrix)
  average eigenvalue GAMMA=   0.2245
  0.2245

 Free energy of the ion-electron system (eV)
  ---------------------------------------------------
  alpha Z        PSCENC =      2197.15539535
  Ewald energy   TEWEN  =    222732.25497847
  -Hartree energ DENC   =   -293260.74530313
  -exchange      EXHF   =         0.00000000
  -V(xc)+E(xc)   XCENC  =      1338.22344838
  PAW double counting   =     68938.65749126   -70630.01324817
  entropy T*S    EENTRO =         0.00000000
  eigenvalues    EBANDS =     -2200.33966209
  atomic energy  EATOM  =     70218.65458108
  Solvation  Ediel_sol  =         0.00000000
  ---------------------------------------------------
  free energy    TOTEN  =      -666.15231886 eV

  energy without entropy =     -666.15231886  energy(sigma->0) =     -666.15231886


--------------------------------------------------------------------------------------------------------




--------------------------------------- Iteration      1(   7)  ---------------------------------------


    POTLOK:  cpu time    0.4067: real time    0.4210
    SETDIJ:  cpu time    0.0316: real time    0.0317
    EDDIAG:  cpu time    9.9842: real time   10.0259
  RMM-DIIS:  cpu time   37.7548: real time   37.9533
    ORTHCH:  cpu time    1.5873: real time    1.5947
 BZINTS: Fermi energy:  2.990248;778.000000 electrons
         Band energy:***********;  BLOECHL correction: -0.005105
       DOS:  cpu time    0.0262: real time    0.0263
    CHARGE:  cpu time    2.6717: real time    2.6790
    MIXING:  cpu time    0.0104: real time    0.0106
    --------------------------------------------
      LOOP:  cpu time   52.4730: real time   52.7426

 eigenvalue-minimisations  : 10001
 total energy-change (2. order) : 0.1271664E+03  (-0.1461572E+02)
 number of electron     778.0000038 magnetization     207.8310780
 augmentation part      366.2435035 magnetization     165.3367733

 Broyden mixing:
  rms(total) = 0.15623E+02    rms(broyden)= 0.15623E+02
  rms(prec ) = 0.21062E+02
  weight for this iteration     100.00

 eigenvalues of (default mixing * dielectric matrix)
  average eigenvalue GAMMA=   0.2674
  0.3691  0.1658

 Free energy of the ion-electron system (eV)
  ---------------------------------------------------
  alpha Z        PSCENC =      2197.15539535
  Ewald energy   TEWEN  =    222732.25497847
  -Hartree energ DENC   =   -293950.47148308
  -exchange      EXHF   =         0.00000000
  -V(xc)+E(xc)   XCENC  =      1358.54884556
  PAW double counting   =     69983.95919918   -71835.59527607
  entropy T*S    EENTRO =         0.00000000
  eigenvalues    EBANDS =     -1243.49211708
  atomic energy  EATOM  =     70218.65458108
  Solvation  Ediel_sol  =         0.00000000
  ---------------------------------------------------
  free energy    TOTEN  =      -538.98587660 eV

  energy without entropy =     -538.98587660  energy(sigma->0) =     -538.98587660


--------------------------------------------------------------------------------------------------------




--------------------------------------- Iteration      1(   8)  ---------------------------------------


    POTLOK:  cpu time    0.4076: real time    0.4100
    SETDIJ:  cpu time    0.0319: real time    0.0320
    EDDIAG:  cpu time    9.9541: real time    9.9818
  RMM-DIIS:  cpu time   37.6932: real time   37.8964
    ORTHCH:  cpu time    1.5762: real time    1.5843
 BZINTS: Fermi energy:  2.597812;778.000000 electrons
         Band energy:-858.757935;  BLOECHL correction: -0.003428
       DOS:  cpu time    0.0266: real time    0.0267
    CHARGE:  cpu time    2.6591: real time    2.6664
    MIXING:  cpu time    0.0119: real time    0.0123
    --------------------------------------------
      LOOP:  cpu time   52.3605: real time   52.6100

 eigenvalue-minimisations  : 10013
 total energy-change (2. order) : 0.6035741E+02  (-0.9247603E+01)
[...]
      9.129823  5.820965  7.103046            0           0           0  
      3.771220  1.067832  0.904149            0           0           0  
      9.187153  5.773157  0.992859            0           0           0  
      5.174203  3.525475  0.870034            0           0           0  
     11.723623  8.751758  2.922452            0           0           0  
     11.775162  7.325592  4.847396            0           0           0  
     12.977995  6.503222  2.852336            0           0           0  
      9.131706  4.244648  2.814039            0           0           0  
      7.849020  8.090285  6.975603            0           0           0  
      7.897630  8.018724  0.913795            0           0           0  
     10.490378  6.601262  2.838692            0           0           0  
      2.565558  0.249380  4.991864            0           0           0  
      7.834603  3.521009  0.790672            0           0           0  
      5.126422  1.884619  2.935031            0           0           0  
      5.216670  6.505642  2.920646            0           0           0  
      7.788812  0.470229  4.844143            0           0           0  
      9.155197  1.202220  6.956882            0           0           0  
     10.403980  8.059892  6.970243            0           0           0  
      9.150683  1.135589  0.789759            0           0           0  
     10.461244  8.030921  0.814770            0           0           0  
      5.116788  5.011423  4.922126            0           0           0  
     11.726832  2.755895  4.875821            0           0           0  
     14.434703  8.900655  2.852614            0           0           0  
      9.174959  2.684805  4.917792            0           0           0  
      6.438078  2.705165  4.857361            0           0           0  
     11.768766  4.219254  2.836685            0           0           0  
      2.464313  1.903485  2.845607            0           0           0  
     11.756844  5.740030  0.912947            0           0           0  
      6.522583  5.804092  0.958327            0           0           0  
      7.914118  6.577917  2.852701            0           0           0  
      6.482113  4.167838  2.791458            0           0           0  
     10.494697  3.512860  7.036513            0           0           0  
     10.445388  3.479421  0.900647            0           0           0  
     10.475517  0.498737  4.871570            0           0           0  
      9.145406  7.352724  4.947952            0           0           0  
      6.549612  7.358956  4.942819            0           0           0  
      5.094868  0.275987  4.897325            0           0           0  
      9.064619  6.705705 10.528002     0.219623    0.098008    0.970649  
 
   2 f  =   22.749717 THz   142.940689 2PiTHz  758.848860 cm-1    94.085301 meV
             X         Y         Z           dx          dy          dz
     13.079885  8.121455  6.960167            0           0           0  
      5.167779  8.150941  6.921860            0           0           0  
      5.016603  3.527628  7.007397            0           0           0  
     14.460745  8.892303  9.277721            0           0           0  
      3.768286  4.281954  9.366590            0           0           0  
      6.457678  8.885861  9.226258            0           0           0  
     11.789227  4.235627  9.358904            0           0           0  
      9.116452  8.886875  9.182378            0           0           0  
     10.456178  1.952259  9.211532            0           0           0  
      2.474730  1.956285  9.260440            0           0           0  
     11.793626  8.876628  9.280128            0           0           0  
     13.112338  6.571145  9.346750            0           0           0  
      5.116724  1.940021  9.309211            0           0           0  
      7.787082  6.565754  9.377382            0           0           0  
      9.143217  4.233151  9.245377            0           0           0  
      5.117734  6.573316  9.331036            0           0           0  
      7.784936  1.945848  9.263886            0           0           0  
      7.856789  3.470722  6.962787            0           0           0  
      6.373803  1.160457  6.914081            0           0           0  
      6.498778  1.127007  0.917828            0           0           0  
      3.733291  4.243650  2.823042            0           0           0  
      1.213114  1.265753  6.888430            0           0           0  
      1.141687  1.204891  0.754652            0           0           0  
      6.499372  8.840780  2.914106            0           0           0  
      6.445066  4.251068  9.338914            0           0           0  
      7.766563  5.046602  4.819164            0           0           0  
     10.460892  6.560558  9.400035            0           0           0  
     14.406179  7.280651  4.858337            0           0           0  
     11.785287  5.764802  7.031001            0           0           0  
      6.500836  5.840305  7.013669            0           0           0  
      3.649193  2.588063  4.957041            0           0           0  
     10.464270  5.080887  4.871004            0           0           0  
      3.803717  5.830619  7.137058            0           0           0  
     13.078973  7.956177  0.958832            0           0           0  
      5.213798  7.986558  0.862842            0           0           0  
      3.831310  5.831966  0.856005            0           0           0  
      7.882427  2.063465  2.846121            0           0           0  
      9.162894  8.807943  2.876123            0           0           0  
      2.430779  3.554619  7.124514            0           0           0  
      2.328700  3.518376  0.862991            0           0           0  
     10.446876  1.987090  2.840088            0           0           0  
     13.084163  5.031273  4.927557            0           0           0  
      3.798066  1.080764  7.046167            0           0           0  
      9.129823  5.820965  7.103046            0           0           0  
      3.771220  1.067832  0.904149            0           0           0  
      9.187153  5.773157  0.992859            0           0           0  
      5.174203  3.525475  0.870034            0           0           0  
     11.723623  8.751758  2.922452            0           0           0  
     11.775162  7.325592  4.847396            0           0           0  
     12.977995  6.503222  2.852336            0           0           0  
      9.131706  4.244648  2.814039            0           0           0  
      7.849020  8.090285  6.975603            0           0           0  
      7.897630  8.018724  0.913795            0           0           0  
     10.490378  6.601262  2.838692            0           0           0  
      2.565558  0.249380  4.991864            0           0           0  
      7.834603  3.521009  0.790672            0           0           0  
      5.126422  1.884619  2.935031            0           0           0  
      5.216670  6.505642  2.920646            0           0           0  
      7.788812  0.470229  4.844143            0           0           0  
      9.155197  1.202220  6.956882            0           0           0  
     10.403980  8.059892  6.970243            0           0           0  
      9.150683  1.135589  0.789759            0           0           0  
     10.461244  8.030921  0.814770            0           0           0  
      5.116788  5.011423  4.922126            0           0           0  
     11.726832  2.755895  4.875821            0           0           0  
     14.434703  8.900655  2.852614            0           0           0  
      9.174959  2.684805  4.917792            0           0           0  
      6.438078  2.705165  4.857361            0           0           0  
     11.768766  4.219254  2.836685            0           0           0  
      2.464313  1.903485  2.845607            0           0           0  
     11.756844  5.740030  0.912947            0           0           0  
      6.522583  5.804092  0.958327            0           0           0  
      7.914118  6.577917  2.852701            0           0           0  
      6.482113  4.167838  2.791458            0           0           0  
     10.494697  3.512860  7.036513            0           0           0  
     10.445388  3.479421  0.900647            0           0           0  
     10.475517  0.498737  4.871570            0           0           0  
      9.145406  7.352724  4.947952            0           0           0  
      6.549612  7.358956  4.942819            0           0           0  
      5.094868  0.275987  4.897325            0           0           0  
      9.064619  6.705705 10.528002     0.975464   -0.006378   -0.220069  
 
   3 f  =   10.133860 THz    63.672921 2PiTHz  338.029180 cm-1    41.910292 meV
             X         Y         Z           dx          dy          dz
     13.079885  8.121455  6.960167            0           0           0  
      5.167779  8.150941  6.921860            0           0           0  
      5.016603  3.527628  7.007397            0           0           0  
     14.460745  8.892303  9.277721            0           0           0  
      3.768286  4.281954  9.366590            0           0           0  
      6.457678  8.885861  9.226258            0           0           0  
     11.789227  4.235627  9.358904            0           0           0  
      9.116452  8.886875  9.182378            0           0           0  
     10.456178  1.952259  9.211532            0           0           0  
      2.474730  1.956285  9.260440            0           0           0  
     11.793626  8.876628  9.280128            0           0           0  
     13.112338  6.571145  9.346750            0           0           0  
      5.116724  1.940021  9.309211            0           0           0  
      7.787082  6.565754  9.377382            0           0           0  
      9.143217  4.233151  9.245377            0           0           0  
      5.117734  6.573316  9.331036            0           0           0  
      7.784936  1.945848  9.263886            0           0           0  
      7.856789  3.470722  6.962787            0           0           0  
      6.373803  1.160457  6.914081            0           0           0  
      6.498778  1.127007  0.917828            0           0           0  
      3.733291  4.243650  2.823042            0           0           0  
      1.213114  1.265753  6.888430            0           0           0  
      1.141687  1.204891  0.754652            0           0           0  
      6.499372  8.840780  2.914106            0           0           0  
      6.445066  4.251068  9.338914            0           0           0  
      7.766563  5.046602  4.819164            0           0           0  
     10.460892  6.560558  9.400035            0           0           0  
     14.406179  7.280651  4.858337            0           0           0  
     11.785287  5.764802  7.031001            0           0           0  
      6.500836  5.840305  7.013669            0           0           0  
      3.649193  2.588063  4.957041            0           0           0  
     10.464270  5.080887  4.871004            0           0           0  
      3.803717  5.830619  7.137058            0           0           0  
     13.078973  7.956177  0.958832            0           0           0  
      5.213798  7.986558  0.862842            0           0           0  
      3.831310  5.831966  0.856005            0           0           0  
      7.882427  2.063465  2.846121            0           0           0  
      9.162894  8.807943  2.876123            0           0           0  
      2.430779  3.554619  7.124514            0           0           0  
      2.328700  3.518376  0.862991            0           0           0  
     10.446876  1.987090  2.840088            0           0           0  
     13.084163  5.031273  4.927557            0           0           0  
      3.798066  1.080764  7.046167            0           0           0  
      9.129823  5.820965  7.103046            0           0           0  
      3.771220  1.067832  0.904149            0           0           0  
      9.187153  5.773157  0.992859            0           0           0  
      5.174203  3.525475  0.870034            0           0           0  
     11.723623  8.751758  2.922452            0           0           0  
     11.775162  7.325592  4.847396            0           0           0  
     12.977995  6.503222  2.852336            0           0           0  
      9.131706  4.244648  2.814039            0           0           0  
      7.849020  8.090285  6.975603            0           0           0  
      7.897630  8.018724  0.913795            0           0           0  
     10.490378  6.601262  2.838692            0           0           0  
      2.565558  0.249380  4.991864            0           0           0  
      7.834603  3.521009  0.790672            0           0           0  
      5.126422  1.884619  2.935031            0           0           0  
      5.216670  6.505642  2.920646            0           0           0  
      7.788812  0.470229  4.844143            0           0           0  
      9.155197  1.202220  6.956882            0           0           0  
     10.403980  8.059892  6.970243            0           0           0  
      9.150683  1.135589  0.789759            0           0           0  
     10.461244  8.030921  0.814770            0           0           0  
      5.116788  5.011423  4.922126            0           0           0  
     11.726832  2.755895  4.875821            0           0           0  
     14.434703  8.900655  2.852614            0           0           0  
      9.174959  2.684805  4.917792            0           0           0  
      6.438078  2.705165  4.857361            0           0           0  
     11.768766  4.219254  2.836685            0           0           0  
      2.464313  1.903485  2.845607            0           0           0  
     11.756844  5.740030  0.912947            0           0           0  
      6.522583  5.804092  0.958327            0           0           0  
      7.914118  6.577917  2.852701            0           0           0  
      6.482113  4.167838  2.791458            0           0           0  
     10.494697  3.512860  7.036513            0           0           0  
     10.445388  3.479421  0.900647            0           0           0  
     10.475517  0.498737  4.871570            0           0           0  
      9.145406  7.352724  4.947952            0           0           0  
      6.549612  7.358956  4.942819            0           0           0  
      5.094868  0.275987  4.897325            0           0           0  
      9.064619  6.705705 10.528002     0.015378   -0.995165    0.097004  
 
 Finite differences POTIM=  1.500000000000000E-002
  LATTYP: Found a hexagonal cell.
 ALAT       =    10.6599998474
 C/A-ratio  =     2.0637898982
  
  Lattice vectors:
  
 A1 = (   5.3299999237,  -9.2318306722,   0.0000000000)
 A2 = ( -10.6599998474,   0.0000000000,   0.0000000000)
 A3 = (   0.0000000000,   0.0000000000, -22.0000000000)


Analysis of symmetry for initial positions (statically):
=====================================================================
 Subroutine PRICEL returns:
 Original cell was already a primitive cell.
 

 Routine SETGRP: Setting up the symmetry group for a 
 hexagonal supercell.


 Subroutine GETGRP returns: Found  1 space group operations
 (whereof  1 operations were pure point group operations)
 out of a pool of 24 trial point group operations.


The static configuration has the point symmetry C_1 .


Analysis of symmetry for dynamics (positions and initial velocities):
=====================================================================
 Subroutine PRICEL returns:
 Original cell was already a primitive cell.
 

 Routine SETGRP: Setting up the symmetry group for a 
 hexagonal supercell.


 Subroutine GETGRP returns: Found  1 space group operations
 (whereof  1 operations were pure point group operations)
 out of a pool of 24 trial point group operations.


The dynamic configuration has the point symmetry C_1 .


Analysis of constrained symmetry for selective dynamics:
=====================================================================
 Subroutine PRICEL returns:
 Original cell was already a primitive cell.
 

 Routine SETGRP: Setting up the symmetry group for a 
 hexagonal supercell.


 Subroutine GETGRP returns: Found  1 space group operations
 (whereof  1 operations were pure point group operations)
 out of a pool of 24 trial point group operations.


The constrained configuration has the point symmetry C_1 .


Analysis of structural, dynamic, and magnetic symmetry:
=====================================================================
 Subroutine PRICEL returns:
 Original cell was already a primitive cell.
 

 Routine SETGRP: Setting up the symmetry group for a 
 hexagonal supercell.


 Subroutine GETGRP returns: Found  1 space group operations
 (whereof  1 operations were pure point group operations)
 out of a pool of 24 trial point group operations.


The magnetic configuration has the point symmetry C_1 .


 Subroutine INISYM returns: Found  1 space group operations
 (whereof  1 operations are pure point group operations),
 and found     1 'primitive' translations

 
 KPOINTS: mesh auto                               

Automatic generation of k-mesh.
Space group operators:
 irot       det(A)        alpha          n_x          n_y          n_z        tau_x        tau_y        tau_z
    1     1.000000     0.000000     1.000000     0.000000     0.000000     0.000000     0.000000     0.000000
 
 Subroutine IBZKPT returns following result:
 ===========================================
 
 Found      4 irreducible k-points:
 
 Following reciprocal coordinates:
            Coordinates               Weight
  0.000000  0.000000  0.000000      1.000000
  0.500000 -0.000000  0.000000      1.000000
  0.000000  0.500000  0.000000      1.000000
  0.500000  0.500000  0.000000      1.000000
 
 Following cartesian coordinates:
            Coordinates               Weight
  0.000000  0.000000  0.000000      1.000000
  0.046904 -0.027080  0.000000      1.000000
  0.000000  0.054160  0.000000      1.000000
  0.046904  0.027080  0.000000      1.000000
 
 TETIRR: Found     12 inequivalent tetrahedra from       24
     LOOP+:  cpu time  761.4188: real time  764.6103
    4ORBIT:  cpu time    0.0000: real time    0.0000
 BZINTS: Fermi energy:  1.938930;778.000000 electrons
         Band energy:-742.283538;  BLOECHL correction: -0.273242

 total amount of memory used by VASP MPI-rank0   369858. kBytes
=======================================================================

   base      :      30000. kBytes
   nonlr-proj:      96555. kBytes
   fftplans  :      12162. kBytes
   grid      :     120476. kBytes
   one-center:       2519. kBytes
   wavefun   :     108146. kBytes
 
  
  
 General timing and accounting informations for this job:
 ========================================================
  
                  Total CPU time used (sec):     7572.318
                            User time (sec):     7543.734
                          System time (sec):       28.585
                         Elapsed time (sec):     7625.375
  
                   Maximum memory used (kb):      704920.
                   Average memory used (kb):           0.
  
                          Minor page faults:      2830262
                          Major page faults:          179
                 Voluntary context switches:         6989
