 vasp.5.4.4.18Apr17-6-g9f103f2a35 (build Oct 25 2019 11:13:22) complex          
  
 executed on             LinuxIFC date 2022.02.12  02:28:56
 running on   48 total cores
 distrk:  each k-point on   48 cores,    1 groups
 distr:  one band on NCORES_PER_BAND=   4 cores,   12 groups


--------------------------------------------------------------------------------------------------------


 INCAR:
 POTCAR:    PAW_PBE Pt 04Feb2005                  
 POTCAR:    PAW_PBE Co 02Aug2007                  
 POTCAR:    PAW_PBE Ni 02Aug2007                  
 POTCAR:    PAW_PBE H 15Jun2001                   
 POTCAR:    PAW_PBE Pt 04Feb2005                  
   VRHFIN =Pt: s1d9                                                             
   LEXCH  = PE                                                                  
   EATOM  =   729.1176 eV,   53.5886 Ry                                         
                                                                                
   TITEL  = PAW_PBE Pt 04Feb2005                                                
   LULTRA =        F    use ultrasoft PP ?                                      
   IUNSCR =        1    unscreen: 0-lin 1-nonlin 2-no                           
   RPACOR =    2.330    partial core radius                                     
   POMASS =  195.080; ZVAL   =   10.000    mass and valenz                      
   RCORE  =    2.600    outmost cutoff radius                                   
   RWIGS  =    2.750; RWIGS  =    1.455    wigner-seitz radius (au A)           
   ENMAX  =  230.283; ENMIN  =  172.712 eV                                      
   ICORE  =        3    local potential                                         
   LCOR   =        T    correct aug charges                                     
   LPAW   =        T    paw PP                                                  
   EAUG   =  358.966                                                            
   DEXC   =    0.000                                                            
   RMAX   =    2.658    core radius for proj-oper                               
   RAUG   =    1.300    factor for augmentation sphere                          
   RDEP   =    2.761    radius for radial grids                                 
   RDEPT  =    2.203    core radius for aug-charge                              
                                                                                
   Atomic configuration                                                         
   16 entries                                                                   
     n  l   j            E        occ.                                          
     1  0  0.50    -78401.1885   2.0000                                         
     2  0  0.50    -13770.7750   2.0000                                         
     2  1  1.50    -11931.0468   6.0000                                         
     3  0  0.50     -3234.7234   2.0000                                         
     3  1  1.50     -2699.2216   6.0000                                         
     3  2  2.50     -2119.5714  10.0000                                         
     4  0  0.50      -695.1528   2.0000                                         
     4  1  1.50      -519.6034   6.0000                                         
     4  2  2.50      -306.6786  10.0000                                         
     4  3  3.50       -70.1041  14.0000                                         
     5  0  0.50      -101.7747   2.0000                                         
     5  1  1.50       -55.9873   6.0000                                         
     5  2  2.50        -6.1423   9.0000                                         
     6  0  0.50        -5.6573   1.0000                                         
     6  1  1.50        -6.8029   0.0000                                         
     5  3  2.50        -1.3606   0.0000                                         
   Description                                                                  
     l       E           TYP  RCUT    TYP  RCUT                                 
     2     -6.1423404     23  2.500                                             
     2     -7.5029230     23  2.500                                             
     0     -5.6573207     23  2.500                                             
     0      0.7416693     23  2.500                                             
     1     -2.7211652     23  2.600                                             
     1     20.4087390     23  2.600                                             
     3     -1.3605826     23  2.500                                             
  local pseudopotential read in
  partial core-charges read in
  partial kinetic energy density read in
  atomic valenz-charges read in
  non local Contribution for L=           2  read in
    real space projection operators read in
  non local Contribution for L=           2  read in
    real space projection operators read in
  non local Contribution for L=           0  read in
    real space projection operators read in
  non local Contribution for L=           0  read in
    real space projection operators read in
  non local Contribution for L=           1  read in
    real space projection operators read in
  non local Contribution for L=           1  read in
    real space projection operators read in
    PAW grid and wavefunctions read in
 
   number of l-projection  operators is LMAX  =           6
   number of lm-projection operators is LMMAX =          18
 
 POTCAR:    PAW_PBE Co 02Aug2007                  
   VRHFIN =Co: d8 s1                                                            
   LEXCH  = PE                                                                  
   EATOM  =   813.3670 eV,   59.7808 Ry                                         
                                                                                
   TITEL  = PAW_PBE Co 02Aug2007                                                
   LULTRA =        F    use ultrasoft PP ?                                      
   IUNSCR =        1    unscreen: 0-lin 1-nonlin 2-no                           
   RPACOR =    2.000    partial core radius                                     
   POMASS =   58.933; ZVAL   =    9.000    mass and valenz                      
   RCORE  =    2.300    outmost cutoff radius                                   
   RWIGS  =    2.460; RWIGS  =    1.302    wigner-seitz radius (au A)           
   ENMAX  =  267.968; ENMIN  =  200.976 eV                                      
   RCLOC  =    1.203    cutoff for local pot                                    
   LCOR   =        T    correct aug charges                                     
   LPAW   =        T    paw PP                                                  
   EAUG   =  477.818                                                            
   DEXC   =    0.000                                                            
   RMAX   =    2.360    core radius for proj-oper                               
   RAUG   =    1.300    factor for augmentation sphere                          
   RDEP   =    2.393    radius for radial grids                                 
   RDEPT  =    1.864    core radius for aug-charge                              
                                                                                
   Atomic configuration                                                         
    9 entries                                                                   
     n  l   j            E        occ.                                          
     1  0  0.50     -7587.6674   2.0000                                         
     2  0  0.50      -893.6084   2.0000                                         
     2  1  1.50      -764.5805   6.0000                                         
     3  0  0.50       -97.5973   2.0000                                         
     3  1  1.50       -60.9648   6.0000                                         
     3  2  2.50        -4.2382   8.0000                                         
     4  0  0.50        -4.3746   1.0000                                         
     4  1  1.50        -4.0817   0.0000                                         
     4  3  2.50        -1.3606   0.0000                                         
   Description                                                                  
     l       E           TYP  RCUT    TYP  RCUT                                 
     2     -4.2382362     23  2.300                                             
     2     -5.5988188     23  2.300                                             
     0     -4.3745797     23  2.300                                             
     0      5.7660125     23  2.300                                             
     1     -2.7211652     23  2.300                                             
     1     16.9860234     23  2.300                                             
  local pseudopotential read in
  partial core-charges read in
  partial kinetic energy density read in
  atomic valenz-charges read in
  non local Contribution for L=           2  read in
    real space projection operators read in
  non local Contribution for L=           2  read in
    real space projection operators read in
  non local Contribution for L=           0  read in
    real space projection operators read in
  non local Contribution for L=           0  read in
    real space projection operators read in
  non local Contribution for L=           1  read in
    real space projection operators read in
  non local Contribution for L=           1  read in
    real space projection operators read in
    PAW grid and wavefunctions read in
 
   number of l-projection  operators is LMAX  =           6
   number of lm-projection operators is LMMAX =          18
 
 POTCAR:    PAW_PBE Ni 02Aug2007                  
   VRHFIN =Ni:                                                                  
   LEXCH  = PE                                                                  
   EATOM  =  1077.6739 eV,   79.2068 Ry                                         
                                                                                
   TITEL  = PAW_PBE Ni 02Aug2007                                                
   LULTRA =        F    use ultrasoft PP ?                                      
   IUNSCR =        1    unscreen: 0-lin 1-nonlin 2-no                           
   RPACOR =    2.000    partial core radius                                     
   POMASS =   58.690; ZVAL   =   10.000    mass and valenz                      
   RCORE  =    2.300    outmost cutoff radius                                   
   RWIGS  =    2.430; RWIGS  =    1.286    wigner-seitz radius (au A)           
   ENMAX  =  269.532; ENMIN  =  202.149 eV                                      
   RCLOC  =    1.201    cutoff for local pot                                    
   LCOR   =        T    correct aug charges                                     
   LPAW   =        T    paw PP                                                  
   EAUG   =  544.565                                                            
   DEXC   =    0.000                                                            
   RMAX   =    2.357    core radius for proj-oper                               
   RAUG   =    1.300    factor for augmentation sphere                          
   RDEP   =    2.390    radius for radial grids                                 
   RDEPT  =    1.838    core radius for aug-charge                              
                                                                                
   Atomic configuration                                                         
    9 entries                                                                   
     n  l   j            E        occ.                                          
     1  0  0.50     -8206.4253   2.0000                                         
     2  0  0.50      -976.1748   2.0000                                         
     2  1  1.50      -839.0571   6.0000                                         
     3  0  0.50      -105.9991   2.0000                                         
     3  1  1.50       -66.4603   6.0000                                         
     3  2  2.50        -4.6458   9.0000                                         
     4  0  0.50        -4.4926   1.0000                                         
     4  1  1.50        -4.0817   0.0000                                         
     4  3  2.50        -1.3606   0.0000                                         
   Description                                                                  
     l       E           TYP  RCUT    TYP  RCUT                                 
     2     -4.6457903     23  2.300                                             
     2     -6.0063729     23  2.300                                             
     0     -4.4925590     23  2.300                                             
     0      5.0102601     23  2.300                                             
     1     -2.7211652     23  2.300                                             
     1     16.5183231     23  2.300                                             
  local pseudopotential read in
  partial core-charges read in
  partial kinetic energy density read in
  atomic valenz-charges read in
  non local Contribution for L=           2  read in
    real space projection operators read in
  non local Contribution for L=           2  read in
    real space projection operators read in
  non local Contribution for L=           0  read in
    real space projection operators read in
  non local Contribution for L=           0  read in
    real space projection operators read in
  non local Contribution for L=           1  read in
    real space projection operators read in
  non local Contribution for L=           1  read in
    real space projection operators read in
    PAW grid and wavefunctions read in
 
   number of l-projection  operators is LMAX  =           6
   number of lm-projection operators is LMMAX =          18
 
 POTCAR:    PAW_PBE H 15Jun2001                   
   VRHFIN =H: ultrasoft test                                                    
   LEXCH  = PE                                                                  
   EATOM  =    12.4884 eV,    0.9179 Ry                                         
                                                                                
   TITEL  = PAW_PBE H 15Jun2001                                                 
   LULTRA =        F    use ultrasoft PP ?                                      
   IUNSCR =        0    unscreen: 0-lin 1-nonlin 2-no                           
   RPACOR =    0.000    partial core radius                                     
   POMASS =    1.000; ZVAL   =    1.000    mass and valenz                      
   RCORE  =    1.100    outmost cutoff radius                                   
   RWIGS  =    0.700; RWIGS  =    0.370    wigner-seitz radius (au A)           
   ENMAX  =  250.000; ENMIN  =  200.000 eV                                      
   RCLOC  =    0.701    cutoff for local pot                                    
   LCOR   =        T    correct aug charges                                     
   LPAW   =        T    paw PP                                                  
   EAUG   =  400.000                                                            
   RMAX   =    1.123    core radius for proj-oper                               
   RAUG   =    1.200    factor for augmentation sphere                          
   RDEP   =    1.112    radius for radial grids                                 
   RDEPT  =    0.926    core radius for aug-charge                              
                                                                                
   Atomic configuration                                                         
    2 entries                                                                   
     n  l   j            E        occ.                                          
     1  0  0.50        -6.4927   1.0000                                         
     2  1  0.50        -3.4015   0.0000                                         
   Description                                                                  
     l       E           TYP  RCUT    TYP  RCUT                                 
     0     -6.4927494     23  1.100                                             
     0      6.8029130     23  1.100                                             
     1     -4.0817478     23  1.100                                             
  local pseudopotential read in
  atomic valenz-charges read in
  non local Contribution for L=           0  read in
    real space projection operators read in
  non local Contribution for L=           0  read in
    real space projection operators read in
  non local Contribution for L=           1  read in
    real space projection operators read in
    PAW grid and wavefunctions read in
 
   number of l-projection  operators is LMAX  =           3
   number of lm-projection operators is LMMAX =           5
 
 Optimization of the real space projectors (new method)

 maximal supplied QI-value         = 14.36
 optimisation between [QCUT,QGAM] = [ 11.92, 23.98] = [ 39.79,161.09] Ry 
 Optimized for a Real-space Cutoff    1.49 Angstroem

   l    n(q)    QCUT    max X(q) W(low)/X(q) W(high)/X(q)  e(spline) 
   2     10    11.920    66.195    0.79E-04    0.18E-03    0.24E-06
   2     10    11.920    64.643    0.81E-04    0.19E-03    0.24E-06
   0     11    11.920    95.520    0.28E-04    0.54E-04    0.18E-06
   0     11    11.920    63.403    0.27E-04    0.52E-04    0.17E-06
   1     10    11.920    19.961    0.18E-04    0.11E-03    0.23E-06
   1     10    11.920    13.289    0.25E-04    0.87E-04    0.19E-06
 Optimization of the real space projectors (new method)

 maximal supplied QI-value         = 16.25
 optimisation between [QCUT,QGAM] = [ 11.86, 23.89] = [ 39.41,159.82] Ry 
 Optimized for a Real-space Cutoff    1.33 Angstroem

   l    n(q)    QCUT    max X(q) W(low)/X(q) W(high)/X(q)  e(spline) 
   2      9    11.864    65.824    0.22E-03    0.53E-03    0.26E-06
   2      9    11.864    61.429    0.22E-03    0.53E-03    0.26E-06
   0      9    11.864    56.174    0.21E-03    0.32E-04    0.15E-06
   0      9    11.864    31.263    0.19E-03    0.30E-04    0.14E-06
   1      9    11.864    19.828    0.63E-04    0.30E-03    0.16E-06
   1      9    11.864    15.139    0.49E-04    0.25E-03    0.13E-06
 Optimization of the real space projectors (new method)

 maximal supplied QI-value         = 16.25
 optimisation between [QCUT,QGAM] = [ 11.86, 23.89] = [ 39.41,159.82] Ry 
 Optimized for a Real-space Cutoff    1.33 Angstroem

   l    n(q)    QCUT    max X(q) W(low)/X(q) W(high)/X(q)  e(spline) 
   2      9    11.864    60.317    0.21E-03    0.51E-03    0.25E-06
   2      9    11.864    55.921    0.21E-03    0.51E-03    0.26E-06
   0      9    11.864    51.690    0.22E-03    0.30E-04    0.17E-06
   0      9    11.864    30.015    0.20E-03    0.28E-04    0.15E-06
   1      9    11.864    18.849    0.76E-04    0.33E-03    0.17E-06
   1      9    11.864    14.624    0.60E-04    0.28E-03    0.15E-06
 Optimization of the real space projectors (new method)

 maximal supplied QI-value         = 34.20
 optimisation between [QCUT,QGAM] = [ 11.97, 23.94] = [ 40.13,160.53] Ry 
 Optimized for a Real-space Cutoff    1.18 Angstroem

   l    n(q)    QCUT    max X(q) W(low)/X(q) W(high)/X(q)  e(spline) 
   0      8    11.971    19.460    0.15E-03    0.31E-03    0.25E-06
   0      8    11.971    12.209    0.13E-03    0.29E-03    0.25E-06
   1      8    11.971     4.655    0.22E-03    0.24E-03    0.21E-06
  PAW_PBE Pt 04Feb2005                  :
 energy of atom  1       EATOM= -729.1176
 kinetic energy error for atom=    0.0021 (will be added to EATOM!!)
  PAW_PBE Co 02Aug2007                  :
 energy of atom  2       EATOM= -813.3670
 kinetic energy error for atom=    0.0026 (will be added to EATOM!!)
  PAW_PBE Ni 02Aug2007                  :
 energy of atom  3       EATOM=-1077.6739
 kinetic energy error for atom=    0.0027 (will be added to EATOM!!)
  PAW_PBE H 15Jun2001                   :
 energy of atom  4       EATOM=  -12.4884
 kinetic energy error for atom=    0.0008 (will be added to EATOM!!)
 
 
 POSCAR: 11.26                                   
  positions in direct lattice
  velocities in cartesian coordinates
 exchange correlation table for  LEXCH =        8
   RHO(1)=    0.500       N(1)  =     2000
   RHO(2)=  100.500       N(2)  =     4000
 


--------------------------------------------------------------------------------------------------------


 ion  position               nearest neighbor table
   1  0.789  0.879  0.301-  49 2.47  59 2.56  60 2.64  28 2.69   4 2.73   2 2.74  29 2.75  19 2.80
                            11 2.85  12 2.85  61 2.89  33 2.94
   2  0.033  0.879  0.293-  79 2.49  77 2.57  60 2.72   1 2.74  28 2.76   4 2.81   6 2.89  30 2.90
                            16 2.94  33 2.99  22 3.17  52 3.23
   3  0.276  0.362  0.311-  64 2.54  68 2.62  31 2.63  39 2.67  33 2.70   5 2.71  30 2.76  13 2.76
                            25 2.78  19 2.81  43 2.82  18 2.87
   4  0.875  0.964  0.400-  81 1.67  60 2.71   9 2.72  17 2.72   1 2.73   6 2.79  16 2.79  12 2.81
                             2 2.81  11 2.83
   5  0.113  0.467  0.410-  39 2.60  33 2.70   3 2.71  12 2.72  16 2.73  10 2.76   7 2.77  25 2.85
                            13 2.98
   6  0.125  0.959  0.400-  52 2.62  22 2.70   4 2.79   8 2.83  16 2.86   9 2.88   2 2.89  10 2.90
                            14 2.91
   7  0.873  0.455  0.412-  75 2.54  39 2.58   5 2.77  10 2.79  27 2.80   9 2.80  29 2.82  15 2.84
                            12 2.93
   8  0.377  0.956  0.415-  43 2.53  52 2.56  61 2.68  13 2.75  27 2.80  11 2.81   6 2.83  10 2.84
                            14 2.90
   9  0.864  0.211  0.396-  75 2.60  22 2.67   4 2.72  17 2.73  15 2.74  60 2.77   7 2.80   6 2.88
                            10 3.01
  10  0.129  0.214  0.413-  22 2.64  43 2.69  13 2.72   5 2.76  39 2.77   7 2.79   8 2.84   6 2.90
                             9 3.01
  11  0.629  0.952  0.410-  61 2.65  12 2.71  19 2.73  27 2.76  17 2.79  13 2.81   8 2.81   4 2.83
                             1 2.85
  12  0.875  0.714  0.408-  81 1.51  29 2.66  16 2.68  11 2.71   5 2.72   4 2.81  33 2.81  27 2.83
                             1 2.85   7 2.93
  13  0.378  0.200  0.413-  43 2.70  10 2.72  19 2.73   8 2.75   3 2.76  25 2.78  17 2.80  11 2.81
                             5 2.98
  14  0.381  0.696  0.403-  52 2.55  44 2.56  15 2.69  25 2.81  27 2.84  30 2.88  16 2.90   8 2.90
                             6 2.91
  15  0.620  0.456  0.399-  75 2.53  44 2.61  14 2.69   9 2.74  25 2.79  17 2.83   7 2.84  18 2.85
                            27 2.87
  16  0.116  0.709  0.404-  12 2.68  30 2.69   5 2.73  33 2.76   4 2.79   6 2.86  14 2.90  25 2.92
                             2 2.94
  17  0.627  0.201  0.404-  18 2.69   4 2.72   9 2.73  19 2.79  11 2.79  25 2.79  13 2.80  60 2.82
                            15 2.83
  18  0.538  0.348  0.301-  67 2.46  26 2.59  68 2.67  17 2.69  60 2.69  19 2.70  25 2.82  15 2.85
                             3 2.87  30 2.95  75 3.20
  19  0.527  0.113  0.308-  59 2.47  80 2.51  68 2.57  43 2.61  61 2.63  18 2.70  13 2.73  11 2.73
                            17 2.79   1 2.80   3 2.81  60 2.92
  20  0.546  0.126  0.067-  48 2.50  57 2.52  47 2.52  62 2.53  37 2.60  56 2.66  34 2.70  63 2.89

  21  0.118  0.408  0.119-  47 2.44  40 2.48  36 2.49  69 2.60  57 2.64  42 2.67  64 2.70  70 2.72
                            31 2.74  50 3.30
  22  0.055  0.148  0.310-  77 2.43  65 2.51  55 2.51  43 2.57  39 2.62  10 2.64   9 2.67   6 2.70
                            75 2.90  31 3.04  52 3.05   2 3.17  60 3.23
  23  0.009  0.102  0.049-  40 2.49  62 2.55  70 2.57  41 2.59  45 2.66  76 2.69  24 2.70  35 2.74
                            53 3.07
  24  0.138  0.927  0.142-  79 2.46  35 2.50  77 2.54  58 2.54  53 2.56  55 2.59  38 2.59  73 2.64
                            70 2.65  23 2.70  66 2.83
  25  0.376  0.448  0.407-  30 2.76  13 2.78   3 2.78  15 2.79  17 2.79  14 2.81  18 2.82   5 2.85
                            16 2.92
  26  0.480  0.554  0.230-  74 2.50  73 2.52  44 2.52  51 2.59  18 2.59  79 2.60  78 2.62  30 2.63
                            32 2.66  67 2.70
  27  0.627  0.707  0.413-  44 2.49  61 2.70  11 2.76   7 2.80   8 2.80  29 2.80  12 2.83  14 2.84
                            15 2.87
  28  0.953  0.759  0.204-  58 2.53  50 2.61  66 2.61  42 2.62  36 2.63  33 2.66   1 2.69   2 2.76
                            64 2.80  49 2.88  34 3.22  59 3.23  35 3.30
  29  0.797  0.631  0.311-  39 2.59  32 2.61  49 2.62  75 2.62  42 2.63  33 2.64  44 2.65  12 2.66
                             1 2.75  27 2.80   7 2.82  61 2.84
  30  0.274  0.608  0.304-  79 2.43  33 2.60  26 2.63  64 2.65  16 2.69  25 2.76   3 2.76  14 2.88
                             2 2.90  18 2.95  52 3.26
  31  0.187  0.262  0.225-  70 2.52  57 2.57  65 2.58  55 2.59  39 2.62   3 2.63  43 2.63  42 2.72
                            80 2.73  21 2.74  68 2.76  64 2.79  22 3.04
  32  0.711  0.561  0.214-  69 2.53  51 2.56  54 2.61  29 2.61  49 2.62  26 2.66  65 2.66  50 2.66
                            42 2.68  75 2.69  78 2.71  67 2.73  44 2.73
  33  0.042  0.609  0.305-  42 2.47  64 2.50  39 2.51  30 2.60  29 2.64  28 2.66   5 2.70   3 2.70
                            16 2.76  12 2.81   1 2.94   2 2.99
  34  0.782  0.884  0.080-  48 2.38  35 2.38  50 2.53  66 2.54  36 2.55  62 2.67  20 2.70  28 3.22

  35  0.002  0.866  0.072-  36 2.37  34 2.38  66 2.43  24 2.50  58 2.60  23 2.74  62 2.75  28 3.30

  36  0.006  0.657  0.094-  50 2.33  35 2.37  58 2.38  21 2.49  34 2.55  28 2.63
  37  0.628  0.234  0.150-  41 2.41  56 2.42  59 2.43  67 2.44  62 2.45  68 2.50  51 2.50  74 2.51
                            20 2.60  66 2.60
  38  0.361  0.942  0.135-  53 2.40  45 2.41  63 2.42  57 2.43  48 2.45  55 2.45  54 2.46  78 2.48
                            80 2.54  73 2.59  24 2.59  70 2.83
  39  0.024  0.396  0.316-  42 2.46  33 2.51   7 2.58  75 2.58  65 2.58  29 2.59   5 2.60  31 2.62
                            22 2.62   3 2.67  10 2.77
  40  0.013  0.321  0.044-  69 2.32  76 2.45  21 2.48  23 2.49  70 2.51  45 2.63  71 2.93
  41  0.844  0.228  0.139-  67 2.35  76 2.37  77 2.38  37 2.41  62 2.44  51 2.48  69 2.48  66 2.49
                            65 2.58  23 2.59  70 2.61
  42  0.967  0.520  0.219-  39 2.46  33 2.47  50 2.48  64 2.48  65 2.50  28 2.62  29 2.63  69 2.65
                            21 2.67  32 2.68  31 2.72
  43  0.303  0.099  0.319-  52 2.45  80 2.46  55 2.51   8 2.53  61 2.56  22 2.57  19 2.61  31 2.63
                            10 2.69  13 2.70   3 2.82
  44  0.553  0.648  0.317-  61 2.45  78 2.47  27 2.49  26 2.52  14 2.56  52 2.57  15 2.61  29 2.65
                            75 2.73  32 2.73
  45  0.251  0.091  0.049-  38 2.41  57 2.45  53 2.48  70 2.50  63 2.54  40 2.63  23 2.66
  46  0.529  0.612  0.047-  54 2.37  73 2.44  51 2.45  71 2.47  72 2.53  53 2.63  56 2.72  76 2.87
                            63 3.07
  47  0.334  0.361  0.072-  74 2.29  56 2.44  21 2.44  57 2.50  72 2.50  20 2.52
  48  0.581  0.937  0.137-  49 2.29  63 2.35  34 2.38  54 2.38  80 2.38  38 2.45  59 2.46  20 2.50
                            57 2.63  50 2.74
  49  0.677  0.809  0.223-  48 2.29  50 2.34  61 2.46  78 2.47   1 2.47  59 2.54  80 2.57  29 2.62
                            32 2.62  54 2.79  28 2.88
  50  0.810  0.679  0.140-  36 2.33  49 2.34  54 2.38  71 2.39  42 2.48  69 2.52  34 2.53  28 2.61
                            32 2.66  48 2.74  21 3.30
  51  0.629  0.454  0.133-  56 2.40  76 2.44  46 2.45  41 2.48  37 2.50  67 2.53  32 2.56  26 2.59
                            74 2.59  69 2.66  73 2.78  54 2.83
  52  0.320  0.872  0.317-  55 2.38  79 2.41  61 2.43  43 2.45  78 2.46  14 2.55   8 2.56  44 2.57
                             6 2.62  22 3.05   2 3.23  30 3.26
  53  0.299  0.850  0.050-  73 2.39  38 2.40  45 2.48  24 2.56  63 2.58  46 2.63  72 2.82  23 3.07

  54  0.581  0.726  0.124-  46 2.37  50 2.38  48 2.38  73 2.40  71 2.42  63 2.42  38 2.46  78 2.50
                            32 2.61  49 2.79  51 2.83
  55  0.229  0.013  0.230-  52 2.38  80 2.44  79 2.44  38 2.45  43 2.51  22 2.51  78 2.56  24 2.59
                            31 2.59  77 2.61  70 2.62
  56  0.549  0.361  0.055-  51 2.40  37 2.42  47 2.44  74 2.52  76 2.56  62 2.60  72 2.61  20 2.66
                            46 2.72
  57  0.344  0.167  0.132-  38 2.43  45 2.45  80 2.47  47 2.50  20 2.52  68 2.55  31 2.57  48 2.63
                            21 2.64  70 2.71
  58  0.176  0.684  0.148-  36 2.38  72 2.39  64 2.41  73 2.43  28 2.53  79 2.53  24 2.54  74 2.56
                            35 2.60
  59  0.661  0.042  0.213-  66 2.38  37 2.43  48 2.46  19 2.47  49 2.54  68 2.55   1 2.56  80 2.59
                            60 2.68  28 3.23
  60  0.785  0.116  0.297-  67 2.47  77 2.53   1 2.64  59 2.68  18 2.69   4 2.71   2 2.72   9 2.77
                            17 2.82  19 2.92  22 3.23
  61  0.536  0.875  0.316-  52 2.43  44 2.45  49 2.46  78 2.48  80 2.51  43 2.56  19 2.63  11 2.65
                             8 2.68  27 2.70  29 2.84   1 2.89
  62  0.773  0.123  0.060-  66 2.43  41 2.44  37 2.45  20 2.53  23 2.55  56 2.60  76 2.63  34 2.67
                            35 2.75
  63  0.500  0.898  0.045-  48 2.35  54 2.42  38 2.42  45 2.54  53 2.58  20 2.89  46 3.07
  64  0.196  0.505  0.214-  58 2.41  42 2.48  33 2.50  74 2.52   3 2.54  30 2.65  68 2.66  21 2.70
                            31 2.79  28 2.80
  65  0.935  0.315  0.226-  75 2.39  69 2.40  67 2.41  77 2.43  42 2.50  22 2.51  70 2.53  41 2.58
                            31 2.58  39 2.58  32 2.66
  66  0.858  0.002  0.156-  77 2.38  59 2.38  62 2.43  35 2.43  41 2.49  34 2.54  37 2.60  28 2.61
                            24 2.83
  67  0.721  0.315  0.230-  41 2.35  75 2.39  65 2.41  37 2.44  18 2.46  60 2.47  51 2.53  26 2.70
                            77 2.70  32 2.73
  68  0.430  0.266  0.214-  74 2.43  37 2.50  57 2.55  59 2.55  19 2.57   3 2.62  80 2.64  64 2.66
                            18 2.67  31 2.76
  69  0.877  0.430  0.129-  40 2.32  71 2.34  65 2.40  41 2.48  76 2.49  50 2.52  32 2.53  21 2.60
                            42 2.65  70 2.65  51 2.66
  70  0.096  0.181  0.140-  45 2.50  40 2.51  31 2.52  65 2.53  23 2.57  41 2.61  55 2.62  24 2.65
                            69 2.65  57 2.71  21 2.72  77 2.83  38 2.83
  71  0.760  0.589  0.052-  69 2.34  50 2.39  54 2.42  46 2.47  76 2.56  40 2.93
  72  0.315  0.592  0.059-  58 2.39  74 2.39  73 2.42  47 2.50  46 2.53  56 2.61  53 2.82
  73  0.382  0.701  0.136-  53 2.39  54 2.40  72 2.42  58 2.43  46 2.44  79 2.49  26 2.52  38 2.59
                            78 2.60  24 2.64  74 2.69  51 2.78
  74  0.400  0.454  0.149-  47 2.29  72 2.39  68 2.43  26 2.50  37 2.51  56 2.52  64 2.52  58 2.56
                            51 2.59  73 2.69
  75  0.792  0.401  0.314-  67 2.39  65 2.39  15 2.53   7 2.54  39 2.58   9 2.60  29 2.62  32 2.69
                            44 2.73  22 2.90  18 3.20
  76  0.781  0.351  0.046-  41 2.37  51 2.44  40 2.45  69 2.49  71 2.56  56 2.56  62 2.63  23 2.69
                            46 2.87
  77  0.970  0.084  0.222-  41 2.38  66 2.38  65 2.43  22 2.43  60 2.53  24 2.54   2 2.57  55 2.61
                            67 2.70  70 2.83
  78  0.465  0.795  0.225-  52 2.46  49 2.47  44 2.47  61 2.48  79 2.48  38 2.48  80 2.48  54 2.50
                            55 2.56  73 2.60  26 2.62  32 2.71
  79  0.249  0.786  0.233-  52 2.41  30 2.43  55 2.44  24 2.46  78 2.48  73 2.49   2 2.49  58 2.53
                            26 2.60
  80  0.439  0.028  0.225-  48 2.38  55 2.44  43 2.46  57 2.47  78 2.48  19 2.51  61 2.51  38 2.54
                            49 2.57  59 2.59  68 2.64  31 2.73
  81  0.875  0.836  0.438-  12 1.51   4 1.67
 
  LATTYP: Found a hexagonal cell.
 ALAT       =    11.2227001190
 C/A-ratio  =     1.9603125600
  
  Lattice vectors:
  
 A1 = (   5.6113500595,  -9.7191434021,   0.0000000000)
 A2 = ( -11.2227001190,   0.0000000000,   0.0000000000)
 A3 = (   0.0000000000,   0.0000000000, -22.0000000000)


Analysis of symmetry for initial positions (statically):
=====================================================================
 Subroutine PRICEL returns:
 Original cell was already a primitive cell.
 

 Routine SETGRP: Setting up the symmetry group for a 
 hexagonal supercell.


 Subroutine GETGRP returns: Found  1 space group operations
 (whereof  1 operations were pure point group operations)
 out of a pool of 24 trial point group operations.


The static configuration has the point symmetry C_1 .


Analysis of symmetry for dynamics (positions and initial velocities):
=====================================================================
 Subroutine PRICEL returns:
 Original cell was already a primitive cell.
 

 Routine SETGRP: Setting up the symmetry group for a 
 hexagonal supercell.


 Subroutine GETGRP returns: Found  1 space group operations
 (whereof  1 operations were pure point group operations)
 out of a pool of 24 trial point group operations.


The dynamic configuration has the point symmetry C_1 .


Analysis of constrained symmetry for selective dynamics:
=====================================================================
 Subroutine PRICEL returns:
 Original cell was already a primitive cell.
 

 Routine SETGRP: Setting up the symmetry group for a 
 hexagonal supercell.


 Subroutine GETGRP returns: Found  1 space group operations
 (whereof  1 operations were pure point group operations)
 out of a pool of 24 trial point group operations.


The constrained configuration has the point symmetry C_1 .


Analysis of structural, dynamic, and magnetic symmetry:
=====================================================================
 Subroutine PRICEL returns:
 Original cell was already a primitive cell.
 

 Routine SETGRP: Setting up the symmetry group for a 
 hexagonal supercell.


 Subroutine GETGRP returns: Found  1 space group operations
 (whereof  1 operations were pure point group operations)
 out of a pool of 24 trial point group operations.


The magnetic configuration has the point symmetry C_1 .


 Subroutine INISYM returns: Found  1 space group operations
 (whereof  1 operations are pure point group operations),
 and found     1 'primitive' translations

 
 
 KPOINTS: mesh auto                               

Automatic generation of k-mesh.
Space group operators:
 irot       det(A)        alpha          n_x          n_y          n_z        tau_x        tau_y        tau_z
    1     1.000000     0.000000     1.000000     0.000000     0.000000     0.000000     0.000000     0.000000
 
 Subroutine IBZKPT returns following result:
 ===========================================
 
 Found      4 irreducible k-points:
 
 Following reciprocal coordinates:
            Coordinates               Weight
  0.000000  0.000000  0.000000      1.000000
  0.500000  0.000000  0.000000      1.000000
  0.000000  0.500000  0.000000      1.000000
  0.500000  0.500000  0.000000      1.000000
 
 Following cartesian coordinates:
            Coordinates               Weight
  0.000000  0.000000  0.000000      1.000000
  0.044553 -0.025722  0.000000      1.000000
  0.000000  0.051445  0.000000      1.000000
  0.044553  0.025722  0.000000      1.000000
 


--------------------------------------------------------------------------------------------------------




 Dimension of arrays:
   k-points           NKPTS =      4   k-points in BZ     NKDIM =      4   number of bands    NBANDS=    576
   number of dos      NEDOS =    301   number of ions     NIONS =     81
   non local maximal  LDIM  =      6   non local SUM 2l+1 LMDIM =     18
   total plane-waves  NPLWV = ******
   max r-space proj   IRMAX =   7929   max aug-charges    IRDMAX=  34542
   dimension x,y,z NGX =    90 NGY =   90 NGZ =  168
   dimension x,y,z NGXF=   180 NGYF=  180 NGZF=  336
   support grid    NGXF=   180 NGYF=  180 NGZF=  336
   ions per type =              32  23  25   1
   NGX,Y,Z   is equivalent  to a cutoff of  13.33, 13.33, 12.70 a.u.
   NGXF,Y,Z  is equivalent  to a cutoff of  26.66, 26.66, 25.39 a.u.

 SYSTEM =  Pt111                                   
 POSCAR =  11.26                                   

 Startparameter for this run:
   NWRITE =      2    write-flag & timer
   PREC   = accura    normal or accurate (medium, high low for compatibility)
   ISTART =      0    job   : 0-new  1-cont  2-samecut
   ICHARG =      2    charge: 1-file 2-atom 10-const
   ISPIN  =      2    spin polarized calculation?
   LNONCOLLINEAR =      F non collinear calculations
   LSORBIT =      F    spin-orbit coupling
   INIWAV =      1    electr: 0-lowe 1-rand  2-diag
   LASPH  =      F    aspherical Exc in radial PAW
   METAGGA=      F    non-selfconsistent MetaGGA calc.

 Electronic Relaxation 1
   ENCUT  =  550.0 eV  40.42 Ry    6.36 a.u.  21.46 21.46 42.07*2*pi/ulx,y,z
   ENINI  =  550.0     initial cutoff
   ENAUG  =  544.6 eV  augmentation charge cutoff
   NELM   =    200;   NELMIN=  2; NELMDL= -5     # of ELM steps 
   EDIFF  = 0.1E-04   stopping-criterion for ELM
   LREAL  =      T    real-space projection
   NLSPLINE    = F    spline interpolate recip. space projectors
   LCOMPAT=      F    compatible to vasp.4.4
   GGA_COMPAT  = T    GGA compatible to vasp.4.4-vasp.4.6
   LMAXPAW     = -100 max onsite density
   LMAXMIX     =    2 max onsite mixed and CHGCAR
   VOSKOWN=      0    Vosko Wilk Nusair interpolation
   ROPT   =   -0.00025  -0.00025  -0.00025  -0.00025
 Ionic relaxation
   EDIFFG = -.5E-01   stopping-criterion for IOM
   NSW    =    300    number of steps for IOM
   NBLOCK =      1;   KBLOCK =    300    inner block; outer block 
   IBRION =      2    ionic relax: 0-MD 1-quasi-New 2-CG
   NFREE  =      1    steps in history (QN), initial steepest desc. (CG)
   ISIF   =      2    stress and relaxation
   IWAVPR =     11    prediction:  0-non 1-charg 2-wave 3-comb
   ISYM   =      2    0-nonsym 1-usesym 2-fastsym
   LCORR  =      T    Harris-Foulkes like correction to forces

   POTIM  = 0.5000    time-step for ionic-motion
   TEIN   =    0.0    initial temperature
   TEBEG  =    0.0;   TEEND  =   0.0 temperature during run
   SMASS  =  -3.00    Nose mass-parameter (am)
   estimated Nose-frequenzy (Omega)   =  0.10E-29 period in steps =****** mass=  -0.288E-26a.u.
   SCALEE = 1.0000    scale energy and forces
   NPACO  =    256;   APACO  = 16.0  distance and # of slots for P.C.
   PSTRESS=    0.0 pullay stress

  Mass of Ions in am
   POMASS = 195.08 58.93 58.69  1.00
  Ionic Valenz
   ZVAL   =  10.00  9.00 10.00  1.00
  Atomic Wigner-Seitz radii
   RWIGS  =  -1.00 -1.00 -1.00 -1.00
  virtual crystal weights 
   VCA    =   1.00  1.00  1.00  1.00
   NELECT =     778.0000    total number of electrons
   NUPDOWN=      -1.0000    fix difference up-down

 DOS related values:
   EMIN   =  10.00;   EMAX   =-10.00  energy-range for DOS
   EFERMI =   0.00
   ISMEAR =     1;   SIGMA  =   0.10  broadening in eV -4-tet -1-fermi 0-gaus

 Electronic relaxation 2 (details)
   IALGO  =     68    algorithm
   LDIAG  =      T    sub-space diagonalisation (order eigenvalues)
   LSUBROT=      F    optimize rotation matrix (better conditioning)
   TURBO    =      0    0=normal 1=particle mesh
   IRESTART =      0    0=no restart 2=restart with 2 vectors
   NREBOOT  =      0    no. of reboots
   NMIN     =      0    reboot dimension
   EREF     =   0.00    reference energy to select bands
   IMIX   =      4    mixing-type and parameters
     AMIX     =   0.40;   BMIX     =  1.00
     AMIX_MAG =   1.60;   BMIX_MAG =  1.00
     AMIN     =   0.10
     WC   =   100.;   INIMIX=   1;  MIXPRE=   1;  MAXMIX= -45

 Intra band minimization:
   WEIMIN = 0.0010     energy-eigenvalue tresh-hold
   EBREAK =  0.43E-08  absolut break condition
   DEPER  =   0.30     relativ break condition  

   TIME   =   0.40     timestep for ELM

  volume/ion in A,a.u.               =      29.63       199.92
  Fermi-wavevector in a.u.,A,eV,Ry     =   1.124653  2.125287 17.209264  1.264845
  Thomas-Fermi vector in A             =   2.261326
 
 Write flags
   LWAVE        =      F    write WAVECAR
   LDOWNSAMPLE  =      F    k-point downsampling of WAVECAR
   LCHARG       =      F    write CHGCAR
   LVTOT        =      F    write LOCPOT, total local potential
   LVHAR        =      F    write LOCPOT, Hartree potential only
   LELF         =      F    write electronic localiz. function (ELF)
   LORBIT       =      0    0 simple, 1 ext, 2 COOP (PROOUT), +10 PAW based schemes


 Dipole corrections
   LMONO  =      F    monopole corrections only (constant potential shift)
   LDIPOL =      F    correct potential (dipole corrections)
   IDIPOL =      0    1-x, 2-y, 3-z, 4-all directions 
   EPSILON=  1.0000000 bulk dielectric constant

 Exchange correlation treatment:
   GGA     =    --    GGA type
   LEXCH   =     8    internal setting for exchange type
   VOSKOWN=      0    Vosko Wilk Nusair interpolation
   LHFCALC =     F    Hartree Fock is set to
   LHFONE  =     F    Hartree Fock one center treatment
   AEXX    =    0.0000 exact exchange contribution

 Linear response parameters
   LEPSILON=     F    determine dielectric tensor
   LRPA    =     F    only Hartree local field effects (RPA)
   LNABLA  =     F    use nabla operator in PAW spheres
   LVEL    =     F    velocity operator in full k-point grid
   LINTERFAST=   F  fast interpolation
   KINTER  =     0    interpolate to denser k-point grid
   CSHIFT  =0.1000    complex shift for real part using Kramers Kronig
   OMEGAMAX=  -1.0    maximum frequency
   DEG_THRESHOLD= 0.2000000E-02 threshold for treating states as degnerate
   RTIME   =   -0.100 relaxation time in fs
  (WPLASMAI=    0.000 imaginary part of plasma frequency in eV, 0.658/RTIME)
   DFIELD  = 0.0000000 0.0000000 0.0000000 field for delta impulse in time
 
 Orbital magnetization related:
   ORBITALMAG=     F  switch on orbital magnetization
   LCHIMAG   =     F  perturbation theory with respect to B field
   DQ        =  0.001000  dq finite difference perturbation B field
   LLRAUG    =     F  two centre corrections for induced B field



--------------------------------------------------------------------------------------------------------


 conjugate gradient relaxation of ions
   using selective dynamics as specified on POSCAR
 charge density and potential will be updated during run
 spin polarized calculation
 RMM-DIIS sequential band-by-band and
  variant of blocked Davidson during initial phase
 perform sub-space diagonalisation
    before iterative eigenvector-optimisation
 modified Broyden-mixing scheme, WC =      100.0
 initial mixing is a Kerker type mixing with AMIX =  0.4000 and BMIX =      1.0000
 Hartree-type preconditioning will be used
 using additional bands          187
 real space projection scheme for non local part
 use partial core corrections
 calculate Harris-corrections to forces 
   (improved forces if not selfconsistent)
 use gradient corrections 
 use of overlap-Matrix (Vanderbilt PP)
 Methfessel and Paxton  Order N= 1 SIGMA  =   0.10


--------------------------------------------------------------------------------------------------------


  energy-cutoff  :      550.00
  volume of cell :     2399.65
      direct lattice vectors                 reciprocal lattice vectors
    11.222700119  0.000000000  0.000000000     0.089105116 -0.051444863  0.000000000
     5.611350060  9.719143402  0.000000000     0.000000000  0.102889726  0.000000000
     0.000000000  0.000000000 22.000000000     0.000000000  0.000000000  0.045454545

  length of vectors
    11.222700119 11.222700119 22.000000000     0.102889726  0.102889726  0.045454545


 
 k-points in units of 2pi/SCALE and weight: mesh auto                               
   0.00000000  0.00000000  0.00000000       0.250
   0.04455256 -0.02572243  0.00000000       0.250
   0.00000000  0.05144486  0.00000000       0.250
   0.04455256  0.02572243  0.00000000       0.250
 
 k-points in reciprocal lattice and weights: mesh auto                               
   0.00000000  0.00000000  0.00000000       0.250
   0.50000000  0.00000000  0.00000000       0.250
   0.00000000  0.50000000  0.00000000       0.250
   0.50000000  0.50000000  0.00000000       0.250
 
 position of ions in fractional coordinates (direct lattice) 
   0.78925998  0.87878802  0.30121222
   0.03270259  0.87918048  0.29281978
   0.27595481  0.36227641  0.31085980
   0.87452803  0.96417189  0.39986541
   0.11347695  0.46739997  0.41031125
   0.12514630  0.95929033  0.39950627
   0.87301284  0.45480225  0.41217167
   0.37701318  0.95585584  0.41523770
   0.86441231  0.21135176  0.39649291
   0.12938104  0.21430742  0.41300922
   0.62945289  0.95163036  0.40962071
   0.87531965  0.71431373  0.40848710
   0.37811308  0.20035718  0.41347329
   0.38084327  0.69648099  0.40256170
   0.62040281  0.45628506  0.39873021
   0.11607802  0.70916439  0.40358339
   0.62681720  0.20137626  0.40429930
   0.53828593  0.34754319  0.30086371
   0.52741195  0.11320966  0.30844004
   0.54569241  0.12647739  0.06683304
   0.11791659  0.40792499  0.11908862
   0.05457374  0.14826096  0.31034432
   0.00892895  0.10176852  0.04917651
   0.13783207  0.92691145  0.14197368
   0.37604756  0.44835740  0.40652188
   0.47979716  0.55399880  0.22971747
   0.62713798  0.70737237  0.41347945
   0.95252345  0.75898977  0.20420405
   0.79731901  0.63088403  0.31069021
   0.27421233  0.60849866  0.30376107
   0.18749030  0.26198206  0.22539890
   0.71089206  0.56100734  0.21410215
   0.04247202  0.60866576  0.30471865
   0.78196837  0.88367072  0.08012597
   0.00167860  0.86570870  0.07172203
   0.00649475  0.65686199  0.09367822
   0.62789021  0.23379040  0.14972974
   0.36050112  0.94235243  0.13470415
   0.02367156  0.39570538  0.31624423
   0.01296097  0.32139498  0.04442433
   0.84423970  0.22761319  0.13891977
   0.96744603  0.52048649  0.21885007
   0.30318925  0.09874004  0.31911861
   0.55336689  0.64796514  0.31680171
   0.25085454  0.09128101  0.04878728
   0.52913784  0.61162204  0.04697948
   0.33389242  0.36126594  0.07221963
   0.58147332  0.93651314  0.13694302
   0.67732667  0.80921239  0.22305304
   0.80979447  0.67906481  0.14024348
   0.62937817  0.45366950  0.13325724
   0.32036889  0.87194096  0.31726179
   0.29919813  0.84983568  0.05000644
   0.58103448  0.72612545  0.12392179
   0.22907234  0.01294552  0.22967573
   0.54871865  0.36069037  0.05545242
   0.34411655  0.16690962  0.13164412
   0.17554400  0.68420617  0.14761894
   0.66082635  0.04249037  0.21304482
   0.78516879  0.11592854  0.29690217
   0.53581451  0.87478900  0.31589053
   0.77284397  0.12278263  0.06048458
   0.50030742  0.89844953  0.04455515
   0.19571508  0.50522867  0.21438636
   0.93546177  0.31542046  0.22552712
   0.85824468  0.00195101  0.15611973
   0.72104290  0.31497628  0.22969726
   0.43002289  0.26577701  0.21377066
   0.87703755  0.42955743  0.12878365
   0.09634819  0.18069822  0.13969274
   0.75988870  0.58867799  0.05155611
   0.31527374  0.59151669  0.05925234
   0.38179216  0.70126590  0.13646584
   0.40042658  0.45377032  0.14884727
   0.79153862  0.40082537  0.31361618
   0.78089926  0.35148021  0.04598080
   0.96954404  0.08430315  0.22196820
   0.46486898  0.79463888  0.22533144
   0.24890496  0.78598962  0.23267623
   0.43862206  0.02771317  0.22450195
   0.87530680  0.83551968  0.43844976
 
 position of ions in cartesian coordinates  (Angst):
  13.78881523  8.54106679  6.62666878
   5.30040079  8.54488114  6.44203507
   5.12981781  3.52101637  6.83891552
  15.22487182  9.37092486  8.79703905
   3.89626264  4.54272733  9.02684743
   6.78739321  9.32348026  8.78913801
  12.34961596  4.42028825  9.06777677
   9.59474762  9.29009995  9.13522950
  10.88700891  2.05415809  8.72284412
   2.65455856  2.08288452  9.08620280
  12.40409210  9.24903192  9.01165573
  13.83171432  6.94251760  8.98671616
   5.36772404  1.94730018  9.09641244
   8.18228845  6.76919863  8.85635749
   9.52296988  4.43469994  8.77206466
   5.28207851  6.89247041  8.87883451
   8.16457415  1.95720479  8.89458451
   7.99120805  3.37782207  6.61900172
   6.55424518  1.10030096  6.78568086
   6.83385120  1.22925189  1.47032698
   3.61235247  3.96468152  2.61994962
   1.44440888  1.44096951  6.82757507
   0.67126575  0.98910281  1.08188317
   6.74807265  9.00878530  3.12342105
   6.73615930  4.35764984  8.94348133
   8.49330084  5.38439383  5.05378437
  11.00749549  6.87505349  9.09654801
  14.94884239  7.37673046  4.49248916
  12.48818327  6.13165233  6.83518465
   6.49190180  5.91408578  6.68274363
   3.57422044  2.54624125  4.95877580
  11.12613698  5.45251083  4.71024739
   3.89208734  5.91570976  6.70381020
  13.73438227  8.58852246  1.76277137
   4.87663302  8.41394697  1.57788465
   3.75877116  6.38413590  2.06092090
   8.35850333  2.27224245  3.29405432
   9.33366537  9.15885838  2.96349132
   2.48610016  3.84591731  6.95737300
   1.94891684  3.12368389  0.97733531
  10.75186628  2.21220519  3.05623495
  13.77798860  5.05868282  4.81470165
   3.95666700  0.95966865  7.02060946
   9.84622993  6.29766610  6.96963760
   3.32747495  0.88717326  1.07332023
   9.37038068  5.94444230  1.03354859
   5.77436416  3.51119550  1.58883193
  11.78080373  9.10210551  3.01274644
  12.14220806  7.86485128  4.90716692
  12.89855082  6.59992829  3.08535659
   9.60902083  4.40927897  2.93165935
   8.48817002  8.47451927  6.97975946
   8.12653637  8.25967484  1.10014163
  10.59531978  7.05731733  2.72627938
   2.64345207  0.12581940  5.05286608
   8.18206475  3.50560142  1.21995326
   4.79850516  1.62221856  2.89617069
   5.80939796  6.64989784  3.24761674
   7.65468432  0.41297001  4.68698615
   9.46222948  1.12672610  6.53184779
  10.92203289  8.50219970  6.94959171
   9.36237240  1.19334199  1.33066085
  10.65631497  8.73215981  0.98021322
   5.03146660  4.91038993  4.71649990
  12.26834149  3.06561666  4.96159659
   9.64277050  0.01896212  3.43463404
   9.85949038  3.06129963  5.05333976
   6.31738572  2.58312482  4.70295446
  12.25312658  4.17493029  2.83324027
   2.09524784  1.75623189  3.07324021
  11.83128130  5.72144585  1.13423452
   6.85742987  5.74903551  1.30355140
   8.21978744  6.81570388  3.00224843
   7.04013147  4.41025877  3.27463986
  11.13237201  3.89567921  6.89955600
  10.73607676  3.41608656  1.01157751
  11.35395654  0.81935443  4.88330047
   9.67608211  7.72320924  4.95729164
   7.20384860  7.63914586  5.11887697
   5.07803210  0.26934830  4.93904295
  14.51169912  8.12053558  9.64589479
 


--------------------------------------------------------------------------------------------------------


 k-point  1 :   0.0000 0.0000 0.0000  plane waves:   70321
 k-point  2 :   0.5000 0.0000 0.0000  plane waves:   70264
 k-point  3 :   0.0000 0.5000 0.0000  plane waves:   70264
 k-point  4 :   0.5000 0.5000 0.0000  plane waves:   70264

 maximum and minimum number of plane-waves per node :     17611    17530

 maximum number of plane-waves:     70321
 maximum index in each direction: 
   IXMAX=   21   IYMAX=   21   IZMAX=   42
   IXMIN=  -21   IYMIN=  -21   IZMIN=  -42


 real space projection operators:
  total allocation   :      70752.11 KBytes
  max/ min on nodes  :      18089.96      17295.66


 parallel 3D FFT for wavefunctions:
    minimum data exchange during FFTs selected (reduces bandwidth)
 parallel 3D FFT for charge:
    minimum data exchange during FFTs selected (reduces bandwidth)


 total amount of memory used by VASP MPI-rank0   243556. kBytes
=======================================================================

   base      :      30000. kBytes
   nonlr-proj:      33157. kBytes
   fftplans  :      18297. kBytes
   grid      :      51226. kBytes
   one-center:        653. kBytes
   wavefun   :     110223. kBytes
 
     INWAV:  cpu time    0.0001: real time    0.0005
 Broyden mixing: mesh for mixing (old mesh)
   NGX = 43   NGY = 43   NGZ = 85
  (NGX  =180   NGY  =180   NGZ  =336)
  gives a total of 157165 points

 initial charge density was supplied:
 charge density of overlapping atoms calculated
 number of electron     778.0000000 magnetization     206.0000000
 keeping initial charge density in first step


--------------------------------------------------------------------------------------------------------


 Maximum index for non-local projection operator         2137
 Maximum index for augmentation-charges         1121 (set IRDMAX)


--------------------------------------------------------------------------------------------------------


 First call to EWALD:  gamma=   0.132
 Maximum number of real-space cells 4x 4x 2
 Maximum number of reciprocal cells 2x 2x 4

    FEWALD:  cpu time    0.0045: real time    0.0045


--------------------------------------- Iteration      1(   1)  ---------------------------------------


    POTLOK:  cpu time    0.4303: real time    0.4325
    SETDIJ:  cpu time    0.0327: real time    0.0329
     EDDAV:  cpu time   63.8311: real time   64.0136
       DOS:  cpu time    0.0027: real time    0.0035
    --------------------------------------------
      LOOP:  cpu time   64.2969: real time   64.4824

 eigenvalue-minimisations  :  9216
 total energy-change (2. order) : 0.6871407E+04  (-0.3404492E+05)
 number of electron     778.0000000 magnetization     206.0000000
 augmentation part      778.0000000 magnetization     206.0000000

 Free energy of the ion-electron system (eV)
  ---------------------------------------------------
  alpha Z        PSCENC =      1751.32544349
  Ewald energy   TEWEN  =    237205.37776449
  -Hartree energ DENC   =   -307259.50844037
  -exchange      EXHF   =         0.00000000
  -V(xc)+E(xc)   XCENC  =      1334.82876300
  PAW double counting   =     62871.68470781   -64853.88848185
  entropy T*S    EENTRO =         0.00006337
  eigenvalues    EBANDS =      6828.24129403
  atomic energy  EATOM  =     68993.34587830
  Solvation  Ediel_sol  =         0.00000000
  ---------------------------------------------------
  free energy    TOTEN  =      6871.40699228 eV

  energy without entropy =     6871.40692890  energy(sigma->0) =     6871.40697115


--------------------------------------------------------------------------------------------------------




--------------------------------------- Iteration      1(   2)  ---------------------------------------


     EDDAV:  cpu time   63.8104: real time   64.0219
       DOS:  cpu time    0.0025: real time    0.0249
    --------------------------------------------
      LOOP:  cpu time   63.8129: real time   64.0467

 eigenvalue-minimisations  :  9216
 total energy-change (2. order) :-0.6438288E+04  (-0.5814265E+04)
 number of electron     778.0000000 magnetization     206.0000000
 augmentation part      778.0000000 magnetization     206.0000000

 Free energy of the ion-electron system (eV)
  ---------------------------------------------------
  alpha Z        PSCENC =      1751.32544349
  Ewald energy   TEWEN  =    237205.37776449
  -Hartree energ DENC   =   -307259.50844037
  -exchange      EXHF   =         0.00000000
  -V(xc)+E(xc)   XCENC  =      1334.82876300
  PAW double counting   =     62871.68470781   -64853.88848185
  entropy T*S    EENTRO =        -0.00479456
  eigenvalues    EBANDS =       389.95813114
  atomic energy  EATOM  =     68993.34587830
  Solvation  Ediel_sol  =         0.00000000
  ---------------------------------------------------
  free energy    TOTEN  =       433.11897145 eV

  energy without entropy =      433.12376601  energy(sigma->0) =      433.12056963


--------------------------------------------------------------------------------------------------------




--------------------------------------- Iteration      1(   3)  ---------------------------------------


     EDDAV:  cpu time   66.4684: real time   66.6571
       DOS:  cpu time    0.0029: real time    0.0045
    --------------------------------------------
      LOOP:  cpu time   66.4712: real time   66.6616

 eigenvalue-minimisations  :  9756
 total energy-change (2. order) :-0.8800874E+03  (-0.7319962E+03)
 number of electron     778.0000000 magnetization     206.0000000
 augmentation part      778.0000000 magnetization     206.0000000

 Free energy of the ion-electron system (eV)
  ---------------------------------------------------
  alpha Z        PSCENC =      1751.32544349
  Ewald energy   TEWEN  =    237205.37776449
  -Hartree energ DENC   =   -307259.50844037
  -exchange      EXHF   =         0.00000000
  -V(xc)+E(xc)   XCENC  =      1334.82876300
  PAW double counting   =     62871.68470781   -64853.88848185
  entropy T*S    EENTRO =        -0.00655229
  eigenvalues    EBANDS =      -490.12748836
  atomic energy  EATOM  =     68993.34587830
  Solvation  Ediel_sol  =         0.00000000
  ---------------------------------------------------
  free energy    TOTEN  =      -446.96840578 eV

  energy without entropy =     -446.96185348  energy(sigma->0) =     -446.96622168


--------------------------------------------------------------------------------------------------------




--------------------------------------- Iteration      1(   4)  ---------------------------------------


     EDDAV:  cpu time   69.2287: real time   69.4589
       DOS:  cpu time    0.0028: real time    0.0040
    --------------------------------------------
      LOOP:  cpu time   69.2315: real time   69.4629

 eigenvalue-minimisations  : 10272
 total energy-change (2. order) :-0.5690834E+02  (-0.5477105E+02)
 number of electron     778.0000000 magnetization     206.0000000
 augmentation part      778.0000000 magnetization     206.0000000

 Free energy of the ion-electron system (eV)
  ---------------------------------------------------
  alpha Z        PSCENC =      1751.32544349
  Ewald energy   TEWEN  =    237205.37776449
  -Hartree energ DENC   =   -307259.50844037
  -exchange      EXHF   =         0.00000000
  -V(xc)+E(xc)   XCENC  =      1334.82876300
  PAW double counting   =     62871.68470781   -64853.88848185
  entropy T*S    EENTRO =        -0.00833508
  eigenvalues    EBANDS =      -547.03404280
  atomic energy  EATOM  =     68993.34587830
  Solvation  Ediel_sol  =         0.00000000
  ---------------------------------------------------
  free energy    TOTEN  =      -503.87674302 eV

  energy without entropy =     -503.86840793  energy(sigma->0) =     -503.87396466


--------------------------------------------------------------------------------------------------------




--------------------------------------- Iteration      1(   5)  ---------------------------------------


     EDDAV:  cpu time   72.1621: real time   72.4313
       DOS:  cpu time    0.0030: real time    0.0039
    CHARGE:  cpu time    4.3936: real time    4.4051
    MIXING:  cpu time    0.0137: real time    0.0137
    --------------------------------------------
      LOOP:  cpu time   76.5724: real time   76.8540

 eigenvalue-minimisations  : 10860
 total energy-change (2. order) :-0.1104583E+01  (-0.1102654E+01)
 number of electron     778.0000030 magnetization     194.1526693
 augmentation part      338.0730562 magnetization     164.4381927

 Broyden mixing:
  rms(total) = 0.10685E+02    rms(broyden)= 0.10685E+02
  rms(prec ) = 0.11056E+02
  weight for this iteration     100.00

 Free energy of the ion-electron system (eV)
  ---------------------------------------------------
  alpha Z        PSCENC =      1751.32544349
  Ewald energy   TEWEN  =    237205.37776449
  -Hartree energ DENC   =   -307259.50844037
  -exchange      EXHF   =         0.00000000
  -V(xc)+E(xc)   XCENC  =      1334.82876300
  PAW double counting   =     62871.68470781   -64853.88848185
  entropy T*S    EENTRO =        -0.00836739
  eigenvalues    EBANDS =      -548.13859313
  atomic energy  EATOM  =     68993.34587830
  Solvation  Ediel_sol  =         0.00000000
  ---------------------------------------------------
  free energy    TOTEN  =      -504.98132565 eV

  energy without entropy =     -504.97295826  energy(sigma->0) =     -504.97853652


--------------------------------------------------------------------------------------------------------




--------------------------------------- Iteration      1(   6)  ---------------------------------------


    POTLOK:  cpu time    0.4253: real time    0.4821
    SETDIJ:  cpu time    0.0319: real time    0.0320
    EDDIAG:  cpu time   11.7096: real time   11.7466
  RMM-DIIS:  cpu time   41.1640: real time   41.2825
    ORTHCH:  cpu time    1.2466: real time    1.2658
       DOS:  cpu time    0.0023: real time    0.0023
    CHARGE:  cpu time    4.3293: real time    4.3408
    MIXING:  cpu time    0.0114: real time    0.0119
    --------------------------------------------
      LOOP:  cpu time   58.9205: real time   59.1640

 eigenvalue-minimisations  :  9414
 total energy-change (2. order) :-0.2544803E+03  (-0.9982594E+02)
 number of electron     778.0000040 magnetization     190.8494375
 augmentation part      408.7826049 magnetization     162.6202935

 Broyden mixing:
  rms(total) = 0.20884E+02    rms(broyden)= 0.20884E+02
  rms(prec ) = 0.26035E+02
  weight for this iteration     100.00

 eigenvalues of (default mixing * dielectric matrix)
  average eigenvalue GAMMA=   0.1752
  0.1752

 Free energy of the ion-electron system (eV)
  ---------------------------------------------------
  alpha Z        PSCENC =      1751.32544349
  Ewald energy   TEWEN  =    237205.37776449
  -Hartree energ DENC   =   -305971.52036637
  -exchange      EXHF   =         0.00000000
  -V(xc)+E(xc)   XCENC  =      1289.35231749
  PAW double counting   =     67987.37703450   -69739.27046405
  entropy T*S    EENTRO =         0.00438982
  eigenvalues    EBANDS =     -2275.45359544
  atomic energy  EATOM  =     68993.34587830
  Solvation  Ediel_sol  =         0.00000000
  ---------------------------------------------------
  free energy    TOTEN  =      -759.46159777 eV

  energy without entropy =     -759.46598759  energy(sigma->0) =     -759.46306105


--------------------------------------------------------------------------------------------------------




--------------------------------------- Iteration      1(   7)  ---------------------------------------


    POTLOK:  cpu time    0.4188: real time    0.4212
    SETDIJ:  cpu time    0.0319: real time    0.0320
    EDDIAG:  cpu time   11.7537: real time   11.7877
  RMM-DIIS:  cpu time   40.4687: real time   40.5977
    ORTHCH:  cpu time    1.2513: real time    1.2598
       DOS:  cpu time    0.0027: real time    0.0027
    CHARGE:  cpu time    4.3458: real time    4.3573
    MIXING:  cpu time    0.0125: real time    0.0126
    --------------------------------------------
      LOOP:  cpu time   58.2853: real time   58.4710

 eigenvalue-minimisations  :  9235
 total energy-change (2. order) : 0.2422936E+03  (-0.1720226E+02)
 number of electron     778.0000031 magnetization     187.9088802
 augmentation part      372.1693711 magnetization     152.9617018

 Broyden mixing:
  rms(total) = 0.14985E+02    rms(broyden)= 0.14985E+02
  rms(prec ) = 0.18183E+02
  weight for this iteration     100.00

 eigenvalues of (default mixing * dielectric matrix)
  average eigenvalue GAMMA=   0.2157
  0.2157  0.2157

 Free energy of the ion-electron system (eV)
  ---------------------------------------------------
  alpha Z        PSCENC =      1751.32544349
  Ewald energy   TEWEN  =    237205.37776449
  -Hartree energ DENC   =   -306580.89786797
  -exchange      EXHF   =         0.00000000
  -V(xc)+E(xc)   XCENC  =      1305.81181335
  PAW double counting   =     69034.18973343   -70950.76509121
  entropy T*S    EENTRO =         0.00163209
  eigenvalues    EBANDS =     -1275.55727494
  atomic energy  EATOM  =     68993.34587830
  Solvation  Ediel_sol  =         0.00000000
  ---------------------------------------------------
  free energy    TOTEN  =      -517.16796897 eV

  energy without entropy =     -517.16960106  energy(sigma->0) =     -517.16851300


--------------------------------------------------------------------------------------------------------




--------------------------------------- Iteration      1(   8)  ---------------------------------------


    POTLOK:  cpu time    0.4054: real time    0.4275
    SETDIJ:  cpu time    0.0316: real time    0.0318
    EDDIAG:  cpu time   11.7715: real time   11.8071
  RMM-DIIS:  cpu time   40.5699: real time   40.6894
    ORTHCH:  cpu time    1.2461: real time    1.2543
       DOS:  cpu time    0.0024: real time    0.0024
    CHARGE:  cpu time    4.3304: real time    4.3452
    MIXING:  cpu time    0.0123: real time    0.0126
    --------------------------------------------
      LOOP:  cpu time   58.3698: real time   58.5703

 eigenvalue-minimisations  :  9261
 total energy-change (2. order) : 0.8643118E+02  (-0.1334695E+02)
 number of electron     778.0000041 magnetization     180.8439228
 augmentation part      380.7209420 magnetization     142.5536717

 Broyden mixing:
  rms(total) = 0.11857E+02    rms(broyden)= 0.11857E+02
  rms(prec ) = 0.13867E+02
  weight for this iteration     100.00

 eigenvalues of (default mixing * dielectric matrix)
  average eigenvalue GAMMA=   0.3169
  0.5761  0.2822  0.0923

 Free energy of the ion-electron system (eV)
  ---------------------------------------------------
  alpha Z        PSCENC =      1751.32544349
  Ewald energy   TEWEN  =    237205.37776449
  -Hartree energ DENC   =   -306442.40787043
  -exchange      EXHF   =         0.00000000
  -V(xc)+E(xc)   XCENC  =      1310.44581484
  PAW double counting   =     69747.60956246   -71686.85606228
  entropy T*S    EENTRO =        -0.00004185
  eigenvalues    EBANDS =     -1309.57728230
  atomic energy  EATOM  =     68993.34587830
  Solvation  Ediel_sol  =         0.00000000
  ---------------------------------------------------
  free energy    TOTEN  =      -430.73679327 eV

  energy without entropy =     -430.73675142  energy(sigma->0) =     -430.73677932


--------------------------------------------------------------------------------------------------------




--------------------------------------- Iteration      1(   9)  ---------------------------------------


    POTLOK:  cpu time    0.4158: real time    0.4180
    SETDIJ:  cpu time    0.0320: real time    0.0321
    EDDIAG:  cpu time   11.7097: real time   11.7437
  RMM-DIIS:  cpu time   40.5127: real time   40.6313
    ORTHCH:  cpu time    1.2510: real time    1.2545
       DOS:  cpu time    0.0026: real time    0.0026
    CHARGE:  cpu time    4.1745: real time    4.2277
    MIXING:  cpu time    0.0128: real time    0.0131
    --------------------------------------------
      LOOP:  cpu time   58.1111: real time   58.3230

 eigenvalue-minimisations  :  9226
 total energy-change (2. order) :-0.1006213E+03  (-0.1732154E+02)
 number of electron     778.0000029 magnetization     174.6956524
 augmentation part      380.6222758 magnetization     141.5032027

 Broyden mixing:
  rms(total) = 0.16635E+02    rms(broyden)= 0.16635E+02
  rms(prec ) = 0.19101E+02
  weight for this iteration     100.00

 eigenvalues of (default mixing * dielectric matrix)
  average eigenvalue GAMMA=   0.3456
  0.8506  0.3105  0.1106  0.1106

 Free energy of the ion-electron system (eV)
  ---------------------------------------------------
  alpha Z        PSCENC =      1751.32544349
  Ewald energy   TEWEN  =    237205.37776449
  -Hartree energ DENC   =   -306192.35529550
  -exchange      EXHF   =         0.00000000
  -V(xc)+E(xc)   XCENC  =      1327.92587698
  PAW double counting   =     71390.71362084   -73394.51325724
  entropy T*S    EENTRO =         0.00400092
  eigenvalues    EBANDS =     -1613.18211785
  atomic energy  EATOM  =     68993.34587830
  Solvation  Ediel_sol  =         0.00000000
  ---------------------------------------------------
  free energy    TOTEN  =      -531.35808557 eV

  energy without entropy =     -531.36208649  energy(sigma->0) =     -531.35941921


--------------------------------------------------------------------------------------------------------




--------------------------------------- Iteration      1(  10)  ---------------------------------------


    POTLOK:  cpu time    0.4018: real time    0.4163
    SETDIJ:  cpu time    0.0317: real time    0.0320
    EDDIAG:  cpu time   11.6838: real time   11.7286
  RMM-DIIS:  cpu time   40.4946: real time   40.6204
    ORTHCH:  cpu time    1.2435: real time    1.2591
       DOS:  cpu time    0.0027: real time    0.0027
    CHARGE:  cpu time    4.2811: real time    4.3092
    MIXING:  cpu time    0.0130: real time    0.0134
    --------------------------------------------
      LOOP:  cpu time   58.1525: real time   58.3820

 eigenvalue-minimisations  :  9243
 total energy-change (2. order) : 0.1138643E+03  (-0.1251501E+02)
 number of electron     778.0000036 magnetization     169.2256404
 augmentation part      381.5389612 magnetization     126.1674805

 Broyden mixing:
  rms(total) = 0.10551E+02    rms(broyden)= 0.10551E+02
  rms(prec ) = 0.13478E+02
  weight for this iteration     100.00

 eigenvalues of (default mixing * dielectric matrix)
  average eigenvalue GAMMA=   0.3515
  0.9486  0.4257  0.1466  0.1466  0.0901

 Free energy of the ion-electron system (eV)
  ---------------------------------------------------
  alpha Z        PSCENC =      1751.32544349
  Ewald energy   TEWEN  =    237205.37776449
  -Hartree energ DENC   =   -306596.01248197
  -exchange      EXHF   =         0.00000000
  -V(xc)+E(xc)   XCENC  =      1337.35743564
  PAW double counting   =     72704.13669275   -74768.69111928
  entropy T*S    EENTRO =         0.00365681
  eigenvalues    EBANDS =     -1044.33702004
  atomic energy  EATOM  =     68993.34587830
  Solvation  Ediel_sol  =         0.00000000
  ---------------------------------------------------
  free energy    TOTEN  =      -417.49374980 eV

  energy without entropy =     -417.49740661  energy(sigma->0) =     -417.49496874


--------------------------------------------------------------------------------------------------------




--------------------------------------- Iteration      1(  11)  ---------------------------------------


    POTLOK:  cpu time    0.4155: real time    0.4181
    SETDIJ:  cpu time    0.0319: real time    0.0319
    EDDIAG:  cpu time   11.6885: real time   11.7225
  RMM-DIIS:  cpu time   40.5537: real time   40.6854
    ORTHCH:  cpu time    1.2652: real time    1.2690
       DOS:  cpu time    0.0026: real time    0.0026
    CHARGE:  cpu time    4.2425: real time    4.2541
    MIXING:  cpu time    0.0137: real time    0.0138
    --------------------------------------------
      LOOP:  cpu time   58.2133: real time   58.3972

 eigenvalue-minimisations  :  9260
 total energy-change (2. order) : 0.6003761E+02  (-0.8762983E+01)
 number of electron     778.0000034 magnetization     165.1161184
 augmentation part      373.7075282 magnetization     122.9526225

 Broyden mixing:
  rms(total) = 0.96966E+01    rms(broyden)= 0.96965E+01
  rms(prec ) = 0.10580E+02
  weight for this iteration     100.00

 eigenvalues of (default mixing * dielectric matrix)
  average eigenvalue GAMMA=   0.3541
  1.0720  0.4747  0.1686  0.1686  0.1472  0.0938

 Free energy of the ion-electron system (eV)
  ---------------------------------------------------
  alpha Z        PSCENC =      1751.32544349
  Ewald energy   TEWEN  =    237205.37776449
  -Hartree energ DENC   =   -306814.28537514
  -exchange      EXHF   =         0.00000000
  -V(xc)+E(xc)   XCENC  =      1337.32914787
  PAW double counting   =     73601.03466381   -75701.47777458
  entropy T*S    EENTRO =        -0.00939799
  eigenvalues    EBANDS =      -730.09648883
  atomic energy  EATOM  =     68993.34587830
  Solvation  Ediel_sol  =         0.00000000
  ---------------------------------------------------
  free energy    TOTEN  =      -357.45613857 eV

  energy without entropy =     -357.44674058  energy(sigma->0) =     -357.45300591


--------------------------------------------------------------------------------------------------------




--------------------------------------- Iteration      1(  12)  ---------------------------------------


    POTLOK:  cpu time    0.4167: real time    0.5861
    SETDIJ:  cpu time    0.0319: real time    0.0320
    EDDIAG:  cpu time   11.7074: real time   11.7415
  RMM-DIIS:  cpu time   40.5603: real time   40.7198
    ORTHCH:  cpu time    1.2404: real time    1.2675
       DOS:  cpu time    0.0023: real time    0.0023
    CHARGE:  cpu time    4.2574: real time    4.2687
    MIXING:  cpu time    0.0136: real time    0.0136
    --------------------------------------------
      LOOP:  cpu time   58.2300: real time   58.6315

 eigenvalue-minimisations  :  9266
 total energy-change (2. order) :-0.1060330E+02  (-0.5497553E+01)
 number of electron     778.0000032 magnetization     160.6506929
 augmentation part      372.3254987 magnetization     121.6101671

 Broyden mixing:
  rms(total) = 0.11525E+02    rms(broyden)= 0.11525E+02
  rms(prec ) = 0.12973E+02
  weight for this iteration     100.00

 eigenvalues of (default mixing * dielectric matrix)
  average eigenvalue GAMMA=   0.3528
  1.1949  0.4293  0.3480  0.1456  0.1456  0.0983  0.1080

 Free energy of the ion-electron system (eV)
  ---------------------------------------------------
  alpha Z        PSCENC =      1751.32544349
  Ewald energy   TEWEN  =    237205.37776449
  -Hartree energ DENC   =   -306789.61872181
  -exchange      EXHF   =         0.00000000
  -V(xc)+E(xc)   XCENC  =      1333.85758786
  PAW double counting   =     74104.35881508   -76217.28999908
  entropy T*S    EENTRO =         0.01128587
  eigenvalues    EBANDS =      -749.42749633
  atomic energy  EATOM  =     68993.34587830
  Solvation  Ediel_sol  =         0.00000000
  ---------------------------------------------------
  free energy    TOTEN  =      -368.05944213 eV

  energy without entropy =     -368.07072799  energy(sigma->0) =     -368.06320408


--------------------------------------------------------------------------------------------------------




--------------------------------------- Iteration      1(  13)  ---------------------------------------


    POTLOK:  cpu time    0.4193: real time    0.5715
    SETDIJ:  cpu time    0.0316: real time    0.0318
    EDDIAG:  cpu time   11.6889: real time   11.7433
  RMM-DIIS:  cpu time   40.5153: real time   40.7139
    ORTHCH:  cpu time    1.2523: real time    1.2562
       DOS:  cpu time    0.0026: real time    0.0027
    CHARGE:  cpu time    4.2678: real time    4.2793
    MIXING:  cpu time    0.0140: real time    0.0141
    --------------------------------------------
      LOOP:  cpu time   58.1920: real time   58.6128

 eigenvalue-minimisations  :  9266
 total energy-change (2. order) : 0.3464501E+01  (-0.3683069E+01)
 number of electron     778.0000030 magnetization     156.1560396
 augmentation part      372.8810250 magnetization     117.4270431

 Broyden mixing:
  rms(total) = 0.10048E+02    rms(broyden)= 0.10048E+02
  rms(prec ) = 0.11181E+02
  weight for this iteration     100.00

 eigenvalues of (default mixing * dielectric matrix)
  average eigenvalue GAMMA=   0.3529
  1.2876  0.4632  0.4632  0.1482  0.1482  0.1307  0.0864  0.0957

 Free energy of the ion-electron system (eV)
  ---------------------------------------------------
  alpha Z        PSCENC =      1751.32544349
  Ewald energy   TEWEN  =    237205.37776449
  -Hartree energ DENC   =   -306894.89569498
  -exchange      EXHF   =         0.00000000
  -V(xc)+E(xc)   XCENC  =      1329.38531270
  PAW double counting   =     74638.22738483   -76761.65829573
  entropy T*S    EENTRO =         0.00036978
  eigenvalues    EBANDS =      -625.70310442
  atomic energy  EATOM  =     68993.34587830
  Solvation  Ediel_sol  =         0.00000000
  ---------------------------------------------------
  free energy    TOTEN  =      -364.59494153 eV

  energy without entropy =     -364.59531131  energy(sigma->0) =     -364.59506479


--------------------------------------------------------------------------------------------------------




--------------------------------------- Iteration      1(  14)  ---------------------------------------


    POTLOK:  cpu time    0.4261: real time    0.6814
    SETDIJ:  cpu time    0.0318: real time    0.0320
    EDDIAG:  cpu time   11.6752: real time   11.7523
  RMM-DIIS:  cpu time   40.6272: real time   40.7658
    ORTHCH:  cpu time    1.2484: real time    1.2520
       DOS:  cpu time    0.0027: real time    0.0027
    CHARGE:  cpu time    4.2715: real time    4.2836
    MIXING:  cpu time    0.0141: real time    0.0142
    --------------------------------------------
      LOOP:  cpu time   58.2971: real time   58.7840

 eigenvalue-minimisations  :  9263
 total energy-change (2. order) : 0.2746368E+02  (-0.2757889E+01)
 number of electron     778.0000034 magnetization     153.7646779
 augmentation part      371.5425584 magnetization     113.2054316

 Broyden mixing:
  rms(total) = 0.63028E+01    rms(broyden)= 0.63027E+01
  rms(prec ) = 0.68096E+01
  weight for this iteration     100.00

 eigenvalues of (default mixing * dielectric matrix)
  average eigenvalue GAMMA=   0.3372
  1.2954  0.4972  0.4972  0.1624  0.1624  0.1222  0.1222  0.0877  0.0877

 Free energy of the ion-electron system (eV)
  ---------------------------------------------------
  alpha Z        PSCENC =      1751.32544349
  Ewald energy   TEWEN  =    237205.37776449
  -Hartree energ DENC   =   -306961.98876623
  -exchange      EXHF   =         0.00000000
  -V(xc)+E(xc)   XCENC  =      1328.18017344
  PAW double counting   =     75140.50550820   -77273.55136539
  entropy T*S    EENTRO =        -0.00523022
  eigenvalues    EBANDS =      -520.32066962
  atomic energy  EATOM  =     68993.34587830
  Solvation  Ediel_sol  =         0.00000000
  ---------------------------------------------------
  free energy    TOTEN  =      -337.13126353 eV

  energy without entropy =     -337.12603331  energy(sigma->0) =     -337.12952012


--------------------------------------------------------------------------------------------------------




--------------------------------------- Iteration      1(  15)  ---------------------------------------


    POTLOK:  cpu time    0.4143: real time    0.4167
    SETDIJ:  cpu time    0.0315: real time    0.0315
    EDDIAG:  cpu time   11.7030: real time   11.7371
  RMM-DIIS:  cpu time   40.6215: real time   40.7442
    ORTHCH:  cpu time    1.2475: real time    1.2510
       DOS:  cpu time    0.0027: real time    0.0028
    CHARGE:  cpu time    4.3092: real time    4.3228
    MIXING:  cpu time    0.0144: real time    0.0146
    --------------------------------------------
      LOOP:  cpu time   58.3441: real time   58.5207

 eigenvalue-minimisations  :  9263
 total energy-change (2. order) : 0.2807754E+01  (-0.1109957E+01)
 number of electron     778.0000035 magnetization     150.8237877
 augmentation part      371.0733239 magnetization     111.6639320

 Broyden mixing:
  rms(total) = 0.51590E+01    rms(broyden)= 0.51589E+01
  rms(prec ) = 0.55552E+01
  weight for this iteration     100.00

 eigenvalues of (default mixing * dielectric matrix)
  average eigenvalue GAMMA=   0.3430
  1.3177  0.5775  0.5775  0.2083  0.2083  0.1329  0.1329  0.0977  0.0977  0.0802

 Free energy of the ion-electron system (eV)
  ---------------------------------------------------
  alpha Z        PSCENC =      1751.32544349
[...]
   -.509E+02 0.141E+01 -.269E+04   0.512E+02 -.729E+00 0.269E+04   -.360E+00 -.714E+00 0.162E+00   0.226E-01 0.460E-01 -.420E-01
   -.667E+02 -.303E+02 -.283E+04   0.659E+02 0.308E+02 0.283E+04   0.770E+00 -.455E+00 0.243E+01   -.193E-02 -.134E-01 0.185E-01
   0.104E+03 0.860E+01 -.270E+04   -.103E+03 -.942E+01 0.270E+04   -.671E+00 0.833E+00 0.212E+01   0.136E-01 0.279E-01 0.260E-01
   0.181E+02 0.149E+02 -.291E+04   -.179E+02 -.156E+02 0.291E+04   -.353E+00 0.662E+00 0.283E+01   0.819E-02 -.460E-02 0.589E-02
   0.562E+02 0.505E+01 -.297E+04   -.565E+02 -.463E+01 0.297E+04   0.254E+00 -.409E+00 0.331E+01   0.725E-02 0.121E-01 -.990E-03
   0.195E+02 0.711E+02 -.272E+04   -.203E+02 -.707E+02 0.272E+04   0.808E+00 -.522E+00 0.203E+01   0.211E-02 -.182E-01 0.120E-01
   0.609E+02 0.103E+02 -.288E+04   -.600E+02 -.992E+01 0.288E+04   -.874E+00 -.303E+00 0.272E+01   0.104E-01 -.247E-01 0.794E-03
   -.104E+03 -.224E+02 -.283E+04   0.103E+03 0.222E+02 0.283E+04   0.147E+01 0.256E+00 0.195E+01   -.225E-02 -.952E-02 -.252E-01
   -.537E+02 -.188E+02 -.278E+04   0.541E+02 0.190E+02 0.278E+04   -.410E+00 -.214E+00 0.250E+00   -.736E-02 -.471E-01 0.714E-02
   -.467E+02 -.676E+02 -.286E+04   0.466E+02 0.671E+02 0.286E+04   0.110E+00 0.444E+00 0.210E+01   -.111E-01 -.480E-02 -.507E-02
   0.110E+03 0.565E+02 -.275E+04   -.109E+03 -.565E+02 0.275E+04   -.680E+00 -.124E-01 0.242E+01   0.952E-02 0.405E-01 0.620E-01
   0.846E+02 0.440E+02 -.274E+04   -.841E+02 -.431E+02 0.273E+04   -.519E+00 -.899E+00 0.208E+01   0.262E-02 -.219E-01 0.312E-01
   -.251E+02 -.363E+02 -.268E+04   0.255E+02 0.353E+02 0.268E+04   -.394E+00 0.933E+00 0.215E+01   -.188E-01 0.170E-01 0.323E-01
   -.342E+02 -.199E+02 -.277E+04   0.342E+02 0.198E+02 0.277E+04   -.550E-01 0.367E-01 0.197E+01   0.266E-01 -.155E-01 0.314E-02
   0.449E+02 -.607E+02 -.133E+04   -.437E+02 0.598E+02 0.133E+04   -.111E+01 0.992E+00 0.199E+01   -.185E-02 -.412E-01 0.504E-02
   -.110E+03 -.808E+02 -.148E+04   0.109E+03 0.803E+02 0.148E+04   0.112E+01 0.553E+00 0.225E+01   -.239E-01 -.133E-01 -.116E-01
   0.595E+02 0.541E+02 0.278E+04   -.587E+02 -.539E+02 -.278E+04   -.663E+00 -.443E+00 -.194E+01   -.243E-01 0.469E-01 0.119E-01
   -.118E+03 -.144E+03 0.197E+04   0.118E+03 0.145E+03 -.197E+04   -.152E+00 -.368E+00 0.137E+01   -.170E-01 -.474E-01 -.503E-01
   0.779E+02 0.680E+02 -.154E+04   -.772E+02 -.675E+02 0.154E+04   -.806E+00 -.459E+00 0.171E+01   0.544E-02 -.368E-01 0.582E-01
   0.779E+01 0.189E+03 0.297E+04   -.756E+01 -.187E+03 -.296E+04   -.206E+00 -.164E+01 -.199E+01   0.635E-01 0.802E-01 -.279E-01
   0.159E+03 0.252E+02 0.147E+04   -.158E+03 -.261E+02 -.147E+04   -.773E+00 0.959E+00 -.391E+00   0.301E-01 0.318E-01 0.330E-01
   -.265E+02 -.361E+02 -.276E+04   0.264E+02 0.355E+02 0.276E+04   0.735E-01 0.522E+00 0.180E+01   -.595E-02 0.616E-02 0.523E-01
   0.109E+03 0.907E+02 -.230E+03   -.109E+03 -.904E+02 0.230E+03   0.869E-01 -.288E+00 0.106E+00   -.118E-01 -.328E-01 0.112E-01
   -.581E+01 0.444E+02 -.292E+04   0.562E+01 -.441E+02 0.292E+04   0.164E+00 -.296E+00 0.271E+01   0.108E-01 0.156E-01 0.166E-01
   -.444E+02 -.464E+02 0.331E+03   0.442E+02 0.452E+02 -.331E+03   0.158E+00 0.125E+01 -.606E-01   0.295E-02 0.216E-02 0.818E-01
   -.908E+02 -.523E+02 -.145E+04   0.914E+02 0.518E+02 0.145E+04   -.599E+00 0.547E+00 0.181E+01   0.168E-01 0.341E-01 0.553E-01
   0.135E+02 0.701E+01 -.133E+04   -.142E+02 -.641E+01 0.133E+04   0.780E+00 -.575E+00 0.189E+01   -.245E-02 0.865E-02 0.279E-01
   -.640E+02 -.101E+03 -.248E+02   0.637E+02 0.100E+03 0.245E+02   0.352E+00 0.512E+00 0.218E+00   0.490E-01 -.382E-01 0.277E-01
   -.243E+02 -.280E+02 0.126E+03   0.248E+02 0.280E+02 -.127E+03   -.438E+00 -.637E-01 0.927E+00   -.112E-01 0.797E-02 0.146E-01
   -.634E+02 -.125E+03 -.121E+04   0.633E+02 0.124E+03 0.121E+04   0.113E+00 0.784E+00 0.756E+00   -.523E-03 0.150E-01 0.408E-01
   -.227E+01 0.110E+03 0.236E+04   0.357E+01 -.110E+03 -.236E+04   -.110E+01 -.366E+00 -.153E+01   -.421E-01 0.176E-01 -.682E-03
   0.784E+01 0.138E+03 0.248E+04   -.899E+01 -.137E+03 -.248E+04   0.105E+01 -.776E+00 -.243E+01   0.414E-01 0.274E-02 -.149E-01
   -.727E+01 0.874E+02 0.223E+04   0.714E+01 -.857E+02 -.223E+04   0.701E-01 -.137E+01 -.215E+01   0.514E-02 -.759E-01 -.740E-02
   0.126E+03 0.697E+02 0.108E+04   -.126E+03 -.698E+02 -.108E+04   -.281E+00 0.226E-01 0.194E-02   -.271E-01 0.186E-01 0.339E-01
   0.495E+02 -.604E+02 0.143E+04   -.491E+02 0.604E+02 -.143E+04   -.521E+00 0.225E-01 -.342E+00   0.145E-01 0.294E-01 0.175E-01
   -.685E+02 0.103E+02 -.140E+04   0.683E+02 -.101E+02 0.140E+04   0.162E+00 -.337E+00 0.302E+00   0.192E-01 -.903E-02 0.567E-01
   -.256E+03 -.128E+03 0.278E+04   0.255E+03 0.126E+03 -.277E+04   0.150E+01 0.153E+01 -.404E+01   0.142E-01 -.426E-02 -.289E-01
   -.169E+02 0.991E+02 0.132E+04   0.165E+02 -.990E+02 -.131E+04   0.421E+00 -.261E+00 -.686E+00   -.404E-02 0.137E-01 0.129E-02
   -.968E+02 -.873E+02 0.134E+03   0.967E+02 0.875E+02 -.134E+03   0.508E-01 -.189E+00 -.328E+00   0.251E-01 0.602E-03 0.315E-01
   0.164E+02 -.129E+03 -.147E+04   -.166E+02 0.129E+03 0.147E+04   0.191E+00 0.498E+00 0.306E+00   0.194E-01 -.154E-02 0.119E-01
   0.829E+02 0.134E+03 -.141E+04   -.828E+02 -.133E+03 0.141E+04   -.698E-01 -.625E+00 -.675E+00   0.809E-02 0.931E-02 0.361E-01
   -.795E+02 -.138E+03 0.273E+04   0.778E+02 0.137E+03 -.272E+04   0.155E+01 0.163E+01 -.329E+01   -.233E-01 0.516E-01 -.215E-01
   0.167E+02 -.253E+02 0.276E+04   -.172E+02 0.254E+02 -.276E+04   0.398E+00 -.129E+00 -.331E+01   0.171E-03 -.111E-01 -.162E-01
   0.228E+03 -.398E+02 0.247E+04   -.226E+03 0.395E+02 -.247E+04   -.131E+01 0.260E+00 -.199E+01   -.100E-01 -.105E-01 -.506E-03
   -.186E+03 -.296E+02 0.146E+04   0.186E+03 0.296E+02 -.146E+04   0.250E+00 -.155E-01 0.225E+00   -.366E-01 0.398E-01 0.623E-01
   -.196E+03 0.595E+02 0.689E+01   0.195E+03 -.593E+02 -.649E+01   0.380E+00 -.357E+00 -.471E+00   -.121E-01 0.495E-01 0.564E-01
   -.188E+03 -.404E+02 0.139E+04   0.189E+03 0.409E+02 -.139E+04   -.816E-01 -.429E+00 0.495E+00   -.220E-01 -.197E-01 0.229E-01
   0.262E+02 -.680E+02 0.135E+04   -.261E+02 0.676E+02 -.135E+04   -.435E-01 0.516E+00 -.219E-01   -.120E-01 -.266E-01 0.413E-02
   0.195E+03 0.415E+02 -.147E+04   -.194E+03 -.416E+02 0.147E+04   -.671E+00 0.128E+00 -.295E-01   0.170E-02 0.419E-01 0.390E-01
   0.180E+03 0.552E+01 0.274E+04   -.178E+03 -.564E+01 -.273E+04   -.187E+01 0.987E-01 -.327E+01   0.108E-01 0.185E-01 -.268E-01
   -.978E+02 0.354E+02 0.159E+04   0.979E+02 -.351E+02 -.159E+04   -.181E+00 -.424E+00 0.295E+00   -.516E-02 0.594E-02 0.622E-02
   0.114E+03 -.583E+02 -.102E+03   -.114E+03 0.583E+02 0.102E+03   -.408E+00 0.918E-01 -.127E+00   0.226E-01 0.224E-01 0.402E-01
   0.134E+03 0.310E+02 0.297E+04   -.134E+03 -.306E+02 -.297E+04   -.127E+00 -.309E+00 -.151E+01   -.124E-01 -.664E-02 0.919E-02
   -.526E+02 -.163E+03 0.172E+04   0.526E+02 0.162E+03 -.172E+04   -.720E-01 0.334E+00 0.162E+00   0.896E-02 0.128E-01 0.302E-01
   0.193E+03 -.102E+02 0.134E+04   -.193E+03 0.104E+02 -.134E+04   0.419E+00 -.587E-01 0.482E+00   0.136E-01 -.353E-01 0.331E-01
   -.125E+03 0.316E+02 0.200E+03   0.125E+03 -.315E+02 -.200E+03   0.435E+00 -.202E+00 -.293E+00   -.442E-01 0.354E-01 0.613E-01
   -.248E+01 0.588E+02 -.127E+04   0.264E+01 -.591E+02 0.127E+04   -.137E+00 0.290E+00 0.529E+00   -.304E-02 -.937E-02 0.307E-01
   -.131E+03 0.154E+02 -.160E+04   0.131E+03 -.151E+02 0.160E+04   0.261E+00 -.274E+00 0.526E+00   0.258E-01 0.539E-01 0.195E-01
   0.826E+02 0.199E+03 0.290E+04   -.827E+02 -.199E+03 -.290E+04   -.237E-01 -.513E-01 -.118E+01   -.272E-02 0.703E-01 -.116E-01
   -.194E+03 -.246E+02 0.312E+04   0.192E+03 0.250E+02 -.312E+04   0.216E+01 -.422E+00 -.409E+01   -.230E-01 0.170E-01 -.163E-01
   -.399E+01 -.427E+02 0.205E+03   0.428E+01 0.427E+02 -.205E+03   -.375E+00 -.904E-01 -.303E+00   0.868E-02 -.326E-01 0.210E-01
   -.823E+02 -.114E+02 -.784E+02   0.820E+02 0.110E+02 0.784E+02   0.287E+00 0.447E+00 -.306E-01   -.462E-02 -.349E-01 0.210E-01
   0.311E+02 0.204E+03 0.111E+04   -.314E+02 -.204E+03 -.111E+04   0.282E+00 -.428E+00 0.139E-01   -.165E-02 0.576E-01 0.845E-01
   0.142E+03 0.176E+02 -.219E+03   -.142E+03 -.182E+02 0.220E+03   0.244E+00 0.723E+00 -.483E+00   -.462E-01 -.346E-01 0.187E-01
   -.120E+02 -.948E+02 0.171E+03   0.124E+02 0.948E+02 -.171E+03   -.470E+00 -.101E-01 -.326E+00   0.500E-03 -.353E-01 0.204E-01
   -.170E+03 -.110E+03 0.165E+04   0.170E+03 0.110E+03 -.165E+04   0.393E-01 -.181E+00 -.341E+00   0.254E-01 -.444E-01 -.841E-01
   -.698E+02 0.661E+01 0.148E+04   0.701E+02 -.657E+01 -.148E+04   -.226E+00 -.119E+00 -.666E+00   0.173E-01 0.212E-01 -.537E-01
   -.272E+03 -.156E+03 0.302E+04   0.270E+03 0.155E+03 -.302E+04   0.226E+01 0.137E+01 -.364E+01   0.705E-02 -.588E-01 -.320E-01
   0.296E+03 -.679E+02 0.296E+04   -.294E+03 0.672E+02 -.296E+04   -.219E+01 0.777E+00 -.281E+01   0.155E-02 -.356E-01 -.179E-01
   0.877E+02 0.278E+02 0.151E+04   -.877E+02 -.280E+02 -.151E+04   0.102E+00 0.172E+00 0.358E-01   0.315E-02 -.661E-02 0.271E-03
   0.140E+03 0.121E+02 0.120E+04   -.140E+03 -.120E+02 -.120E+04   0.943E-01 -.156E-01 -.314E+00   -.603E-02 -.520E-01 0.107E-01
   0.869E+02 0.252E+02 -.156E+04   -.867E+02 -.252E+02 0.156E+04   -.153E+00 -.527E-01 -.341E+00   -.927E-02 -.252E-01 0.622E-01
   -.967E+00 -.988E+01 0.308E+04   0.904E+00 0.104E+02 -.308E+04   -.823E-01 -.436E+00 -.174E+01   0.622E-01 -.732E-02 -.189E-01
   0.644E+02 0.176E+03 -.543E+02   -.649E+02 -.177E+03 0.550E+02   0.450E+00 0.233E+00 -.834E+00   -.616E-02 -.126E-01 0.616E-01
   0.763E+01 0.957E+02 -.261E+02   -.784E+01 -.952E+02 0.261E+02   0.224E+00 -.674E+00 -.194E+00   0.294E-01 0.510E-01 0.267E-01
   0.231E+03 0.501E+02 -.244E+03   -.231E+03 -.498E+02 0.245E+03   0.309E+00 -.351E+00 -.546E+00   -.172E-01 0.228E-01 0.399E-01
   -.611E+02 -.117E+03 -.771E+01   0.612E+02 0.117E+03 0.743E+01   -.132E+00 0.287E+00 0.145E+00   0.222E-01 0.278E-01 0.511E-01
   -.763E+01 -.506E+01 -.329E+03   0.768E+01 0.521E+01 0.331E+03   -.642E-01 -.178E+00 -.168E+01   -.429E-03 -.113E-02 0.155E-02
 -----------------------------------------------------------------------------------------------
   -.242E+01 -.100E+01 -.693E+01   -.226E-12 -.349E-12 -.477E-11   0.224E+01 0.914E+00 0.569E+01   0.167E+00 0.129E+00 0.121E+01
 
 
 POSITION                                       TOTAL-FORCE (eV/Angst)
 -----------------------------------------------------------------------------------
     13.78616      8.52830      6.65008         0.015396      0.010014      0.004272
      5.28284      8.55966      6.41861         0.008779     -0.014805      0.019214
      5.13122      3.50250      6.83586         0.008455      0.038495     -0.016891
     15.27419      9.38997      8.82944         0.000740      0.017784     -0.004754
      3.91662      4.50822      9.02705        -0.007393      0.024353     -0.013001
      6.79984      9.24734      8.74621         0.028695     -0.004047     -0.004522
     12.37115      4.43884      9.07136        -0.044384      0.001958     -0.007539
      9.55940      9.26757      9.13703        -0.034441      0.010509     -0.005103
     10.88860      2.08151      8.72759         0.001914     -0.038738      0.002808
      2.63112      2.05695      9.08966         0.008438      0.009891     -0.001568
     12.34913      9.25530      9.01537        -0.010329      0.031623      0.001833
     13.82659      6.90637      9.04697        -0.005323      0.003587      0.019723
      5.36351      1.94923      9.09396        -0.012516     -0.026447      0.021919
      8.12148      6.80461      8.80153        -0.002452     -0.013907     -0.001211
      9.51265      4.46246      8.77625         0.004300     -0.005181      0.003063
      5.34157      6.88918      8.80555        -0.005935      0.007149      0.016603
      8.16921      1.95722      8.89019        -0.028027      0.016000      0.020379
      7.99609      3.37123      6.61888        -0.009536      0.007188     -0.015120
      6.56012      1.09162      6.78845        -0.006706      0.018816     -0.002738
      6.83385      1.22925      1.47033        -0.005797      0.040487     -0.005824
      3.61235      3.96468      2.61995        -0.009015      0.008283      0.007118
      1.42849      1.43587      6.83082         0.011249     -0.009405     -0.000831
      0.67127      0.98910      1.08188        -0.027313     -0.024985      0.002619
      6.74807      9.00879      3.12342        -0.005009      0.011755     -0.020987
      6.73418      4.36701      8.93432         0.001612      0.003134     -0.004590
      8.49330      5.38439      5.05378         0.000807      0.002389      0.006952
     10.97603      6.86729      9.10245        -0.009302     -0.005778     -0.007279
     14.94884      7.37673      4.49249        -0.000843      0.005433      0.028666
     12.47815      6.13852      6.84694         0.021035     -0.014187      0.008419
      6.48152      5.89480      6.64743         0.011854     -0.013396     -0.011734
      3.57422      2.54624      4.95878        -0.025635     -0.024966     -0.063064
     11.12614      5.45251      4.71025         0.031135     -0.001639     -0.025347
      3.88315      5.91214      6.70858         0.001878     -0.006830     -0.016375
     13.73438      8.58852      1.76277        -0.006137     -0.017526     -0.032093
      4.87663      8.41395      1.57788         0.013214      0.007356      0.017068
      3.75877      6.38414      2.06092         0.020001     -0.003523      0.027096
      8.35850      2.27224      3.29405        -0.004229     -0.017233      0.010526
      9.33367      9.15886      2.96349        -0.001310      0.000342      0.019013
      2.48398      3.84487      6.95658        -0.011546      0.015745      0.003622
      1.94892      3.12368      0.97734        -0.005298      0.008271      0.013446
     10.75187      2.21221      3.05623         0.005682      0.009173      0.000616
     13.77799      5.05868      4.81470        -0.011871      0.031043      0.021446
      3.95602      0.97231      7.02585        -0.009340     -0.031172      0.000914
      9.83064      6.30179      6.97017         0.006537     -0.018584      0.008787
      3.32747      0.88717      1.07332        -0.001352     -0.005425     -0.007876
      9.37038      5.94444      1.03355         0.018891      0.005413     -0.044024
      5.77436      3.51120      1.58883         0.010992      0.002439     -0.000194
     11.78080      9.10211      3.01275        -0.007616     -0.007349      0.021485
     12.14221      7.86485      4.90717         0.023395     -0.020136      0.030650
     12.89855      6.59993      3.08536        -0.005537      0.001238      0.024947
      9.60902      4.40928      2.93166         0.003935     -0.017795      0.003109
      8.50731      8.48420      6.96117         0.007404      0.017969     -0.018699
      8.12654      8.25967      1.10014        -0.014689      0.011428     -0.003539
     10.59532      7.05732      2.72628         0.001723     -0.008418      0.017892
      2.64345      0.12582      5.05287         0.007473     -0.007166     -0.008687
      8.18206      3.50560      1.21995        -0.016108     -0.033452      0.008240
      4.79851      1.62222      2.89617        -0.005874     -0.001025      0.016885
      5.80940      6.64990      3.24762        -0.011231      0.014484     -0.022709
      7.65468      0.41297      4.68699         0.019011     -0.054742      0.028181
      9.44379      1.12678      6.52357         0.017312      0.011715      0.015550
     10.93443      8.49293      6.94689        -0.016907      0.013754      0.019592
      9.36237      1.19334      1.33066         0.028871      0.005642      0.000533
     10.65631      8.73216      0.98021        -0.008717     -0.006264     -0.005977
      5.03147      4.91039      4.71650        -0.012057      0.006873     -0.019091
     12.26834      3.06562      4.96160        -0.017002      0.032917     -0.006469
      9.64277      0.01896      3.43463         0.017648      0.009129      0.013265
      9.85949      3.06130      5.05334         0.031002      0.028223     -0.001404
      6.31739      2.58312      4.70295        -0.004426     -0.034119     -0.022086
     12.25313      4.17493      2.83324        -0.000844      0.003816     -0.000088
      2.09525      1.75623      3.07324         0.003831      0.001092      0.021329
     11.83128      5.72145      1.13423         0.032002      0.002848      0.002362
      6.85743      5.74904      1.30355        -0.003218     -0.005792      0.004127
      8.21979      6.81570      3.00225         0.001811      0.015887     -0.000737
      7.04013      4.41026      3.27464        -0.016329      0.002518     -0.002848
     11.12568      3.90759      6.90723         0.018998     -0.028774     -0.023135
     10.73608      3.41609      1.01158         0.004644     -0.010997     -0.000012
     11.35396      0.81935      4.88330        -0.023118      0.021019     -0.030565
      9.67608      7.72321      4.95729         0.015190     -0.003117     -0.040030
      7.20385      7.63915      5.11888         0.012394      0.017888      0.004032
      5.07803      0.26935      4.93904        -0.004897     -0.000037     -0.016788
     14.57612      8.21432      9.94386        -0.008638     -0.030116      0.017230
 -----------------------------------------------------------------------------------
    total drift:                               -0.015553      0.042847     -0.020608


--------------------------------------------------------------------------------------------------------



  FREE ENERGIE OF THE ION-ELECTRON SYSTEM (eV)
  ---------------------------------------------------
  free  energy   TOTEN  =      -503.39893959 eV

  energy  without entropy=     -503.43469677  energy(sigma->0) =     -503.41085865
 
 d Force = 0.2726141E-02[ 0.517E-03, 0.494E-02]  d Energy = 0.2768011E-02-0.419E-04
 d Force = 0.2922703E+02[ 0.291E+02, 0.293E+02]  d Ewald  = 0.2922717E+02-0.135E-03


--------------------------------------------------------------------------------------------------------


    POTLOK:  cpu time    0.4401: real time    0.4434


--------------------------------------------------------------------------------------------------------


 Conjugate gradient step on ions:
 trial-energy change:   -0.002768  1 .order   -0.002726   -0.004935   -0.000517
  (g-gl).g = 0.394E-02      g.g   = 0.301E-02  gl.gl    = 0.516E-02
 g(Force)  = 0.301E-02   g(Stress)= 0.000E+00 ortho     =-0.596E-03
 gamma     =   0.76355
 trial     =   1.93204
 opt step  =   2.14468  (harmonic =   2.15810) maximal distance =0.02196089
 next E    =  -503.398968   (d E  =  -0.00280)


--------------------------------------------------------------------------------------------------------


  
 reached required accuracy - stopping structural energy minimisation
     LOOP+:  cpu time  822.4874: real time  825.5246
    4ORBIT:  cpu time    0.0000: real time    0.0000

 total amount of memory used by VASP MPI-rank0   243556. kBytes
=======================================================================

   base      :      30000. kBytes
   nonlr-proj:      33157. kBytes
   fftplans  :      18297. kBytes
   grid      :      51226. kBytes
   one-center:        653. kBytes
   wavefun   :     110223. kBytes
 
  
  
 General timing and accounting informations for this job:
 ========================================================
  
                  Total CPU time used (sec):    15230.705
                            User time (sec):    14851.409
                          System time (sec):      379.296
                         Elapsed time (sec):    15299.264
  
                   Maximum memory used (kb):      405252.
                   Average memory used (kb):           0.
  
                          Minor page faults:     13522023
                          Major page faults:          300
                 Voluntary context switches:         9040
