 vasp.5.4.4.18Apr17-6-g9f103f2a35 (build Oct 25 2019 11:13:22) complex          
  
 executed on             LinuxIFC date 2021.10.30  18:43:09
 running on   48 total cores
 distrk:  each k-point on   48 cores,    1 groups
 distr:  one band on NCORES_PER_BAND=   4 cores,   12 groups


--------------------------------------------------------------------------------------------------------


 INCAR:
 POTCAR:    PAW_PBE Pt 04Feb2005                  
 POTCAR:    PAW_PBE Fe 06Sep2000                  
 POTCAR:    PAW_PBE Co 02Aug2007                  
 POTCAR:    PAW_PBE Cu 22Jun2005                  
 POTCAR:    PAW_PBE Ni 02Aug2007                  
 POTCAR:    PAW_PBE H 15Jun2001                   
 POTCAR:    PAW_PBE Pt 04Feb2005                  
   VRHFIN =Pt: s1d9                                                             
   LEXCH  = PE                                                                  
   EATOM  =   729.1176 eV,   53.5886 Ry                                         
                                                                                
   TITEL  = PAW_PBE Pt 04Feb2005                                                
   LULTRA =        F    use ultrasoft PP ?                                      
   IUNSCR =        1    unscreen: 0-lin 1-nonlin 2-no                           
   RPACOR =    2.330    partial core radius                                     
   POMASS =  195.080; ZVAL   =   10.000    mass and valenz                      
   RCORE  =    2.600    outmost cutoff radius                                   
   RWIGS  =    2.750; RWIGS  =    1.455    wigner-seitz radius (au A)           
   ENMAX  =  230.283; ENMIN  =  172.712 eV                                      
   ICORE  =        3    local potential                                         
   LCOR   =        T    correct aug charges                                     
   LPAW   =        T    paw PP                                                  
   EAUG   =  358.966                                                            
   DEXC   =    0.000                                                            
   RMAX   =    2.658    core radius for proj-oper                               
   RAUG   =    1.300    factor for augmentation sphere                          
   RDEP   =    2.761    radius for radial grids                                 
   RDEPT  =    2.203    core radius for aug-charge                              
                                                                                
   Atomic configuration                                                         
   16 entries                                                                   
     n  l   j            E        occ.                                          
     1  0  0.50    -78401.1885   2.0000                                         
     2  0  0.50    -13770.7750   2.0000                                         
     2  1  1.50    -11931.0468   6.0000                                         
     3  0  0.50     -3234.7234   2.0000                                         
     3  1  1.50     -2699.2216   6.0000                                         
     3  2  2.50     -2119.5714  10.0000                                         
     4  0  0.50      -695.1528   2.0000                                         
     4  1  1.50      -519.6034   6.0000                                         
     4  2  2.50      -306.6786  10.0000                                         
     4  3  3.50       -70.1041  14.0000                                         
     5  0  0.50      -101.7747   2.0000                                         
     5  1  1.50       -55.9873   6.0000                                         
     5  2  2.50        -6.1423   9.0000                                         
     6  0  0.50        -5.6573   1.0000                                         
     6  1  1.50        -6.8029   0.0000                                         
     5  3  2.50        -1.3606   0.0000                                         
   Description                                                                  
     l       E           TYP  RCUT    TYP  RCUT                                 
     2     -6.1423404     23  2.500                                             
     2     -7.5029230     23  2.500                                             
     0     -5.6573207     23  2.500                                             
     0      0.7416693     23  2.500                                             
     1     -2.7211652     23  2.600                                             
     1     20.4087390     23  2.600                                             
     3     -1.3605826     23  2.500                                             
  local pseudopotential read in
  partial core-charges read in
  partial kinetic energy density read in
  atomic valenz-charges read in
  non local Contribution for L=           2  read in
    real space projection operators read in
  non local Contribution for L=           2  read in
    real space projection operators read in
  non local Contribution for L=           0  read in
    real space projection operators read in
  non local Contribution for L=           0  read in
    real space projection operators read in
  non local Contribution for L=           1  read in
    real space projection operators read in
  non local Contribution for L=           1  read in
    real space projection operators read in
    PAW grid and wavefunctions read in
 
   number of l-projection  operators is LMAX  =           6
   number of lm-projection operators is LMMAX =          18
 
 POTCAR:    PAW_PBE Fe 06Sep2000                  
   VRHFIN =Fe:  d7 s1                                                           
   LEXCH  = PE                                                                  
   EATOM  =   594.3153 eV,   43.6809 Ry                                         
                                                                                
   TITEL  = PAW_PBE Fe 06Sep2000                                                
   LULTRA =        F    use ultrasoft PP ?                                      
   IUNSCR =        1    unscreen: 0-lin 1-nonlin 2-no                           
   RPACOR =    2.000    partial core radius                                     
   POMASS =   55.847; ZVAL   =    8.000    mass and valenz                      
   RCORE  =    2.300    outmost cutoff radius                                   
   RWIGS  =    2.460; RWIGS  =    1.302    wigner-seitz radius (au A)           
   ENMAX  =  267.882; ENMIN  =  200.911 eV                                      
   RCLOC  =    1.701    cutoff for local pot                                    
   LCOR   =        T    correct aug charges                                     
   LPAW   =        T    paw PP                                                  
   EAUG   =  511.368                                                            
   DEXC   =    0.000                                                            
   RMAX   =    2.356    core radius for proj-oper                               
   RAUG   =    1.300    factor for augmentation sphere                          
   RDEP   =    2.442    radius for radial grids                                 
   RDEPT  =    1.890    core radius for aug-charge                              
                                                                                
   Atomic configuration                                                         
    9 entries                                                                   
     n  l   j            E        occ.                                          
     1  0  0.50     -6993.8440   2.0000                                         
     2  0  0.50      -814.6047   2.0000                                         
     2  1  1.50      -693.3689   6.0000                                         
     3  0  0.50       -89.4732   2.0000                                         
     3  1  1.50       -55.6373   6.0000                                         
     3  2  2.50        -3.8151   7.0000                                         
     4  0  0.50        -4.2551   1.0000                                         
     4  1  1.50        -3.4015   0.0000                                         
     4  3  2.50        -1.3606   0.0000                                         
   Description                                                                  
     l       E           TYP  RCUT    TYP  RCUT                                 
     2     -3.8151135     23  2.300                                             
     2     -5.1756961     23  2.300                                             
     0     -4.2550963     23  2.300                                             
     0      7.2035603     23  2.300                                             
     1     -2.7211652     23  2.300                                             
     1     18.4316424     23  2.300                                             
  local pseudopotential read in
  partial core-charges read in
  partial kinetic energy density read in
  atomic valenz-charges read in
  non local Contribution for L=           2  read in
    real space projection operators read in
  non local Contribution for L=           2  read in
    real space projection operators read in
  non local Contribution for L=           0  read in
    real space projection operators read in
  non local Contribution for L=           0  read in
    real space projection operators read in
  non local Contribution for L=           1  read in
    real space projection operators read in
  non local Contribution for L=           1  read in
    real space projection operators read in
    PAW grid and wavefunctions read in
 
   number of l-projection  operators is LMAX  =           6
   number of lm-projection operators is LMMAX =          18
 
 POTCAR:    PAW_PBE Co 02Aug2007                  
   VRHFIN =Co: d8 s1                                                            
   LEXCH  = PE                                                                  
   EATOM  =   813.3670 eV,   59.7808 Ry                                         
                                                                                
   TITEL  = PAW_PBE Co 02Aug2007                                                
   LULTRA =        F    use ultrasoft PP ?                                      
   IUNSCR =        1    unscreen: 0-lin 1-nonlin 2-no                           
   RPACOR =    2.000    partial core radius                                     
   POMASS =   58.933; ZVAL   =    9.000    mass and valenz                      
   RCORE  =    2.300    outmost cutoff radius                                   
   RWIGS  =    2.460; RWIGS  =    1.302    wigner-seitz radius (au A)           
   ENMAX  =  267.968; ENMIN  =  200.976 eV                                      
   RCLOC  =    1.203    cutoff for local pot                                    
   LCOR   =        T    correct aug charges                                     
   LPAW   =        T    paw PP                                                  
   EAUG   =  477.818                                                            
   DEXC   =    0.000                                                            
   RMAX   =    2.360    core radius for proj-oper                               
   RAUG   =    1.300    factor for augmentation sphere                          
   RDEP   =    2.393    radius for radial grids                                 
   RDEPT  =    1.864    core radius for aug-charge                              
                                                                                
   Atomic configuration                                                         
    9 entries                                                                   
     n  l   j            E        occ.                                          
     1  0  0.50     -7587.6674   2.0000                                         
     2  0  0.50      -893.6084   2.0000                                         
     2  1  1.50      -764.5805   6.0000                                         
     3  0  0.50       -97.5973   2.0000                                         
     3  1  1.50       -60.9648   6.0000                                         
     3  2  2.50        -4.2382   8.0000                                         
     4  0  0.50        -4.3746   1.0000                                         
     4  1  1.50        -4.0817   0.0000                                         
     4  3  2.50        -1.3606   0.0000                                         
   Description                                                                  
     l       E           TYP  RCUT    TYP  RCUT                                 
     2     -4.2382362     23  2.300                                             
     2     -5.5988188     23  2.300                                             
     0     -4.3745797     23  2.300                                             
     0      5.7660125     23  2.300                                             
     1     -2.7211652     23  2.300                                             
     1     16.9860234     23  2.300                                             
  local pseudopotential read in
  partial core-charges read in
  partial kinetic energy density read in
  atomic valenz-charges read in
  non local Contribution for L=           2  read in
    real space projection operators read in
  non local Contribution for L=           2  read in
    real space projection operators read in
  non local Contribution for L=           0  read in
    real space projection operators read in
  non local Contribution for L=           0  read in
    real space projection operators read in
  non local Contribution for L=           1  read in
    real space projection operators read in
  non local Contribution for L=           1  read in
    real space projection operators read in
    PAW grid and wavefunctions read in
 
   number of l-projection  operators is LMAX  =           6
   number of lm-projection operators is LMMAX =          18
 
 POTCAR:    PAW_PBE Cu 22Jun2005                  
   VRHFIN =Cu: d10 p1                                                           
   LEXCH  = PE                                                                  
   EATOM  =  1390.9808 eV,  102.2342 Ry                                         
                                                                                
   TITEL  = PAW_PBE Cu 22Jun2005                                                
   LULTRA =        F    use ultrasoft PP ?                                      
   IUNSCR =        1    unscreen: 0-lin 1-nonlin 2-no                           
   RPACOR =    2.000    partial core radius                                     
   POMASS =   63.546; ZVAL   =   11.000    mass and valenz                      
   RCORE  =    2.300    outmost cutoff radius                                   
   RWIGS  =    2.200; RWIGS  =    1.164    wigner-seitz radius (au A)           
   ENMAX  =  295.446; ENMIN  =  221.585 eV                                      
   ICORE  =        3    local potential                                         
   LCOR   =        T    correct aug charges                                     
   LPAW   =        T    paw PP                                                  
   EAUG   =  586.980                                                            
   DEXC   =    0.000                                                            
   RMAX   =    2.344    core radius for proj-oper                               
   RAUG   =    1.300    factor for augmentation sphere                          
   RDEP   =    2.302    radius for radial grids                                 
   RDEPT  =    1.771    core radius for aug-charge                              
                                                                                
   Atomic configuration                                                         
    9 entries                                                                   
     n  l   j            E        occ.                                          
     1  0  0.50     -8850.2468   2.0000                                         
     2  0  0.50     -1062.3498   2.0000                                         
     2  1  1.50      -916.8226   6.0000                                         
     3  0  0.50      -114.6929   2.0000                                         
     3  1  1.50       -72.1325   6.0000                                         
     3  2  2.50        -5.0394  10.0000                                         
     4  0  0.50        -4.6097   1.0000                                         
     4  1  0.50        -4.0817   0.0000                                         
     4  3  2.50        -1.3606   0.0000                                         
   Description                                                                  
     l       E           TYP  RCUT    TYP  RCUT                                 
     2     -5.0393973     23  2.200                                             
     2     10.8846608     23  2.200                                             
     0     -4.6097109     23  2.200                                             
     0      8.2520465     23  2.200                                             
     1     -2.7211652     23  2.200                                             
     1     21.7055443     23  2.200                                             
     3      2.7211652     23  2.300                                             
  local pseudopotential read in
  partial core-charges read in
  partial kinetic energy density read in
  atomic valenz-charges read in
  non local Contribution for L=           2  read in
    real space projection operators read in
  non local Contribution for L=           2  read in
    real space projection operators read in
  non local Contribution for L=           0  read in
    real space projection operators read in
  non local Contribution for L=           0  read in
    real space projection operators read in
  non local Contribution for L=           1  read in
    real space projection operators read in
  non local Contribution for L=           1  read in
    real space projection operators read in
    PAW grid and wavefunctions read in
 
   number of l-projection  operators is LMAX  =           6
   number of lm-projection operators is LMMAX =          18
 
 POTCAR:    PAW_PBE Ni 02Aug2007                  
   VRHFIN =Ni:                                                                  
   LEXCH  = PE                                                                  
   EATOM  =  1077.6739 eV,   79.2068 Ry                                         
                                                                                
   TITEL  = PAW_PBE Ni 02Aug2007                                                
   LULTRA =        F    use ultrasoft PP ?                                      
   IUNSCR =        1    unscreen: 0-lin 1-nonlin 2-no                           
   RPACOR =    2.000    partial core radius                                     
   POMASS =   58.690; ZVAL   =   10.000    mass and valenz                      
   RCORE  =    2.300    outmost cutoff radius                                   
   RWIGS  =    2.430; RWIGS  =    1.286    wigner-seitz radius (au A)           
   ENMAX  =  269.532; ENMIN  =  202.149 eV                                      
   RCLOC  =    1.201    cutoff for local pot                                    
   LCOR   =        T    correct aug charges                                     
   LPAW   =        T    paw PP                                                  
   EAUG   =  544.565                                                            
   DEXC   =    0.000                                                            
   RMAX   =    2.357    core radius for proj-oper                               
   RAUG   =    1.300    factor for augmentation sphere                          
   RDEP   =    2.390    radius for radial grids                                 
   RDEPT  =    1.838    core radius for aug-charge                              
                                                                                
   Atomic configuration                                                         
    9 entries                                                                   
     n  l   j            E        occ.                                          
     1  0  0.50     -8206.4253   2.0000                                         
     2  0  0.50      -976.1748   2.0000                                         
     2  1  1.50      -839.0571   6.0000                                         
     3  0  0.50      -105.9991   2.0000                                         
     3  1  1.50       -66.4603   6.0000                                         
     3  2  2.50        -4.6458   9.0000                                         
     4  0  0.50        -4.4926   1.0000                                         
     4  1  1.50        -4.0817   0.0000                                         
     4  3  2.50        -1.3606   0.0000                                         
   Description                                                                  
     l       E           TYP  RCUT    TYP  RCUT                                 
     2     -4.6457903     23  2.300                                             
     2     -6.0063729     23  2.300                                             
     0     -4.4925590     23  2.300                                             
     0      5.0102601     23  2.300                                             
     1     -2.7211652     23  2.300                                             
     1     16.5183231     23  2.300                                             
  local pseudopotential read in
  partial core-charges read in
  partial kinetic energy density read in
  atomic valenz-charges read in
  non local Contribution for L=           2  read in
    real space projection operators read in
  non local Contribution for L=           2  read in
    real space projection operators read in
  non local Contribution for L=           0  read in
    real space projection operators read in
  non local Contribution for L=           0  read in
    real space projection operators read in
  non local Contribution for L=           1  read in
    real space projection operators read in
  non local Contribution for L=           1  read in
    real space projection operators read in
    PAW grid and wavefunctions read in
 
   number of l-projection  operators is LMAX  =           6
   number of lm-projection operators is LMMAX =          18
 
 POTCAR:    PAW_PBE H 15Jun2001                   
   VRHFIN =H: ultrasoft test                                                    
   LEXCH  = PE                                                                  
   EATOM  =    12.4884 eV,    0.9179 Ry                                         
                                                                                
   TITEL  = PAW_PBE H 15Jun2001                                                 
   LULTRA =        F    use ultrasoft PP ?                                      
   IUNSCR =        0    unscreen: 0-lin 1-nonlin 2-no                           
   RPACOR =    0.000    partial core radius                                     
   POMASS =    1.000; ZVAL   =    1.000    mass and valenz                      
   RCORE  =    1.100    outmost cutoff radius                                   
   RWIGS  =    0.700; RWIGS  =    0.370    wigner-seitz radius (au A)           
   ENMAX  =  250.000; ENMIN  =  200.000 eV                                      
   RCLOC  =    0.701    cutoff for local pot                                    
   LCOR   =        T    correct aug charges                                     
   LPAW   =        T    paw PP                                                  
   EAUG   =  400.000                                                            
   RMAX   =    1.123    core radius for proj-oper                               
   RAUG   =    1.200    factor for augmentation sphere                          
   RDEP   =    1.112    radius for radial grids                                 
   RDEPT  =    0.926    core radius for aug-charge                              
                                                                                
   Atomic configuration                                                         
    2 entries                                                                   
     n  l   j            E        occ.                                          
     1  0  0.50        -6.4927   1.0000                                         
     2  1  0.50        -3.4015   0.0000                                         
   Description                                                                  
     l       E           TYP  RCUT    TYP  RCUT                                 
     0     -6.4927494     23  1.100                                             
     0      6.8029130     23  1.100                                             
     1     -4.0817478     23  1.100                                             
  local pseudopotential read in
  atomic valenz-charges read in
  non local Contribution for L=           0  read in
    real space projection operators read in
  non local Contribution for L=           0  read in
    real space projection operators read in
  non local Contribution for L=           1  read in
    real space projection operators read in
    PAW grid and wavefunctions read in
 
   number of l-projection  operators is LMAX  =           3
   number of lm-projection operators is LMMAX =           5
 
 Optimization of the real space projectors (new method)

 maximal supplied QI-value         = 14.36
 optimisation between [QCUT,QGAM] = [ 11.92, 23.98] = [ 39.79,161.09] Ry 
 Optimized for a Real-space Cutoff    1.49 Angstroem

   l    n(q)    QCUT    max X(q) W(low)/X(q) W(high)/X(q)  e(spline) 
   2     10    11.920    66.195    0.79E-04    0.18E-03    0.24E-06
   2     10    11.920    64.643    0.81E-04    0.19E-03    0.24E-06
   0     11    11.920    95.520    0.28E-04    0.54E-04    0.18E-06
   0     11    11.920    63.403    0.27E-04    0.52E-04    0.17E-06
   1     10    11.920    19.961    0.18E-04    0.11E-03    0.23E-06
   1     10    11.920    13.289    0.25E-04    0.87E-04    0.19E-06
 Optimization of the real space projectors (new method)

 maximal supplied QI-value         = 16.25
 optimisation between [QCUT,QGAM] = [ 11.86, 23.89] = [ 39.41,159.82] Ry 
 Optimized for a Real-space Cutoff    1.49 Angstroem

   l    n(q)    QCUT    max X(q) W(low)/X(q) W(high)/X(q)  e(spline) 
   2     10    11.864    80.901    0.13E-03    0.23E-03    0.37E-06
   2     10    11.864    75.754    0.13E-03    0.23E-03    0.38E-06
   0     11    11.864    58.752    0.44E-04    0.11E-04    0.20E-06
   0     11    11.864    30.679    0.36E-04    0.10E-04    0.18E-06
   1     10    11.864    17.977    0.31E-04    0.45E-04    0.10E-06
   1     10    11.864    13.559    0.25E-04    0.37E-04    0.89E-07
 Optimization of the real space projectors (new method)

 maximal supplied QI-value         = 16.25
 optimisation between [QCUT,QGAM] = [ 11.86, 23.89] = [ 39.41,159.82] Ry 
 Optimized for a Real-space Cutoff    1.33 Angstroem

   l    n(q)    QCUT    max X(q) W(low)/X(q) W(high)/X(q)  e(spline) 
   2      9    11.864    65.824    0.22E-03    0.53E-03    0.26E-06
   2      9    11.864    61.429    0.22E-03    0.53E-03    0.26E-06
   0      9    11.864    56.174    0.21E-03    0.32E-04    0.15E-06
   0      9    11.864    31.263    0.19E-03    0.30E-04    0.14E-06
   1      9    11.864    19.828    0.63E-04    0.30E-03    0.16E-06
   1      9    11.864    15.139    0.49E-04    0.25E-03    0.13E-06
 Optimization of the real space projectors (new method)

 maximal supplied QI-value         = 16.25
 optimisation between [QCUT,QGAM] = [ 11.86, 23.89] = [ 39.41,159.82] Ry 
 Optimized for a Real-space Cutoff    1.49 Angstroem

   l    n(q)    QCUT    max X(q) W(low)/X(q) W(high)/X(q)  e(spline) 
   2     10    11.864     4.610    0.10E-03    0.20E-03    0.29E-06
   2     10    11.864     8.522    0.17E-03    0.33E-03    0.50E-06
   0     11    11.864    51.609    0.52E-04    0.55E-04    0.33E-06
   0     11    11.864    27.747    0.46E-04    0.52E-04    0.31E-06
   1     10    11.864    20.408    0.54E-04    0.25E-04    0.21E-06
   1     10    11.864    13.425    0.48E-04    0.22E-04    0.18E-06
 Optimization of the real space projectors (new method)

 maximal supplied QI-value         = 16.25
 optimisation between [QCUT,QGAM] = [ 11.86, 23.89] = [ 39.41,159.82] Ry 
 Optimized for a Real-space Cutoff    1.33 Angstroem

   l    n(q)    QCUT    max X(q) W(low)/X(q) W(high)/X(q)  e(spline) 
   2      9    11.864    60.317    0.21E-03    0.51E-03    0.25E-06
   2      9    11.864    55.921    0.21E-03    0.51E-03    0.26E-06
   0      9    11.864    51.690    0.22E-03    0.30E-04    0.17E-06
   0      9    11.864    30.015    0.20E-03    0.28E-04    0.15E-06
   1      9    11.864    18.849    0.76E-04    0.33E-03    0.17E-06
   1      9    11.864    14.624    0.60E-04    0.28E-03    0.15E-06
 Optimization of the real space projectors (new method)

 maximal supplied QI-value         = 34.20
 optimisation between [QCUT,QGAM] = [ 11.97, 23.94] = [ 40.13,160.53] Ry 
 Optimized for a Real-space Cutoff    1.18 Angstroem

   l    n(q)    QCUT    max X(q) W(low)/X(q) W(high)/X(q)  e(spline) 
   0      8    11.971    19.460    0.15E-03    0.31E-03    0.25E-06
   0      8    11.971    12.209    0.13E-03    0.29E-03    0.25E-06
   1      8    11.971     4.655    0.22E-03    0.24E-03    0.21E-06
  PAW_PBE Pt 04Feb2005                  :
 energy of atom  1       EATOM= -729.1176
 kinetic energy error for atom=    0.0021 (will be added to EATOM!!)
  PAW_PBE Fe 06Sep2000                  :
 energy of atom  2       EATOM= -594.3153
 kinetic energy error for atom=    0.0024 (will be added to EATOM!!)
  PAW_PBE Co 02Aug2007                  :
 energy of atom  3       EATOM= -813.3670
 kinetic energy error for atom=    0.0026 (will be added to EATOM!!)
  PAW_PBE Cu 22Jun2005                  :
 energy of atom  4       EATOM=-1390.9808
 kinetic energy error for atom=    0.0036 (will be added to EATOM!!)
  PAW_PBE Ni 02Aug2007                  :
 energy of atom  5       EATOM=-1077.6739
 kinetic energy error for atom=    0.0027 (will be added to EATOM!!)
  PAW_PBE H 15Jun2001                   :
 energy of atom  6       EATOM=  -12.4884
 kinetic energy error for atom=    0.0008 (will be added to EATOM!!)
 
 
 POSCAR: 11.16                                   
  positions in direct lattice
  velocities in cartesian coordinates
 exchange correlation table for  LEXCH =        8
   RHO(1)=    0.500       N(1)  =     2000
   RHO(2)=  100.500       N(2)  =     4000
 


--------------------------------------------------------------------------------------------------------


 ion  position               nearest neighbor table
   1  0.784  0.881  0.307-  49 2.54  59 2.61  28 2.66   4 2.76  61 2.78  11 2.78  19 2.79  33 2.80
                            29 2.81  60 2.83   2 2.83  12 2.87
   2  0.038  0.880  0.303-  79 2.53  77 2.58  30 2.74  28 2.77  33 2.77  60 2.81   4 2.83   1 2.83
                             6 2.86  22 2.88  52 2.91  16 2.98
   3  0.277  0.374  0.314-  64 2.54  68 2.65  31 2.66  39 2.69   5 2.73  13 2.76  43 2.79  19 2.79
                            25 2.79  33 2.80  30 2.85  18 2.98
   4  0.869  0.966  0.407-  60 2.66  17 2.73   1 2.76   9 2.77  11 2.77   6 2.79  12 2.81   2 2.83
                            16 2.84
   5  0.112  0.470  0.414-  39 2.62  33 2.69  16 2.71  12 2.72   3 2.73   7 2.73  10 2.79  25 2.81
                            13 2.95
   6  0.121  0.963  0.411-  52 2.66  22 2.74   4 2.79   9 2.80   8 2.80  10 2.82  16 2.84  14 2.85
                             2 2.86
   7  0.875  0.456  0.417-  81 1.88  39 2.61  75 2.64   5 2.73   9 2.74  15 2.75  29 2.75  10 2.76
                            27 2.84  12 2.86
   8  0.373  0.959  0.413-  43 2.56  52 2.59  61 2.68  13 2.76  27 2.76  14 2.78  11 2.80  10 2.80
                             6 2.80
   9  0.870  0.214  0.409-  75 2.62  60 2.67   7 2.74  15 2.75  17 2.76   4 2.77  22 2.77   6 2.80
                            10 2.86
  10  0.126  0.213  0.413-  39 2.63  43 2.66  22 2.72  13 2.74   7 2.76   5 2.79   8 2.80   6 2.82
                             9 2.86
  11  0.625  0.958  0.412-  61 2.67  12 2.72  19 2.77   4 2.77  13 2.78  27 2.78   1 2.78   8 2.80
                            17 2.81
  12  0.870  0.714  0.414-  81 1.88  29 2.68  33 2.71   5 2.72  11 2.72  16 2.76  27 2.80   4 2.81
                             7 2.86   1 2.87
  13  0.376  0.205  0.415-  43 2.67  10 2.74  19 2.75   8 2.76   3 2.76  11 2.78  25 2.80  17 2.80
                             5 2.95
  14  0.378  0.709  0.411-  44 2.56  52 2.62  27 2.73  15 2.77   8 2.78  30 2.79  25 2.83   6 2.85
                            16 2.88
  15  0.626  0.462  0.415-  44 2.61  75 2.63  18 2.73   9 2.75   7 2.75  27 2.76  14 2.77  17 2.82
                            25 2.88
  16  0.119  0.710  0.416-  33 2.69   5 2.71  30 2.74  12 2.76  25 2.79   4 2.84   6 2.84  14 2.88
                             2 2.98
  17  0.624  0.210  0.412-  18 2.70  60 2.72   4 2.73   9 2.76  13 2.80  19 2.80  11 2.81  25 2.82
                            15 2.82
  18  0.542  0.379  0.314-  67 2.54  68 2.62  26 2.66  17 2.70  15 2.73  44 2.74  60 2.76  25 2.76
                            75 2.79  30 2.88  19 2.89   3 2.98
  19  0.530  0.127  0.310-  80 2.53  68 2.56  59 2.57  43 2.66  13 2.75  11 2.77   1 2.79  61 2.79
                             3 2.79  17 2.80  18 2.89  60 2.91
  20  0.548  0.126  0.056-  37 2.53  57 2.54  48 2.56  62 2.66  63 2.78  56 2.85  34 2.87  47 2.95
                            45 3.10
  21  0.105  0.437  0.124-  47 2.49  40 2.51  36 2.52  42 2.63  70 2.63  69 2.69  31 2.74  64 2.75
                            57 2.77  50 2.80
  22  0.049  0.132  0.311-  77 2.53  65 2.54  55 2.56  43 2.70  10 2.72  39 2.73   6 2.74   9 2.77
                            52 2.82   2 2.88  75 2.90  60 2.91  31 3.31
  23  0.025  0.125  0.040-  40 2.55  41 2.57  70 2.58  62 2.68  24 2.71  76 2.76  45 2.76  35 2.85
                            53 2.93
  24  0.130  0.955  0.138-  79 2.50  35 2.55  77 2.58  53 2.59  55 2.59  70 2.62  58 2.65  23 2.71
                            73 2.74  38 2.78  66 2.83  41 2.96
  25  0.369  0.459  0.414-  18 2.76  30 2.79  16 2.79   3 2.79  13 2.80   5 2.81  17 2.82  14 2.83
                            15 2.88
  26  0.455  0.557  0.222-  74 2.48  73 2.50  51 2.55  79 2.59  44 2.63  30 2.64  18 2.66  32 2.72
                            78 2.73  67 2.85  68 2.91  64 3.02
  27  0.621  0.711  0.415-  81 1.97  44 2.63  61 2.67  14 2.73  15 2.76  29 2.76   8 2.76  11 2.78
                            12 2.80   7 2.84
  28  0.951  0.771  0.212-  58 2.55  50 2.56  66 2.62  42 2.63  33 2.65   1 2.66  49 2.69   2 2.77
                            64 2.78  59 3.09
  29  0.797  0.624  0.316-  42 2.55  32 2.62  49 2.64  39 2.65  12 2.68  75 2.68  33 2.73   7 2.75
                            27 2.76   1 2.81  61 2.81  44 2.84
  30  0.277  0.629  0.312-  79 2.52  26 2.64  33 2.66  64 2.68   2 2.74  16 2.74  25 2.79  14 2.79
                             3 2.85  18 2.88  52 2.90  44 2.94
  31  0.191  0.272  0.226-  70 2.50  57 2.57  43 2.58  55 2.60  39 2.61  65 2.64   3 2.66  21 2.74
                            42 2.81  80 2.88  64 2.89  68 3.08  22 3.31
  32  0.699  0.556  0.222-  69 2.53  54 2.57  51 2.59  49 2.60  29 2.62  44 2.65  78 2.66  75 2.67
                            42 2.71  26 2.72  65 2.74  67 2.77
  33  0.036  0.633  0.315-  28 2.65  64 2.66  30 2.66   5 2.69  16 2.69  42 2.70  12 2.71  29 2.73
                             2 2.77   1 2.80   3 2.80  39 2.81
  34  0.795  0.860  0.060-  50 2.36  48 2.39  66 2.52  36 2.64  63 2.78  35 2.83  20 2.87  62 2.94
                            71 2.95
  35  0.047  0.861  0.053-  36 2.39  24 2.55  66 2.58  58 2.58  72 2.69  34 2.83  23 2.85  53 2.93
                            62 2.95
  36  0.049  0.647  0.061-  35 2.39  58 2.50  21 2.52  50 2.57  34 2.64  72 2.66  47 2.76
  37  0.626  0.239  0.134-  67 2.49  56 2.50  74 2.51  20 2.53  59 2.54  51 2.54  41 2.55  62 2.55
                            68 2.57  66 2.78
  38  0.381  0.951  0.136-  45 2.39  53 2.44  80 2.45  55 2.48  78 2.51  63 2.53  54 2.55  73 2.57
                            48 2.65  57 2.76  24 2.78  70 2.88
  39  0.031  0.384  0.320-  42 2.60  31 2.61   7 2.61   5 2.62  10 2.63  29 2.65  65 2.67   3 2.69
                            75 2.71  22 2.73  33 2.81  43 3.00
  40  0.991  0.368  0.044-  69 2.32  76 2.41  21 2.51  23 2.55  71 2.58  70 2.61  45 3.10
  41  0.864  0.218  0.133-  77 2.41  76 2.42  67 2.52  69 2.54  37 2.55  65 2.56  23 2.57  62 2.59
                            66 2.64  70 2.68  51 2.78  24 2.96
  42  0.952  0.535  0.222-  50 2.47  29 2.55  39 2.60  21 2.63  28 2.63  65 2.64  69 2.64  33 2.70
                            32 2.71  64 2.74  49 2.79  31 2.81
  43  0.299  0.114  0.319-  55 2.51   8 2.56  31 2.58  80 2.59  52 2.65  19 2.66  10 2.66  13 2.67
                            61 2.70  22 2.70   3 2.79  39 3.00
  44  0.542  0.625  0.320-  14 2.56  15 2.61  78 2.63  27 2.63  26 2.63  32 2.65  75 2.69  18 2.74
                            61 2.75  52 2.77  29 2.84  30 2.94
  45  0.281  0.106  0.052-  38 2.39  70 2.42  53 2.44  57 2.60  63 2.70  23 2.76  40 3.10  20 3.10

  46  0.539  0.630  0.048-  51 2.37  73 2.39  54 2.40  71 2.49  53 2.71  72 2.73  56 2.75  76 2.79
                            63 2.82
  47  0.298  0.402  0.056-  74 2.25  21 2.49  72 2.50  56 2.57  57 2.64  36 2.76  20 2.95
  48  0.623  0.941  0.138-  49 2.33  34 2.39  80 2.48  63 2.51  54 2.53  20 2.56  59 2.60  38 2.65
                            50 2.74  57 2.91  66 2.95
  49  0.703  0.787  0.220-  48 2.33  50 2.44  54 2.51   1 2.54  32 2.60  61 2.63  78 2.63  29 2.64
                            28 2.69  80 2.69  42 2.79
  50  0.849  0.681  0.131-  71 2.36  34 2.36  49 2.44  42 2.47  54 2.49  69 2.54  28 2.56  36 2.57
                            48 2.74  21 2.80
  51  0.617  0.470  0.130-  46 2.37  76 2.43  56 2.53  37 2.54  26 2.55  69 2.59  32 2.59  74 2.59
                            67 2.66  73 2.69  54 2.77  41 2.78
  52  0.299  0.877  0.318-  55 2.41  79 2.42  78 2.55   8 2.59  14 2.62  43 2.65   6 2.66  61 2.67
                            44 2.77  22 2.82  30 2.90   2 2.91
  53  0.301  0.878  0.048-  73 2.42  38 2.44  45 2.44  24 2.59  63 2.67  46 2.71  72 2.83  23 2.93
                            35 2.93
  54  0.609  0.722  0.131-  46 2.40  71 2.46  63 2.47  50 2.49  49 2.51  73 2.52  48 2.53  38 2.55
                            78 2.55  32 2.57  51 2.77  69 2.94
  55  0.234  0.021  0.228-  52 2.41  79 2.48  38 2.48  43 2.51  80 2.52  78 2.53  22 2.56  24 2.59
                            31 2.60  70 2.72  77 2.99
  56  0.535  0.386  0.041-  74 2.48  37 2.50  51 2.53  47 2.57  76 2.59  72 2.69  46 2.75  20 2.85

  57  0.365  0.206  0.138-  68 2.52  20 2.54  31 2.57  80 2.59  45 2.60  47 2.64  38 2.76  21 2.77
                            70 2.86  48 2.91
  58  0.163  0.703  0.145-  72 2.42  79 2.43  64 2.44  36 2.50  28 2.55  73 2.57  35 2.58  24 2.65
                            74 2.68
  59  0.694  0.064  0.219-  66 2.45  37 2.54  19 2.57  60 2.57  48 2.60   1 2.61  68 2.65  67 2.77
                            77 2.85  80 2.87  28 3.09
  60  0.788  0.132  0.311-  77 2.49  67 2.50  59 2.57   4 2.66   9 2.67  17 2.72  18 2.76   2 2.81
                             1 2.83  75 2.86  19 2.91  22 2.91
  61  0.541  0.872  0.316-  78 2.45  80 2.50  49 2.63  27 2.67  52 2.67  11 2.67   8 2.68  43 2.70
                            44 2.75   1 2.78  19 2.79  29 2.81
  62  0.785  0.126  0.043-  66 2.50  37 2.55  41 2.59  76 2.65  20 2.66  23 2.68  34 2.94  35 2.95

  63  0.537  0.883  0.044-  54 2.47  48 2.51  38 2.53  53 2.67  45 2.70  34 2.78  20 2.78  46 2.82
                            71 2.86
  64  0.202  0.525  0.219-  58 2.44   3 2.54  74 2.63  33 2.66  30 2.68  68 2.69  42 2.74  21 2.75
                            28 2.78  31 2.89  26 3.02
  65  0.940  0.305  0.225-  69 2.47  75 2.54  22 2.54  41 2.56  67 2.57  77 2.57  70 2.62  42 2.64
                            31 2.64  39 2.67  32 2.74
  66  0.865  0.981  0.137-  59 2.45  77 2.50  62 2.50  34 2.52  35 2.58  28 2.62  41 2.64  37 2.78
                            24 2.83  48 2.95
  67  0.711  0.303  0.226-  37 2.49  60 2.50  41 2.52  18 2.54  65 2.57  75 2.57  77 2.59  51 2.66
                            32 2.77  59 2.77  26 2.85
  68  0.453  0.297  0.222-  74 2.45  57 2.52  19 2.56  37 2.57  18 2.62  59 2.65   3 2.65  64 2.69
                            26 2.91  31 3.08
  69  0.859  0.448  0.132-  40 2.32  71 2.45  65 2.47  76 2.48  32 2.53  41 2.54  50 2.54  51 2.59
                            42 2.64  21 2.69  70 2.82  54 2.94
  70  0.113  0.198  0.134-  45 2.42  31 2.50  23 2.58  40 2.61  24 2.62  65 2.62  21 2.63  41 2.68
                            55 2.72  69 2.82  57 2.86  38 2.88
  71  0.771  0.610  0.046-  50 2.36  69 2.45  54 2.46  46 2.49  40 2.58  76 2.67  63 2.86  34 2.95

  72  0.296  0.627  0.052-  58 2.42  74 2.47  73 2.49  47 2.50  36 2.66  56 2.69  35 2.69  46 2.73
                            53 2.83
  73  0.384  0.719  0.133-  46 2.39  53 2.42  72 2.49  26 2.50  54 2.52  79 2.53  58 2.57  38 2.57
                            78 2.57  51 2.69  24 2.74  74 2.90
  74  0.393  0.455  0.135-  47 2.25  68 2.45  72 2.47  56 2.48  26 2.48  37 2.51  51 2.59  64 2.63
                            58 2.68  73 2.90
  75  0.787  0.389  0.318-  65 2.54  67 2.57   9 2.62  15 2.63   7 2.64  32 2.67  29 2.68  44 2.69
                            39 2.71  18 2.79  60 2.86  22 2.90
  76  0.775  0.368  0.045-  40 2.41  41 2.42  51 2.43  69 2.48  56 2.59  62 2.65  71 2.67  23 2.76
                            46 2.79
  77  0.945  0.072  0.222-  41 2.41  60 2.49  66 2.50  22 2.53  65 2.57   2 2.58  24 2.58  67 2.59
                            59 2.85  55 2.99
  78  0.463  0.796  0.227-  61 2.45  38 2.51  80 2.52  79 2.53  55 2.53  54 2.55  52 2.55  73 2.57
                            44 2.63  49 2.63  32 2.66  26 2.73
  79  0.235  0.799  0.228-  52 2.42  58 2.43  55 2.48  24 2.50  30 2.52  78 2.53   2 2.53  73 2.53
                            26 2.59
  80  0.459  0.025  0.225-  38 2.45  48 2.48  61 2.50  78 2.52  55 2.52  19 2.53  57 2.59  43 2.59
                            49 2.69  59 2.87  31 2.88
  81  0.796  0.624  0.460-   7 1.88  12 1.88  27 1.97
 
  LATTYP: Found a hexagonal cell.
 ALAT       =    11.1599998474
 C/A-ratio  =     1.9713261918
  
  Lattice vectors:
  
 A1 = (   5.5799999237,  -9.6648433741,   0.0000000000)
 A2 = ( -11.1599998474,   0.0000000000,   0.0000000000)
 A3 = (   0.0000000000,   0.0000000000, -22.0000000000)


Analysis of symmetry for initial positions (statically):
=====================================================================
 Subroutine PRICEL returns:
 Original cell was already a primitive cell.
 

 Routine SETGRP: Setting up the symmetry group for a 
 hexagonal supercell.


 Subroutine GETGRP returns: Found  1 space group operations
 (whereof  1 operations were pure point group operations)
 out of a pool of 24 trial point group operations.


The static configuration has the point symmetry C_1 .


Analysis of symmetry for dynamics (positions and initial velocities):
=====================================================================
 Subroutine PRICEL returns:
 Original cell was already a primitive cell.
 

 Routine SETGRP: Setting up the symmetry group for a 
 hexagonal supercell.


 Subroutine GETGRP returns: Found  1 space group operations
 (whereof  1 operations were pure point group operations)
 out of a pool of 24 trial point group operations.


The dynamic configuration has the point symmetry C_1 .


Analysis of constrained symmetry for selective dynamics:
=====================================================================
 Subroutine PRICEL returns:
 Original cell was already a primitive cell.
 

 Routine SETGRP: Setting up the symmetry group for a 
 hexagonal supercell.


 Subroutine GETGRP returns: Found  1 space group operations
 (whereof  1 operations were pure point group operations)
 out of a pool of 24 trial point group operations.


The constrained configuration has the point symmetry C_1 .


Analysis of structural, dynamic, and magnetic symmetry:
=====================================================================
 Subroutine PRICEL returns:
 Original cell was already a primitive cell.
 

 Routine SETGRP: Setting up the symmetry group for a 
 hexagonal supercell.


 Subroutine GETGRP returns: Found  1 space group operations
 (whereof  1 operations were pure point group operations)
 out of a pool of 24 trial point group operations.


The magnetic configuration has the point symmetry C_1 .


 Subroutine INISYM returns: Found  1 space group operations
 (whereof  1 operations are pure point group operations),
 and found     1 'primitive' translations

 
 
 KPOINTS: mesh auto                               

Automatic generation of k-mesh.
Space group operators:
 irot       det(A)        alpha          n_x          n_y          n_z        tau_x        tau_y        tau_z
    1     1.000000     0.000000     1.000000     0.000000     0.000000     0.000000     0.000000     0.000000
 
 Subroutine IBZKPT returns following result:
 ===========================================
 
 Found      4 irreducible k-points:
 
 Following reciprocal coordinates:
            Coordinates               Weight
  0.000000  0.000000  0.000000      1.000000
  0.500000  0.000000  0.000000      1.000000
  0.000000  0.500000  0.000000      1.000000
  0.500000  0.500000  0.000000      1.000000
 
 Following cartesian coordinates:
            Coordinates               Weight
  0.000000  0.000000  0.000000      1.000000
  0.044803 -0.025867  0.000000      1.000000
  0.000000  0.051734  0.000000      1.000000
  0.044803  0.025867  0.000000      1.000000
 


--------------------------------------------------------------------------------------------------------




 Dimension of arrays:
   k-points           NKPTS =      4   k-points in BZ     NKDIM =      4   number of bands    NBANDS=    588
   number of dos      NEDOS =    301   number of ions     NIONS =     81
   non local maximal  LDIM  =      6   non local SUM 2l+1 LMDIM =     18
   total plane-waves  NPLWV = ******
   max r-space proj   IRMAX =   8018   max aug-charges    IRDMAX=  34929
   dimension x,y,z NGX =    90 NGY =   90 NGZ =  168
   dimension x,y,z NGXF=   180 NGYF=  180 NGZF=  336
   support grid    NGXF=   180 NGYF=  180 NGZF=  336
   ions per type =              32  13  10  13  12   1
   NGX,Y,Z   is equivalent  to a cutoff of  13.41, 13.41, 12.70 a.u.
   NGXF,Y,Z  is equivalent  to a cutoff of  26.81, 26.81, 25.39 a.u.

 SYSTEM =  Pt111                                   
 POSCAR =  11.16                                   

 Startparameter for this run:
   NWRITE =      2    write-flag & timer
   PREC   = accura    normal or accurate (medium, high low for compatibility)
   ISTART =      0    job   : 0-new  1-cont  2-samecut
   ICHARG =      2    charge: 1-file 2-atom 10-const
   ISPIN  =      2    spin polarized calculation?
   LNONCOLLINEAR =      F non collinear calculations
   LSORBIT =      F    spin-orbit coupling
   INIWAV =      1    electr: 0-lowe 1-rand  2-diag
   LASPH  =      F    aspherical Exc in radial PAW
   METAGGA=      F    non-selfconsistent MetaGGA calc.

 Electronic Relaxation 1
   ENCUT  =  550.0 eV  40.42 Ry    6.36 a.u.  21.34 21.34 42.07*2*pi/ulx,y,z
   ENINI  =  550.0     initial cutoff
   ENAUG  =  587.0 eV  augmentation charge cutoff
   NELM   =    200;   NELMIN=  2; NELMDL= -5     # of ELM steps 
   EDIFF  = 0.1E-04   stopping-criterion for ELM
   LREAL  =      T    real-space projection
   NLSPLINE    = F    spline interpolate recip. space projectors
   LCOMPAT=      F    compatible to vasp.4.4
   GGA_COMPAT  = T    GGA compatible to vasp.4.4-vasp.4.6
   LMAXPAW     = -100 max onsite density
   LMAXMIX     =    2 max onsite mixed and CHGCAR
   VOSKOWN=      0    Vosko Wilk Nusair interpolation
   ROPT   =   -0.00025  -0.00025  -0.00025  -0.00025
   ROPT   =   -0.00025  -0.00025
 Ionic relaxation
   EDIFFG = -.5E-01   stopping-criterion for IOM
   NSW    =    300    number of steps for IOM
   NBLOCK =      1;   KBLOCK =    300    inner block; outer block 
   IBRION =      2    ionic relax: 0-MD 1-quasi-New 2-CG
   NFREE  =      1    steps in history (QN), initial steepest desc. (CG)
   ISIF   =      2    stress and relaxation
   IWAVPR =     11    prediction:  0-non 1-charg 2-wave 3-comb
   ISYM   =      2    0-nonsym 1-usesym 2-fastsym
   LCORR  =      T    Harris-Foulkes like correction to forces

   POTIM  = 0.5000    time-step for ionic-motion
   TEIN   =    0.0    initial temperature
   TEBEG  =    0.0;   TEEND  =   0.0 temperature during run
   SMASS  =  -3.00    Nose mass-parameter (am)
   estimated Nose-frequenzy (Omega)   =  0.10E-29 period in steps =****** mass=  -0.285E-26a.u.
   SCALEE = 1.0000    scale energy and forces
   NPACO  =    256;   APACO  = 16.0  distance and # of slots for P.C.
   PSTRESS=    0.0 pullay stress

  Mass of Ions in am
   POMASS = 195.08 55.85 58.93 63.55 58.69  1.00
  Ionic Valenz
   ZVAL   =  10.00  8.00  9.00 11.00 10.00  1.00
  Atomic Wigner-Seitz radii
   RWIGS  =  -1.00 -1.00 -1.00 -1.00 -1.00 -1.00
  virtual crystal weights 
   VCA    =   1.00  1.00  1.00  1.00  1.00  1.00
   NELECT =     778.0000    total number of electrons
   NUPDOWN=      -1.0000    fix difference up-down

 DOS related values:
   EMIN   =  10.00;   EMAX   =-10.00  energy-range for DOS
   EFERMI =   0.00
   ISMEAR =     1;   SIGMA  =   0.10  broadening in eV -4-tet -1-fermi 0-gaus

 Electronic relaxation 2 (details)
   IALGO  =     68    algorithm
   LDIAG  =      T    sub-space diagonalisation (order eigenvalues)
   LSUBROT=      F    optimize rotation matrix (better conditioning)
   TURBO    =      0    0=normal 1=particle mesh
   IRESTART =      0    0=no restart 2=restart with 2 vectors
   NREBOOT  =      0    no. of reboots
   NMIN     =      0    reboot dimension
   EREF     =   0.00    reference energy to select bands
   IMIX   =      4    mixing-type and parameters
     AMIX     =   0.40;   BMIX     =  1.00
     AMIX_MAG =   1.60;   BMIX_MAG =  1.00
     AMIN     =   0.10
     WC   =   100.;   INIMIX=   1;  MIXPRE=   1;  MAXMIX= -45

 Intra band minimization:
   WEIMIN = 0.0010     energy-eigenvalue tresh-hold
   EBREAK =  0.43E-08  absolut break condition
   DEPER  =   0.30     relativ break condition  

   TIME   =   0.40     timestep for ELM

  volume/ion in A,a.u.               =      29.30       197.69
  Fermi-wavevector in a.u.,A,eV,Ry     =   1.128862  2.133240 17.338300  1.274329
  Thomas-Fermi vector in A             =   2.265553
 
 Write flags
   LWAVE        =      F    write WAVECAR
   LDOWNSAMPLE  =      F    k-point downsampling of WAVECAR
   LCHARG       =      F    write CHGCAR
   LVTOT        =      F    write LOCPOT, total local potential
   LVHAR        =      F    write LOCPOT, Hartree potential only
   LELF         =      F    write electronic localiz. function (ELF)
   LORBIT       =      0    0 simple, 1 ext, 2 COOP (PROOUT), +10 PAW based schemes


 Dipole corrections
   LMONO  =      F    monopole corrections only (constant potential shift)
   LDIPOL =      F    correct potential (dipole corrections)
   IDIPOL =      0    1-x, 2-y, 3-z, 4-all directions 
   EPSILON=  1.0000000 bulk dielectric constant

 Exchange correlation treatment:
   GGA     =    --    GGA type
   LEXCH   =     8    internal setting for exchange type
   VOSKOWN=      0    Vosko Wilk Nusair interpolation
   LHFCALC =     F    Hartree Fock is set to
   LHFONE  =     F    Hartree Fock one center treatment
   AEXX    =    0.0000 exact exchange contribution

 Linear response parameters
   LEPSILON=     F    determine dielectric tensor
   LRPA    =     F    only Hartree local field effects (RPA)
   LNABLA  =     F    use nabla operator in PAW spheres
   LVEL    =     F    velocity operator in full k-point grid
   LINTERFAST=   F  fast interpolation
   KINTER  =     0    interpolate to denser k-point grid
   CSHIFT  =0.1000    complex shift for real part using Kramers Kronig
   OMEGAMAX=  -1.0    maximum frequency
   DEG_THRESHOLD= 0.2000000E-02 threshold for treating states as degnerate
   RTIME   =   -0.100 relaxation time in fs
  (WPLASMAI=    0.000 imaginary part of plasma frequency in eV, 0.658/RTIME)
   DFIELD  = 0.0000000 0.0000000 0.0000000 field for delta impulse in time
 
 Orbital magnetization related:
   ORBITALMAG=     F  switch on orbital magnetization
   LCHIMAG   =     F  perturbation theory with respect to B field
   DQ        =  0.001000  dq finite difference perturbation B field
   LLRAUG    =     F  two centre corrections for induced B field



--------------------------------------------------------------------------------------------------------


 conjugate gradient relaxation of ions
   using selective dynamics as specified on POSCAR
 charge density and potential will be updated during run
 spin polarized calculation
 RMM-DIIS sequential band-by-band and
  variant of blocked Davidson during initial phase
 perform sub-space diagonalisation
    before iterative eigenvector-optimisation
 modified Broyden-mixing scheme, WC =      100.0
 initial mixing is a Kerker type mixing with AMIX =  0.4000 and BMIX =      1.0000
 Hartree-type preconditioning will be used
 using additional bands          199
 real space projection scheme for non local part
 use partial core corrections
 calculate Harris-corrections to forces 
   (improved forces if not selfconsistent)
 use gradient corrections 
 use of overlap-Matrix (Vanderbilt PP)
 Methfessel and Paxton  Order N= 1 SIGMA  =   0.10


--------------------------------------------------------------------------------------------------------


  energy-cutoff  :      550.00
  volume of cell :     2372.91
      direct lattice vectors                 reciprocal lattice vectors
    11.159999847  0.000000000  0.000000000     0.089605736 -0.051733896  0.000000000
     5.579999924  9.664843374  0.000000000     0.000000000  0.103467792  0.000000000
     0.000000000  0.000000000 22.000000000     0.000000000  0.000000000  0.045454545

  length of vectors
    11.159999847 11.159999847 22.000000000     0.103467792  0.103467792  0.045454545


 
 k-points in units of 2pi/SCALE and weight: mesh auto                               
   0.00000000  0.00000000  0.00000000       0.250
   0.04480287 -0.02586695  0.00000000       0.250
   0.00000000  0.05173390  0.00000000       0.250
   0.04480287  0.02586695  0.00000000       0.250
 
 k-points in reciprocal lattice and weights: mesh auto                               
   0.00000000  0.00000000  0.00000000       0.250
   0.50000000  0.00000000  0.00000000       0.250
   0.00000000  0.50000000  0.00000000       0.250
   0.50000000  0.50000000  0.00000000       0.250
 
 position of ions in fractional coordinates (direct lattice) 
   0.78410929  0.88122113  0.30659795
   0.03840304  0.87960006  0.30284749
   0.27732428  0.37398042  0.31387666
   0.86879861  0.96608509  0.40745927
   0.11229087  0.47013948  0.41430908
   0.12073658  0.96288658  0.41053626
   0.87477397  0.45590393  0.41685433
   0.37349944  0.95936649  0.41333800
   0.86951628  0.21353289  0.40914837
   0.12621755  0.21312327  0.41312316
   0.62489269  0.95750485  0.41198925
   0.86973501  0.71434514  0.41422466
   0.37554557  0.20541597  0.41513450
   0.37761744  0.70868748  0.41127941
   0.62590870  0.46150495  0.41453403
   0.11921802  0.70952428  0.41568669
   0.62414497  0.20959581  0.41151627
   0.54168697  0.37946542  0.31395151
   0.53035131  0.12660560  0.31046538
   0.54793603  0.12559094  0.05562120
   0.10504726  0.43654782  0.12441709
   0.04891118  0.13217946  0.31082942
   0.02529082  0.12493247  0.04047369
   0.13026485  0.95528544  0.13817680
   0.36938322  0.45920297  0.41417582
   0.45509049  0.55651272  0.22154554
   0.62060076  0.71102090  0.41479308
   0.95094057  0.77081544  0.21154233
   0.79688309  0.62378000  0.31591142
   0.27694840  0.62942757  0.31204279
   0.19082330  0.27236719  0.22566964
   0.69919994  0.55613805  0.22166573
   0.03629339  0.63336247  0.31517552
   0.79467647  0.85972118  0.06032101
   0.04722771  0.86083187  0.05262433
   0.04859995  0.64677341  0.06148323
   0.62562354  0.23868534  0.13390052
   0.38129809  0.95058438  0.13575460
   0.03143427  0.38431543  0.32011046
   0.99126956  0.36841850  0.04402170
   0.86350131  0.21842123  0.13306086
   0.95183731  0.53532270  0.22231013
   0.29911720  0.11420082  0.31900411
   0.54188813  0.62476552  0.31991619
   0.28073741  0.10572062  0.05217040
   0.53898716  0.62972570  0.04826805
   0.29843692  0.40217147  0.05639190
   0.62299507  0.94105548  0.13847503
   0.70309498  0.78725245  0.22023275
   0.84927807  0.68065811  0.13125409
   0.61676727  0.47016329  0.13003533
   0.29855928  0.87742599  0.31799098
   0.30104323  0.87798772  0.04776903
   0.60856387  0.72205278  0.13067254
   0.23442975  0.02118691  0.22845648
   0.53458295  0.38611139  0.04113969
   0.36549861  0.20554464  0.13827492
   0.16323487  0.70328636  0.14532740
   0.69430872  0.06353648  0.21923850
   0.78813215  0.13226489  0.31125350
   0.54073756  0.87174229  0.31618972
   0.78467988  0.12564699  0.04279190
   0.53720865  0.88323237  0.04365230
   0.20177430  0.52532489  0.21944794
   0.93965768  0.30525856  0.22474547
   0.86501396  0.98099372  0.13695687
   0.71102907  0.30256943  0.22580825
   0.45342655  0.29690968  0.22156689
   0.85908571  0.44811144  0.13181704
   0.11348559  0.19767859  0.13378399
   0.77114523  0.60971805  0.04620503
   0.29563368  0.62728335  0.05225088
   0.38421747  0.71875814  0.13293049
   0.39253970  0.45501358  0.13517071
   0.78672471  0.38852826  0.31837949
   0.77506619  0.36811979  0.04526885
   0.94496148  0.07237666  0.22177850
   0.46334471  0.79628971  0.22743685
   0.23540543  0.79883680  0.22766226
   0.45873779  0.02460247  0.22481212
   0.79633391  0.62351058  0.45978570
 
 position of ions in cartesian coordinates  (Angst):
  13.66787336  8.51686418  6.74515493
   5.33674618  8.50119686  6.66264481
   5.18174962  3.61446219  6.90528655
  15.08654704  9.33706104  8.96410384
   3.87654438  4.54382445  9.11479982
   6.72032727  9.30614797  9.03179772
  12.30642124  4.40624009  9.17079522
   9.52151862  9.27212682  9.09343595
  10.89531507  2.06376194  9.00126411
   2.59781571  2.05980304  9.08870950
  12.31667931  9.25413437  9.06376356
  13.69228846  6.90403394  9.11294260
   5.33730961  1.98531315  9.13295904
   8.16868671  6.84935353  9.04814697
   9.56033856  4.46037306  9.11974864
   5.28961844  6.85744100  9.14510719
   8.13500243  2.02571069  9.05335790
   8.16264348  3.66747381  6.90693323
   6.62517977  1.22362329  6.83023844
   6.81576348  1.21381676  1.22366642
   3.60826420  4.21916628  2.73717594
   1.28341012  1.27749377  6.83824733
   0.97936869  1.20745277  0.89042116
   6.78424835  9.23268414  3.03988958
   6.68466922  4.43812475  9.11186815
   8.18415069  5.37860823  4.87400199
  10.89340098  6.87190562  9.12544778
  14.91364670  7.44981051  4.65393115
  12.37390749  6.02873601  6.95005133
   6.60294983  6.08331883  6.86494135
   3.64939690  2.63238621  4.96473217
  10.90632152  5.37498713  4.87664604
   3.93919679  6.12134910  6.93386149
  13.66583347  8.30907059  1.32706224
   5.33050299  8.31980515  1.15773524
   4.15137100  6.25096369  1.35263108
   8.31382275  2.30685640  2.94581151
   9.55954743  9.18724919  2.98660111
   2.49528650  3.71434842  7.04243004
  13.11834335  3.56070709  0.96847749
  10.85546493  2.11100698  2.92733883
  13.60960483  5.17381000  4.89082288
   3.97538851  1.10373308  7.01809042
   9.53366302  6.03826090  7.03815618
   3.72295046  1.02177321  1.14774882
   9.52896595  6.08620024  1.06189717
   5.57467270  3.88692427  1.24062180
  12.20371438  9.09515381  3.04645062
  12.23940849  7.60867166  4.84512043
  13.27601528  6.57845401  2.88758994
   9.50663376  4.54405451  2.86077715
   8.22795853  8.48018480  6.99580163
   8.25881386  8.48561383  1.05091857
  10.82062721  6.97852707  2.87479592
   2.73445892  0.20476814  5.02604247
   8.12044716  3.73170614  0.90507316
   5.22590351  1.98655677  3.04204822
   5.74603891  6.79715252  3.19720269
   8.10301876  0.61407012  4.82324696
   9.53359279  1.27831948  6.84757704
  10.89895295  8.42525268  6.95617375
   9.45813751  1.21435845  0.94142187
  10.92368507  8.53630257  0.96035051
   5.18311405  5.07718277  4.82785464
  12.18992233  2.95027613  4.94440032
  15.12750054  9.48115063  3.01305103
   9.62342168  2.92428613  4.96778154
   6.71699620  2.86958551  4.87447167
  12.08785820  4.33092689  2.89997481
   2.36954570  1.91053259  2.94324780
  12.00820732  5.89282942  1.01651062
   6.79951286  6.06259537  1.14951932
   8.29853726  6.94668484  2.92447067
   6.91971874  4.39763498  2.97375560
  10.94783532  3.75506482  7.00434875
  10.70384693  3.55782008  0.99591470
  10.94963169  0.69950908  4.87912702
   9.61422348  7.69601536  5.00361061
   7.08463382  7.72063255  5.00856972
   5.25679540  0.23777902  4.94586657
  12.36627530  6.02613206 10.11528542
 


--------------------------------------------------------------------------------------------------------


 k-point  1 :   0.0000 0.0000 0.0000  plane waves:   69505
 k-point  2 :   0.5000 0.0000 0.0000  plane waves:   69454
 k-point  3 :   0.0000 0.5000 0.0000  plane waves:   69454
 k-point  4 :   0.5000 0.5000 0.0000  plane waves:   69454

 maximum and minimum number of plane-waves per node :     17422    17318

 maximum number of plane-waves:     69505
 maximum index in each direction: 
   IXMAX=   21   IYMAX=   21   IZMAX=   42
   IXMIN=  -21   IYMIN=  -21   IZMIN=  -42


 real space projection operators:
  total allocation   :      79976.11 KBytes
  max/ min on nodes  :      20455.83      19525.50


 parallel 3D FFT for wavefunctions:
    minimum data exchange during FFTs selected (reduces bandwidth)
 parallel 3D FFT for charge:
    minimum data exchange during FFTs selected (reduces bandwidth)


 total amount of memory used by VASP MPI-rank0   251625. kBytes
=======================================================================

   base      :      30000. kBytes
   nonlr-proj:      36168. kBytes
   fftplans  :      18294. kBytes
   grid      :      55120. kBytes
   one-center:        653. kBytes
   wavefun   :     111390. kBytes
 
     INWAV:  cpu time    0.0000: real time    0.0004
 Broyden mixing: mesh for mixing (old mesh)
   NGX = 43   NGY = 43   NGZ = 85
  (NGX  =180   NGY  =180   NGZ  =336)
  gives a total of 157165 points

 initial charge density was supplied:
 charge density of overlapping atoms calculated
 number of electron     778.0000000 magnetization     231.0000000
 keeping initial charge density in first step


--------------------------------------------------------------------------------------------------------


 Maximum index for non-local projection operator         2138
 Maximum index for augmentation-charges         1127 (set IRDMAX)


--------------------------------------------------------------------------------------------------------


 First call to EWALD:  gamma=   0.133
 Maximum number of real-space cells 4x 4x 2
 Maximum number of reciprocal cells 2x 2x 4

    FEWALD:  cpu time    0.0052: real time    0.0052


--------------------------------------- Iteration      1(   1)  ---------------------------------------


    POTLOK:  cpu time    0.4761: real time    0.5664
    SETDIJ:  cpu time    0.0360: real time    0.0362
     EDDAV:  cpu time   70.4879: real time   70.8076
       DOS:  cpu time    0.0025: real time    0.0349
    --------------------------------------------
      LOOP:  cpu time   71.0027: real time   71.4454

 eigenvalue-minimisations  :  9408
 total energy-change (2. order) : 0.7561610E+04  (-0.3274028E+05)
 number of electron     778.0000000 magnetization     231.0000000
 augmentation part      778.0000000 magnetization     231.0000000

 Free energy of the ion-electron system (eV)
  ---------------------------------------------------
  alpha Z        PSCENC =      2004.68801245
  Ewald energy   TEWEN  =    221731.71503457
  -Hartree energ DENC   =   -293276.69325025
  -exchange      EXHF   =         0.00000000
  -V(xc)+E(xc)   XCENC  =      1373.07562947
  PAW double counting   =     64136.80006862   -66038.70876209
  entropy T*S    EENTRO =        -0.00765168
  eigenvalues    EBANDS =      7412.08602377
  atomic energy  EATOM  =     70218.65458108
  Solvation  Ediel_sol  =         0.00000000
  ---------------------------------------------------
  free energy    TOTEN  =      7561.60968594 eV

  energy without entropy =     7561.61733762  energy(sigma->0) =     7561.61223650


--------------------------------------------------------------------------------------------------------




--------------------------------------- Iteration      1(   2)  ---------------------------------------


     EDDAV:  cpu time   70.5081: real time   70.7283
       DOS:  cpu time    0.0027: real time    0.0167
    --------------------------------------------
      LOOP:  cpu time   70.5108: real time   70.7450

 eigenvalue-minimisations  :  9408
 total energy-change (2. order) :-0.6816474E+04  (-0.6118220E+04)
 number of electron     778.0000000 magnetization     231.0000000
 augmentation part      778.0000000 magnetization     231.0000000

 Free energy of the ion-electron system (eV)
  ---------------------------------------------------
  alpha Z        PSCENC =      2004.68801245
  Ewald energy   TEWEN  =    221731.71503457
  -Hartree energ DENC   =   -293276.69325025
  -exchange      EXHF   =         0.00000000
  -V(xc)+E(xc)   XCENC  =      1373.07562947
  PAW double counting   =     64136.80006862   -66038.70876209
  entropy T*S    EENTRO =        -0.00162188
  eigenvalues    EBANDS =       595.60561781
  atomic energy  EATOM  =     70218.65458108
  Solvation  Ediel_sol  =         0.00000000
  ---------------------------------------------------
  free energy    TOTEN  =       745.13530978 eV

  energy without entropy =      745.13693166  energy(sigma->0) =      745.13585041


--------------------------------------------------------------------------------------------------------




--------------------------------------- Iteration      1(   3)  ---------------------------------------


     EDDAV:  cpu time   70.3572: real time   70.5652
       DOS:  cpu time    0.0028: real time    0.0065
    --------------------------------------------
      LOOP:  cpu time   70.3600: real time   70.5716

 eigenvalue-minimisations  :  9420
 total energy-change (2. order) :-0.1121236E+04  (-0.9096224E+03)
 number of electron     778.0000000 magnetization     231.0000000
 augmentation part      778.0000000 magnetization     231.0000000

 Free energy of the ion-electron system (eV)
  ---------------------------------------------------
  alpha Z        PSCENC =      2004.68801245
  Ewald energy   TEWEN  =    221731.71503457
  -Hartree energ DENC   =   -293276.69325025
  -exchange      EXHF   =         0.00000000
  -V(xc)+E(xc)   XCENC  =      1373.07562947
  PAW double counting   =     64136.80006862   -66038.70876209
  entropy T*S    EENTRO =         0.00045758
  eigenvalues    EBANDS =      -525.63198286
  atomic energy  EATOM  =     70218.65458108
  Solvation  Ediel_sol  =         0.00000000
  ---------------------------------------------------
  free energy    TOTEN  =      -376.10021143 eV

  energy without entropy =     -376.10066901  energy(sigma->0) =     -376.10036396


--------------------------------------------------------------------------------------------------------




--------------------------------------- Iteration      1(   4)  ---------------------------------------


     EDDAV:  cpu time   85.0778: real time   85.3180
       DOS:  cpu time    0.0030: real time    0.0058
    --------------------------------------------
      LOOP:  cpu time   85.0807: real time   85.3239

 eigenvalue-minimisations  : 12000
 total energy-change (2. order) :-0.1118183E+03  (-0.1016834E+03)
 number of electron     778.0000000 magnetization     231.0000000
 augmentation part      778.0000000 magnetization     231.0000000

 Free energy of the ion-electron system (eV)
  ---------------------------------------------------
  alpha Z        PSCENC =      2004.68801245
  Ewald energy   TEWEN  =    221731.71503457
  -Hartree energ DENC   =   -293276.69325025
  -exchange      EXHF   =         0.00000000
  -V(xc)+E(xc)   XCENC  =      1373.07562947
  PAW double counting   =     64136.80006862   -66038.70876209
  entropy T*S    EENTRO =         0.00187317
  eigenvalues    EBANDS =      -637.45164850
  atomic energy  EATOM  =     70218.65458108
  Solvation  Ediel_sol  =         0.00000000
  ---------------------------------------------------
  free energy    TOTEN  =      -487.91846148 eV

  energy without entropy =     -487.92033465  energy(sigma->0) =     -487.91908587


--------------------------------------------------------------------------------------------------------




--------------------------------------- Iteration      1(   5)  ---------------------------------------


     EDDAV:  cpu time   81.2779: real time   81.5657
       DOS:  cpu time    0.0031: real time    0.0056
    CHARGE:  cpu time    4.5685: real time    4.5811
    MIXING:  cpu time    0.0119: real time    0.0121
    --------------------------------------------
      LOOP:  cpu time   85.8614: real time   86.1645

 eigenvalue-minimisations  : 11304
 total energy-change (2. order) :-0.4316908E+01  (-0.4279807E+01)
 number of electron     778.0000013 magnetization     216.6744866
 augmentation part      335.7084469 magnetization     183.6185537

 Broyden mixing:
  rms(total) = 0.11166E+02    rms(broyden)= 0.11166E+02
  rms(prec ) = 0.11560E+02
  weight for this iteration     100.00

 Free energy of the ion-electron system (eV)
  ---------------------------------------------------
  alpha Z        PSCENC =      2004.68801245
  Ewald energy   TEWEN  =    221731.71503457
  -Hartree energ DENC   =   -293276.69325025
  -exchange      EXHF   =         0.00000000
  -V(xc)+E(xc)   XCENC  =      1373.07562947
  PAW double counting   =     64136.80006862   -66038.70876209
  entropy T*S    EENTRO =         0.00238463
  eigenvalues    EBANDS =      -641.76906780
  atomic energy  EATOM  =     70218.65458108
  Solvation  Ediel_sol  =         0.00000000
  ---------------------------------------------------
  free energy    TOTEN  =      -492.23536933 eV

  energy without entropy =     -492.23775396  energy(sigma->0) =     -492.23616421


--------------------------------------------------------------------------------------------------------




--------------------------------------- Iteration      1(   6)  ---------------------------------------


    POTLOK:  cpu time    0.4591: real time    0.4797
    SETDIJ:  cpu time    0.0352: real time    0.0354
    EDDIAG:  cpu time   12.5702: real time   12.6150
  RMM-DIIS:  cpu time   44.0375: real time   44.1899
    ORTHCH:  cpu time    1.4088: real time    1.4130
       DOS:  cpu time    0.0024: real time    0.0024
    CHARGE:  cpu time    4.4458: real time    4.4575
    MIXING:  cpu time    0.0120: real time    0.0125
    --------------------------------------------
      LOOP:  cpu time   62.9710: real time   63.2054

 eigenvalue-minimisations  :  9702
 total energy-change (2. order) :-0.2687537E+03  (-0.1042756E+03)
 number of electron     778.0000020 magnetization     213.1831457
 augmentation part      407.6962860 magnetization     177.8166381

 Broyden mixing:
  rms(total) = 0.21582E+02    rms(broyden)= 0.21582E+02
  rms(prec ) = 0.28454E+02
  weight for this iteration     100.00

 eigenvalues of (default mixing * dielectric matrix)
  average eigenvalue GAMMA=   0.1866
  0.1866

 Free energy of the ion-electron system (eV)
  ---------------------------------------------------
  alpha Z        PSCENC =      2004.68801245
  Ewald energy   TEWEN  =    221731.71503457
  -Hartree energ DENC   =   -291672.78109293
  -exchange      EXHF   =         0.00000000
  -V(xc)+E(xc)   XCENC  =      1332.24972680
  PAW double counting   =     68328.48258037   -70003.29081686
  entropy T*S    EENTRO =        -0.01168595
  eigenvalues    EBANDS =     -2700.69545821
  atomic energy  EATOM  =     70218.65458108
  Solvation  Ediel_sol  =         0.00000000
  ---------------------------------------------------
  free energy    TOTEN  =      -760.98911869 eV

  energy without entropy =     -760.97743273  energy(sigma->0) =     -760.98522337


--------------------------------------------------------------------------------------------------------




--------------------------------------- Iteration      1(   7)  ---------------------------------------


    POTLOK:  cpu time    0.4613: real time    0.4745
    SETDIJ:  cpu time    0.0356: real time    0.0356
    EDDIAG:  cpu time   12.5977: real time   12.6347
  RMM-DIIS:  cpu time   42.8265: real time   42.9609
    ORTHCH:  cpu time    1.4001: real time    1.4315
       DOS:  cpu time    0.0027: real time    0.0027
    CHARGE:  cpu time    4.4476: real time    4.4635
    MIXING:  cpu time    0.0126: real time    0.0128
    --------------------------------------------
      LOOP:  cpu time   61.7840: real time   62.0163

 eigenvalue-minimisations  :  9432
 total energy-change (2. order) : 0.2857741E+03  (-0.1597891E+02)
 number of electron     778.0000020 magnetization     208.3976576
 augmentation part      375.5810084 magnetization     164.3428046

 Broyden mixing:
  rms(total) = 0.13736E+02    rms(broyden)= 0.13736E+02
  rms(prec ) = 0.17393E+02
  weight for this iteration     100.00

 eigenvalues of (default mixing * dielectric matrix)
  average eigenvalue GAMMA=   0.2594
  0.3427  0.1761

 Free energy of the ion-electron system (eV)
  ---------------------------------------------------
  alpha Z        PSCENC =      2004.68801245
  Ewald energy   TEWEN  =    221731.71503457
  -Hartree energ DENC   =   -292319.65697969
  -exchange      EXHF   =         0.00000000
  -V(xc)+E(xc)   XCENC  =      1349.83943015
  PAW double counting   =     69227.79096779   -71049.69755459
  entropy T*S    EENTRO =         0.00503089
  eigenvalues    EBANDS =     -1638.55354326
  atomic energy  EATOM  =     70218.65458108
  Solvation  Ediel_sol  =         0.00000000
  ---------------------------------------------------
  free energy    TOTEN  =      -475.21502060 eV

  energy without entropy =     -475.22005150  energy(sigma->0) =     -475.21669757


--------------------------------------------------------------------------------------------------------




--------------------------------------- Iteration      1(   8)  ---------------------------------------


    POTLOK:  cpu time    0.4610: real time    0.4634
    SETDIJ:  cpu time    0.0353: real time    0.0355
    EDDIAG:  cpu time   12.6181: real time   12.6533
  RMM-DIIS:  cpu time   42.8322: real time   43.0401
    ORTHCH:  cpu time    1.4343: real time    1.4384
       DOS:  cpu time    0.0026: real time    0.0026
    CHARGE:  cpu time    4.3464: real time    4.3581
    MIXING:  cpu time    0.0137: real time    0.0139
    --------------------------------------------
      LOOP:  cpu time   61.7434: real time   62.0052

 eigenvalue-minimisations  :  9431
 total energy-change (2. order) : 0.1148179E+02  (-0.1540104E+02)
 number of electron     778.0000012 magnetization     201.1145178
 augmentation part      376.4836242 magnetization     162.7561060

 Broyden mixing:
  rms(total) = 0.15779E+02    rms(broyden)= 0.15779E+02
  rms(prec ) = 0.18432E+02
  weight for this iteration     100.00

 eigenvalues of (default mixing * dielectric matrix)
  average eigenvalue GAMMA=   0.3190
  0.6000  0.2699  0.0871

 Free energy of the ion-electron system (eV)
  ---------------------------------------------------
  alpha Z        PSCENC =      2004.68801245
  Ewald energy   TEWEN  =    221731.71503457
  -Hartree energ DENC   =   -292512.96084305
  -exchange      EXHF   =         0.00000000
  -V(xc)+E(xc)   XCENC  =      1358.00575846
  PAW double counting   =     70364.47721020   -72267.63594726
  entropy T*S    EENTRO =         0.00129578
  eigenvalues    EBANDS =     -1360.67832852
  atomic energy  EATOM  =     70218.65458108
  Solvation  Ediel_sol  =         0.00000000
  ---------------------------------------------------
  free energy    TOTEN  =      -463.73322630 eV

  energy without entropy =     -463.73452208  energy(sigma->0) =     -463.73365823


--------------------------------------------------------------------------------------------------------




--------------------------------------- Iteration      1(   9)  ---------------------------------------


    POTLOK:  cpu time    0.4482: real time    0.4749
    SETDIJ:  cpu time    0.0357: real time    0.0358
    EDDIAG:  cpu time   12.6001: real time   12.6886
  RMM-DIIS:  cpu time   42.9901: real time   43.1043
    ORTHCH:  cpu time    1.4158: real time    1.4208
       DOS:  cpu time    0.0026: real time    0.0026
    CHARGE:  cpu time    4.3958: real time    4.4077
    MIXING:  cpu time    0.0132: real time    0.0133
    --------------------------------------------
      LOOP:  cpu time   61.9014: real time   62.1481

 eigenvalue-minimisations  :  9444
 total energy-change (2. order) : 0.5792509E+02  (-0.1666166E+02)
 number of electron     778.0000014 magnetization     193.7662428
 augmentation part      378.8531392 magnetization     145.3993544

 Broyden mixing:
  rms(total) = 0.13191E+02    rms(broyden)= 0.13191E+02
  rms(prec ) = 0.14966E+02
  weight for this iteration     100.00

 eigenvalues of (default mixing * dielectric matrix)
  average eigenvalue GAMMA=   0.3479
  0.8061  0.3618  0.1120  0.1120

 Free energy of the ion-electron system (eV)
  ---------------------------------------------------
  alpha Z        PSCENC =      2004.68801245
  Ewald energy   TEWEN  =    221731.71503457
  -Hartree energ DENC   =   -292348.81947791
  -exchange      EXHF   =         0.00000000
  -V(xc)+E(xc)   XCENC  =      1376.08700343
  PAW double counting   =     71666.00907734   -73627.98865430
  entropy T*S    EENTRO =         0.00379816
  eigenvalues    EBANDS =     -1426.15750790
  atomic energy  EATOM  =     70218.65458108
  Solvation  Ediel_sol  =         0.00000000
  ---------------------------------------------------
  free energy    TOTEN  =      -405.80813310 eV

  energy without entropy =     -405.81193125  energy(sigma->0) =     -405.80939915


--------------------------------------------------------------------------------------------------------




--------------------------------------- Iteration      1(  10)  ---------------------------------------


    POTLOK:  cpu time    0.4600: real time    0.4625
    SETDIJ:  cpu time    0.0353: real time    0.0354
    EDDIAG:  cpu time   12.5699: real time   12.6062
  RMM-DIIS:  cpu time   42.9634: real time   43.1369
    ORTHCH:  cpu time    1.3884: real time    1.4072
       DOS:  cpu time    0.0028: real time    0.0028
[...]
   -.140E+02 0.428E+02 -.271E+04   0.144E+02 -.426E+02 0.271E+04   -.357E+00 -.227E+00 0.145E+01   -.459E-02 0.188E-01 0.153E-01
   -.237E+02 -.345E+01 -.273E+04   0.233E+02 0.403E+01 0.273E+04   0.329E+00 -.542E+00 0.253E+01   0.198E-01 -.254E-01 0.851E-01
   0.315E+02 0.404E+01 -.272E+04   -.315E+02 -.455E+01 0.272E+04   -.913E-01 0.475E+00 0.200E+01   0.235E-01 0.421E-02 0.855E-02
   -.338E+02 0.139E+01 -.280E+04   0.341E+02 -.274E+01 0.280E+04   -.185E+00 0.140E+01 0.191E+01   -.416E-01 -.252E-01 0.362E-01
   0.240E+02 -.281E+02 -.281E+04   -.245E+02 0.283E+02 0.281E+04   0.484E+00 -.184E+00 0.284E+01   0.844E-02 -.282E-02 -.699E-02
   -.250E+02 0.443E+02 -.277E+04   0.247E+02 -.438E+02 0.276E+04   0.268E+00 -.514E+00 0.201E+01   -.118E-01 -.153E-01 0.347E-01
   -.278E+01 0.404E+01 -.275E+04   0.346E+01 -.356E+01 0.275E+04   -.653E+00 -.413E+00 0.262E+01   0.882E-02 -.442E-01 0.408E-01
   -.377E+02 -.756E+01 -.277E+04   0.380E+02 0.759E+01 0.276E+04   -.339E+00 -.879E-01 0.178E+01   -.344E-01 0.207E-01 0.228E-01
   -.483E+02 -.108E+02 -.272E+04   0.485E+02 0.108E+02 0.272E+04   -.230E+00 -.367E-01 0.121E+01   -.797E-02 0.353E-01 0.205E-02
   -.579E+01 -.477E+02 -.277E+04   0.540E+01 0.469E+02 0.277E+04   0.393E+00 0.901E+00 0.200E+01   0.600E-02 -.292E-01 0.126E-01
   0.626E+02 0.232E+02 -.275E+04   -.615E+02 -.229E+02 0.275E+04   -.115E+01 -.387E+00 0.233E+01   0.380E-01 0.219E-01 -.839E-02
   0.426E+02 -.584E+01 -.280E+04   -.423E+02 0.607E+01 0.279E+04   -.218E+00 -.217E+00 0.259E+01   -.203E-01 0.102E-01 0.154E-01
   -.389E+01 -.925E+01 -.272E+04   0.349E+01 0.864E+01 0.271E+04   0.385E+00 0.577E+00 0.194E+01   0.214E-01 0.260E-01 0.684E-01
   0.325E+02 -.639E+01 -.277E+04   -.322E+02 0.653E+01 0.277E+04   -.271E+00 -.138E+00 0.209E+01   -.118E-01 -.104E-01 0.210E-01
   0.850E+02 -.559E+02 -.146E+04   -.838E+02 0.561E+02 0.146E+04   -.117E+01 -.244E+00 0.149E+01   0.264E-01 -.145E-01 -.523E-01
   0.123E+02 -.347E+02 -.140E+04   -.134E+02 0.343E+02 0.140E+04   0.116E+01 0.411E+00 0.240E+01   -.134E-01 -.303E-01 -.248E-01
   0.867E+02 0.254E+02 0.276E+04   -.860E+02 -.258E+02 -.276E+04   -.817E+00 0.409E+00 -.305E+01   0.494E-01 -.591E-01 -.239E-01
   -.521E+02 -.516E+02 0.171E+04   0.512E+02 0.521E+02 -.171E+04   0.109E+01 -.392E+00 0.157E+01   -.122E+00 0.957E-02 -.849E-01
   -.398E+02 0.231E+02 -.140E+04   0.406E+02 -.228E+02 0.140E+04   -.819E+00 -.295E+00 0.220E+01   0.164E-02 0.352E-02 0.717E-02
   -.740E+02 0.987E+02 0.291E+04   0.746E+02 -.973E+02 -.291E+04   -.534E+00 -.160E+01 -.257E+01   -.337E-01 0.645E-01 -.399E-01
   0.613E+02 -.437E+02 0.146E+04   -.610E+02 0.431E+02 -.146E+04   -.321E+00 0.564E+00 -.709E+00   -.180E-01 0.567E-01 -.179E+00
   0.151E+02 -.221E+01 -.275E+04   -.155E+02 0.236E+01 0.275E+04   0.389E+00 -.156E+00 0.189E+01   0.245E-01 -.375E-02 0.286E-01
   0.406E+02 0.290E+02 -.616E+02   -.406E+02 -.285E+02 0.611E+02   -.329E+00 -.439E+00 0.583E+00   0.136E+00 -.902E-01 -.131E+00
   -.110E+02 0.126E+02 -.279E+04   0.963E+01 -.123E+02 0.279E+04   0.140E+01 -.398E+00 0.209E+01   -.456E-01 0.303E-01 -.899E-02
   -.157E+02 0.151E+02 0.220E+03   0.147E+02 -.169E+02 -.219E+03   0.116E+01 0.176E+01 -.455E+00   -.563E-01 0.579E-01 -.112E+00
   -.889E+02 -.848E+01 -.144E+04   0.897E+02 0.719E+01 0.143E+04   -.632E+00 0.129E+01 0.288E+01   -.987E-01 0.572E-01 -.187E-01
   0.514E+02 0.213E+02 -.141E+04   -.519E+02 -.205E+02 0.140E+04   0.370E+00 -.760E+00 0.195E+01   0.589E-01 -.348E-01 0.233E-01
   -.347E+02 -.776E+02 -.423E+02   0.338E+02 0.773E+02 0.427E+02   0.929E+00 0.400E+00 -.237E+00   0.184E-01 -.464E-01 -.697E-01
   -.471E+02 -.221E+02 -.161E+02   0.477E+02 0.227E+02 0.159E+02   -.465E+00 -.679E+00 0.464E+00   -.850E-01 -.166E-01 -.181E+00
   0.151E+02 -.100E+01 -.110E+04   -.150E+02 0.892E+00 0.110E+04   -.843E-01 0.175E+00 0.246E+00   0.233E-02 0.445E-02 -.144E-01
   -.736E+02 0.364E+02 0.220E+04   0.746E+02 -.372E+02 -.220E+04   -.957E+00 0.857E+00 -.313E+01   -.359E-01 -.248E-01 -.283E-01
   0.588E+02 0.389E+01 0.226E+04   -.593E+02 -.547E+01 -.226E+04   0.542E+00 0.165E+01 -.298E+01   0.344E-02 0.144E-01 -.589E-01
   0.980E+02 0.336E+02 0.217E+04   -.970E+02 -.323E+02 -.217E+04   -.969E+00 -.144E+01 -.239E+01   -.556E-01 0.512E-01 -.569E-01
   0.686E+02 0.916E+02 0.119E+04   -.678E+02 -.909E+02 -.119E+04   -.941E+00 -.757E+00 -.345E-01   0.787E-01 0.586E-01 -.547E-01
   0.797E+01 -.106E+03 0.120E+04   -.788E+01 0.106E+03 -.120E+04   -.201E+00 0.542E+00 -.637E+00   0.488E-01 -.494E-01 -.986E-01
   -.670E+02 -.262E+02 -.117E+04   0.672E+02 0.265E+02 0.117E+04   -.186E+00 -.254E+00 0.126E+00   0.442E-02 -.502E-01 -.109E-02
   -.243E+03 -.151E+02 0.236E+04   0.241E+03 0.147E+02 -.236E+04   0.271E+01 0.424E+00 -.412E+01   -.122E+00 0.342E-01 -.295E-01
   -.378E+02 0.762E+02 0.122E+04   0.370E+02 -.758E+02 -.122E+04   0.913E+00 -.537E+00 -.587E+00   -.333E-01 0.102E+00 -.105E+00
   -.988E+02 -.196E+02 0.459E+01   0.985E+02 0.200E+02 -.423E+01   0.270E+00 -.484E+00 -.281E+00   -.621E-01 0.893E-02 -.117E+00
   0.126E+02 -.888E+02 -.119E+04   -.128E+02 0.888E+02 0.119E+04   0.178E+00 0.127E+00 0.525E+00   0.341E-01 -.279E-01 0.369E-02
   0.274E+02 0.135E+02 -.120E+04   -.274E+02 -.137E+02 0.120E+04   -.118E-02 0.207E+00 -.427E+00   0.136E-01 -.381E-02 -.254E-01
   -.548E+02 -.143E+03 0.228E+04   0.532E+02 0.140E+03 -.228E+04   0.169E+01 0.291E+01 -.344E+01   -.327E-01 -.390E-01 -.464E-01
   0.195E+02 -.473E+02 0.265E+04   -.195E+02 0.477E+02 -.265E+04   -.839E-01 -.298E+00 -.310E+01   0.713E-01 -.887E-01 -.180E-01
   0.237E+03 0.784E+02 0.255E+04   -.237E+03 -.767E+02 -.254E+04   -.892E+00 -.174E+01 -.295E+01   0.298E-01 0.151E-01 -.454E-01
   -.951E+02 -.636E+02 0.131E+04   0.943E+02 0.627E+02 -.131E+04   0.837E+00 0.101E+01 -.178E-01   -.865E-02 -.286E-01 -.658E-01
   -.127E+03 0.202E+02 0.314E+02   0.127E+03 -.201E+02 -.315E+02   -.350E-01 -.165E+00 0.259E+00   -.500E-01 0.270E-01 -.105E+00
   -.192E+03 -.116E+02 0.140E+04   0.192E+03 0.122E+02 -.140E+04   -.225E+00 -.705E+00 -.645E-02   -.929E-01 -.167E-03 -.140E+00
   -.781E+01 0.540E+01 0.132E+04   0.787E+01 -.575E+01 -.132E+04   -.152E+00 0.377E+00 -.313E+00   0.759E-01 0.520E-01 -.205E+00
   0.690E+02 0.124E+02 -.138E+04   -.689E+02 -.123E+02 0.138E+04   -.297E+00 -.130E+00 0.488E+00   0.103E+00 0.135E-01 0.675E-01
   0.879E+02 -.628E+02 0.263E+04   -.871E+02 0.631E+02 -.262E+04   -.931E+00 -.228E+00 -.317E+01   0.576E-01 -.956E-01 -.721E-01
   -.658E+02 -.160E+02 0.136E+04   0.659E+02 0.164E+02 -.136E+04   -.812E-01 -.361E+00 -.546E+00   -.525E-01 -.122E+00 -.195E+00
   0.520E+02 -.103E+03 -.298E+02   -.513E+02 0.103E+03 0.302E+02   -.755E+00 0.489E+00 -.471E+00   0.569E-01 0.346E-01 -.227E-01
   0.105E+03 0.651E+02 0.328E+04   -.105E+03 -.642E+02 -.327E+04   -.107E-01 -.101E+01 -.436E+01   0.283E+00 0.123E+00 0.934E-02
   0.480E+02 -.303E+02 0.166E+04   -.485E+02 0.298E+02 -.166E+04   0.458E+00 0.696E+00 0.272E+00   0.261E-01 -.878E-01 -.159E-01
   0.227E+03 -.381E+02 0.143E+04   -.227E+03 0.387E+02 -.143E+04   0.197E+00 -.580E+00 0.288E+00   -.222E-01 0.467E-02 -.178E+00
   0.346E+02 0.113E+03 0.138E+03   -.353E+02 -.113E+03 -.138E+03   0.696E+00 -.488E+00 -.215E+00   -.222E-01 0.270E-01 -.929E-01
   0.926E+01 0.856E+02 -.158E+04   -.875E+01 -.857E+02 0.158E+04   -.491E+00 0.343E-01 0.642E+00   -.180E-01 0.389E-02 -.591E-01
   -.641E+02 0.223E+02 -.164E+04   0.635E+02 -.223E+02 0.164E+04   0.721E+00 -.494E-01 0.140E+01   -.294E-01 0.211E-01 -.297E-01
   0.454E+02 0.178E+03 0.320E+04   -.451E+02 -.178E+03 -.320E+04   -.337E+00 -.271E+00 -.372E+01   0.452E-01 0.847E-01 -.244E-01
   -.851E+02 -.102E+03 0.324E+04   0.839E+02 0.102E+03 -.324E+04   0.115E+01 -.336E+00 -.411E+01   -.391E-01 -.161E+00 -.309E-01
   0.134E+03 -.113E+02 0.718E+02   -.135E+03 0.113E+02 -.708E+02   0.402E+00 -.266E-02 -.101E+01   0.337E-01 -.484E-01 -.905E-01
   -.151E+03 -.164E+02 -.283E+02   0.150E+03 0.160E+02 0.288E+02   0.506E+00 0.427E+00 -.357E+00   -.942E-01 0.300E-02 -.154E+00
   0.151E+02 0.177E+03 0.162E+04   -.151E+02 -.176E+03 -.162E+04   0.112E+00 -.948E+00 -.119E+01   -.296E-01 0.479E-01 -.101E+00
   0.543E+02 -.411E+02 -.138E+02   -.538E+02 0.400E+02 0.140E+02   -.450E+00 0.124E+01 -.145E+00   -.488E-02 0.523E-01 -.174E+00
   0.899E+02 -.472E+00 0.263E+02   -.892E+02 0.437E+00 -.257E+02   -.833E+00 0.491E-01 -.623E+00   0.639E-01 -.426E-01 -.646E-01
   -.145E+03 -.263E+02 0.148E+04   0.144E+03 0.266E+02 -.148E+04   0.489E+00 -.326E+00 -.669E+00   -.169E+00 0.243E-01 -.201E+00
   -.764E+02 -.991E+00 0.153E+04   0.770E+02 0.632E+00 -.153E+04   -.510E+00 0.319E+00 -.648E+00   -.656E-01 0.339E-01 -.122E+00
   -.215E+03 -.698E+02 0.295E+04   0.214E+03 0.693E+02 -.294E+04   0.645E+00 0.538E+00 -.313E+01   -.190E+00 -.517E-01 -.271E-01
   0.131E+03 -.730E+02 0.291E+04   -.131E+03 0.731E+02 -.290E+04   0.809E+00 -.151E+00 -.132E+01   0.189E+00 0.642E-01 -.814E-01
   0.388E+02 -.431E+02 0.150E+04   -.386E+02 0.432E+02 -.150E+04   -.338E+00 0.145E+00 0.700E-01   0.189E+00 -.136E+00 -.261E+00
   0.133E+03 0.291E+02 0.142E+04   -.132E+03 -.291E+02 -.142E+04   -.101E+01 0.225E-01 -.761E+00   0.210E+00 0.420E-02 -.336E-01
   -.340E+02 -.352E+02 -.151E+04   0.341E+02 0.354E+02 0.151E+04   -.380E-01 -.296E+00 -.851E-02   -.864E-01 -.562E-02 -.498E-01
   -.462E+02 0.258E+02 0.292E+04   0.464E+02 -.253E+02 -.292E+04   -.265E+00 -.599E+00 -.179E+01   -.487E-01 0.157E+00 0.208E-01
   -.428E+02 0.159E+03 0.592E+02   0.432E+02 -.159E+03 -.586E+02   -.345E+00 -.121E+00 -.651E+00   -.498E-01 0.761E-01 -.869E-01
   -.125E+02 0.470E+02 -.742E+02   0.123E+02 -.462E+02 0.742E+02   0.108E+00 -.856E+00 -.373E-01   0.105E+00 -.475E-01 -.564E-01
   0.151E+03 -.104E+02 -.107E+03   -.151E+03 0.112E+02 0.107E+03   -.234E+00 -.754E+00 -.441E+00   0.486E-01 -.374E-02 -.406E-01
   -.422E+02 -.107E+03 0.256E+02   0.418E+02 0.106E+03 -.255E+02   0.314E+00 0.469E+00 -.134E+00   0.463E-01 -.254E-01 -.492E-01
   -.450E+00 -.839E+00 -.322E+03   0.231E+00 0.876E+00 0.323E+03   0.205E+00 -.236E-01 -.132E+01   -.336E-02 -.931E-04 0.846E-02
 -----------------------------------------------------------------------------------------------
   -.386E+01 -.893E-01 0.868E+01   0.349E-13 0.391E-12 0.116E-10   0.365E+01 0.636E-01 -.473E+01   0.196E+00 0.330E-01 -.395E+01
 
 
 POSITION                                       TOTAL-FORCE (eV/Angst)
 -----------------------------------------------------------------------------------
     13.66798      8.50309      6.76183        -0.004517      0.016153     -0.016614
      5.33401      8.50632      6.64402         0.003329      0.001763     -0.005579
      5.18511      3.61646      6.90347         0.013739      0.006332      0.000697
     15.12869      9.31565      8.98236        -0.015539      0.004535     -0.000083
      3.90620      4.51542      9.12753         0.007104     -0.003305     -0.005458
      6.71794      9.26070      8.98557         0.008819     -0.002770      0.010621
     12.29019      4.36998      9.21172        -0.004895      0.002213     -0.010083
      9.50577      9.27490      9.09810         0.001834      0.002727      0.003295
     10.90438      2.04054      9.00429        -0.008753      0.002309     -0.005353
      2.58964      2.05291      9.09050         0.006201      0.005528     -0.006933
     12.32145      9.30162      9.06628        -0.005158      0.005063      0.000176
     13.72176      6.93848      9.15142         0.015490      0.000259     -0.013686
      5.32618      1.98774      9.12964         0.004584      0.000287      0.010312
      8.13983      6.88169      9.05391         0.002148     -0.003392     -0.005883
      9.51122      4.44174      9.11098         0.007489      0.002078     -0.007897
      5.29683      6.89363      9.07047         0.004518     -0.012890     -0.006466
      8.13773      2.01793      9.05516        -0.007863      0.005101     -0.002526
      8.15276      3.65213      6.90009         0.001348      0.007441      0.005913
      6.63019      1.21837      6.82857         0.003467      0.010346     -0.005801
      6.81576      1.21382      1.22367         0.013997     -0.021059      0.000415
      3.60826      4.21917      2.73718        -0.010568      0.009683      0.005952
      1.28361      1.29133      6.83141         0.000423      0.003243     -0.001819
      0.97937      1.20745      0.89042        -0.007314      0.026020      0.003267
      6.78425      9.23268      3.03989         0.006003      0.005025      0.033100
      6.68508      4.47174      9.11508        -0.009010     -0.000890     -0.004951
      8.18415      5.37861      4.87400         0.008870      0.016235     -0.020439
     10.85471      6.89590      9.16501        -0.011085     -0.006299     -0.001039
     14.91365      7.44981      4.65393        -0.007515     -0.004041      0.021088
     12.36895      6.02300      6.96588         0.002365     -0.008083     -0.000394
      6.61915      6.07607      6.85367        -0.005221     -0.008418      0.005183
      3.64940      2.63239      4.96473        -0.035456     -0.000030     -0.030052
     10.90632      5.37499      4.87665         0.020545     -0.005305      0.037957
      3.95119      6.11596      6.94168         0.011714     -0.008367     -0.003872
     13.66583      8.30907      1.32706        -0.020371     -0.005591     -0.003940
      5.33050      8.31981      1.15774        -0.001932     -0.008579     -0.009712
      4.15137      6.25096      1.35263        -0.006845     -0.014219     -0.008113
      8.31382      2.30686      2.94581        -0.008883     -0.004646      0.008453
      9.55955      9.18725      2.98660        -0.002847      0.012707     -0.000181
      2.50302      3.72012      7.05121        -0.001611     -0.002451     -0.007706
     13.11834      3.56071      0.96848        -0.009255      0.003231      0.008762
     10.85546      2.11101      2.92734         0.001576     -0.009035      0.008613
     13.60960      5.17381      4.89082        -0.016379      0.007009      0.060028
      3.97873      1.10326      7.01527        -0.002909      0.002093      0.004936
      9.53861      6.03264      7.04788        -0.005925     -0.013833     -0.001614
      3.72295      1.02177      1.14775         0.011182      0.008487      0.005858
      9.52897      6.08620      1.06190         0.013418     -0.019185     -0.010798
      5.57467      3.88692      1.24062        -0.004792      0.033285     -0.013009
     12.20371      9.09515      3.04645         0.009643     -0.012467      0.033946
     12.23941      7.60867      4.84512         0.001800      0.006636      0.045110
     13.27602      6.57845      2.88759        -0.011811     -0.001546      0.011718
      9.50663      4.54405      2.86078        -0.016394     -0.013372      0.029788
      8.21862      8.49052      6.98702         0.010963      0.001839     -0.011257
      8.25881      8.48561      1.05092        -0.014354      0.029308     -0.019308
     10.82063      6.97853      2.87480         0.016705     -0.000523      0.010101
      2.73446      0.20477      5.02604         0.010992      0.011665     -0.000150
      8.12045      3.73171      0.90507        -0.014805     -0.018430     -0.001069
      5.22590      1.98656      3.04205         0.002334      0.023292     -0.008082
      5.74604      6.79715      3.19720         0.004183     -0.008774      0.018264
      8.10302      0.61407      4.82325         0.011345     -0.037397      0.016055
      9.53264      1.27314      6.85562         0.001582     -0.000652     -0.007455
     10.90219      8.41792      6.96598        -0.003303      0.008001     -0.015823
      9.45814      1.21436      0.94142         0.006727      0.005407      0.011703
     10.92369      8.53630      0.96035         0.021601     -0.000542     -0.002221
      5.18311      5.07718      4.82785        -0.002387      0.012327     -0.031942
     12.18992      2.95028      4.94440         0.016239      0.017715      0.002842
     15.12750      9.48115      3.01305         0.012286      0.011352      0.010566
      9.62342      2.92429      4.96778         0.026447     -0.018710     -0.012759
      6.71700      2.86959      4.87447        -0.025184     -0.046360     -0.046689
     12.08786      4.33093      2.89997         0.001178     -0.004909     -0.008275
      2.36955      1.91053      2.94325         0.009864     -0.013821     -0.004199
     12.00821      5.89283      1.01651        -0.005666     -0.002991     -0.008715
      6.79951      6.06260      1.14952         0.020549     -0.022095      0.013601
      8.29854      6.94668      2.92447         0.006270      0.031900      0.016142
      6.91972      4.39763      2.97376         0.003268     -0.008527     -0.005537
     10.94965      3.75843      7.01072        -0.016169     -0.008433     -0.009455
     10.70385      3.55782      0.99591        -0.022977     -0.003800     -0.007622
     10.94963      0.69951      4.87913        -0.006905     -0.009007     -0.033887
      9.61422      7.69602      5.00361        -0.000466      0.000434      0.017928
      7.08463      7.72063      5.00857         0.001493      0.021966     -0.015868
      5.25680      0.23778      4.94587         0.008482     -0.000398      0.007395
     12.38387      6.04527      9.98982        -0.019048      0.014143     -0.019472
 -----------------------------------------------------------------------------------
    total drift:                               -0.020441      0.007265      0.001799


--------------------------------------------------------------------------------------------------------



  FREE ENERGIE OF THE ION-ELECTRON SYSTEM (eV)
  ---------------------------------------------------
  free  energy   TOTEN  =      -502.73724251 eV

  energy  without entropy=     -502.74797988  energy(sigma->0) =     -502.74082163
 
 d Force = 0.9441389E-03[ 0.355E-03, 0.153E-02]  d Energy = 0.9118033E-03 0.323E-04
 d Force =-0.3450694E+02[-0.345E+02,-0.345E+02]  d Ewald  =-0.3450695E+02 0.783E-05


--------------------------------------------------------------------------------------------------------


    POTLOK:  cpu time    0.4902: real time    0.4927


--------------------------------------------------------------------------------------------------------


 Conjugate gradient step on ions:
 trial-energy change:   -0.000912  1 .order   -0.000944   -0.001533   -0.000355
  (g-gl).g = 0.841E-03      g.g   = 0.845E-03  gl.gl    = 0.158E-02
 g(Force)  = 0.845E-03   g(Stress)= 0.000E+00 ortho     =-0.270E-04
 gamma     =   0.53167
 trial     =   1.84607
 opt step  =   2.40189  (harmonic =   2.40189) maximal distance =0.00511511
 next E    =  -502.737328   (d E  =  -0.00100)


--------------------------------------------------------------------------------------------------------


  
 reached required accuracy - stopping structural energy minimisation
     LOOP+:  cpu time  645.5641: real time  648.6366
    4ORBIT:  cpu time    0.0000: real time    0.0000

 total amount of memory used by VASP MPI-rank0   251625. kBytes
=======================================================================

   base      :      30000. kBytes
   nonlr-proj:      36168. kBytes
   fftplans  :      18294. kBytes
   grid      :      55120. kBytes
   one-center:        653. kBytes
   wavefun   :     111390. kBytes
 
  
  
 General timing and accounting informations for this job:
 ========================================================
  
                  Total CPU time used (sec):    15991.692
                            User time (sec):    15537.617
                          System time (sec):      454.076
                         Elapsed time (sec):    16088.233
  
                   Maximum memory used (kb):      411520.
                   Average memory used (kb):           0.
  
                          Minor page faults:     18221990
                          Major page faults:          220
                 Voluntary context switches:        12072
