 vasp.5.4.4.18Apr17-6-g9f103f2a35 (build Oct 25 2019 11:13:22) complex          
  
 executed on             LinuxIFC date 2022.02.04  18:01:48
 running on   48 total cores
 distrk:  each k-point on   48 cores,    1 groups
 distr:  one band on NCORES_PER_BAND=   1 cores,   48 groups


--------------------------------------------------------------------------------------------------------


 INCAR:
 POTCAR:    PAW_PBE Pt 04Feb2005                  
 POTCAR:    PAW_PBE Fe 06Sep2000                  
 POTCAR:    PAW_PBE Co 02Aug2007                  
 POTCAR:    PAW_PBE Cu 22Jun2005                  
 POTCAR:    PAW_PBE Ni 02Aug2007                  
 POTCAR:    PAW_PBE H 15Jun2001                   

 ----------------------------------------------------------------------------- 
|                                                                             |
|           W    W    AA    RRRRR   N    N  II  N    N   GGGG   !!!           |
|           W    W   A  A   R    R  NN   N  II  NN   N  G    G  !!!           |
|           W    W  A    A  R    R  N N  N  II  N N  N  G       !!!           |
|           W WW W  AAAAAA  RRRRR   N  N N  II  N  N N  G  GGG   !            |
|           WW  WW  A    A  R   R   N   NN  II  N   NN  G    G                |
|           W    W  A    A  R    R  N    N  II  N    N   GGGG   !!!           |
|                                                                             |
|      For optimal performance we recommend to set                            |
|        NCORE= 4 - approx SQRT( number of cores)                             |
|      NCORE specifies how many cores store one orbital (NPAR=cpu/NCORE).     |
|      This setting can  greatly improve the performance of VASP for DFT.     |
|      The default,   NCORE=1            might be grossly inefficient         |
|      on modern multi-core architectures or massively parallel machines.     |
|      Do your own testing !!!!                                               |
|      Unfortunately you need to use the default for GW and RPA calculations. |
|      (for HF NCORE is supported but not extensively tested yet)             |
|                                                                             |
 ----------------------------------------------------------------------------- 

 POTCAR:    PAW_PBE Pt 04Feb2005                  
   VRHFIN =Pt: s1d9                                                             
   LEXCH  = PE                                                                  
   EATOM  =   729.1176 eV,   53.5886 Ry                                         
                                                                                
   TITEL  = PAW_PBE Pt 04Feb2005                                                
   LULTRA =        F    use ultrasoft PP ?                                      
   IUNSCR =        1    unscreen: 0-lin 1-nonlin 2-no                           
   RPACOR =    2.330    partial core radius                                     
   POMASS =  195.080; ZVAL   =   10.000    mass and valenz                      
   RCORE  =    2.600    outmost cutoff radius                                   
   RWIGS  =    2.750; RWIGS  =    1.455    wigner-seitz radius (au A)           
   ENMAX  =  230.283; ENMIN  =  172.712 eV                                      
   ICORE  =        3    local potential                                         
   LCOR   =        T    correct aug charges                                     
   LPAW   =        T    paw PP                                                  
   EAUG   =  358.966                                                            
   DEXC   =    0.000                                                            
   RMAX   =    2.658    core radius for proj-oper                               
   RAUG   =    1.300    factor for augmentation sphere                          
   RDEP   =    2.761    radius for radial grids                                 
   RDEPT  =    2.203    core radius for aug-charge                              
                                                                                
   Atomic configuration                                                         
   16 entries                                                                   
     n  l   j            E        occ.                                          
     1  0  0.50    -78401.1885   2.0000                                         
     2  0  0.50    -13770.7750   2.0000                                         
     2  1  1.50    -11931.0468   6.0000                                         
     3  0  0.50     -3234.7234   2.0000                                         
     3  1  1.50     -2699.2216   6.0000                                         
     3  2  2.50     -2119.5714  10.0000                                         
     4  0  0.50      -695.1528   2.0000                                         
     4  1  1.50      -519.6034   6.0000                                         
     4  2  2.50      -306.6786  10.0000                                         
     4  3  3.50       -70.1041  14.0000                                         
     5  0  0.50      -101.7747   2.0000                                         
     5  1  1.50       -55.9873   6.0000                                         
     5  2  2.50        -6.1423   9.0000                                         
     6  0  0.50        -5.6573   1.0000                                         
     6  1  1.50        -6.8029   0.0000                                         
     5  3  2.50        -1.3606   0.0000                                         
   Description                                                                  
     l       E           TYP  RCUT    TYP  RCUT                                 
     2     -6.1423404     23  2.500                                             
     2     -7.5029230     23  2.500                                             
     0     -5.6573207     23  2.500                                             
     0      0.7416693     23  2.500                                             
     1     -2.7211652     23  2.600                                             
     1     20.4087390     23  2.600                                             
     3     -1.3605826     23  2.500                                             
  local pseudopotential read in
  partial core-charges read in
  partial kinetic energy density read in
  atomic valenz-charges read in
  non local Contribution for L=           2  read in
    real space projection operators read in
  non local Contribution for L=           2  read in
    real space projection operators read in
  non local Contribution for L=           0  read in
    real space projection operators read in
  non local Contribution for L=           0  read in
    real space projection operators read in
  non local Contribution for L=           1  read in
    real space projection operators read in
  non local Contribution for L=           1  read in
    real space projection operators read in
    PAW grid and wavefunctions read in
 
   number of l-projection  operators is LMAX  =           6
   number of lm-projection operators is LMMAX =          18
 
 POTCAR:    PAW_PBE Fe 06Sep2000                  
   VRHFIN =Fe:  d7 s1                                                           
   LEXCH  = PE                                                                  
   EATOM  =   594.3153 eV,   43.6809 Ry                                         
                                                                                
   TITEL  = PAW_PBE Fe 06Sep2000                                                
   LULTRA =        F    use ultrasoft PP ?                                      
   IUNSCR =        1    unscreen: 0-lin 1-nonlin 2-no                           
   RPACOR =    2.000    partial core radius                                     
   POMASS =   55.847; ZVAL   =    8.000    mass and valenz                      
   RCORE  =    2.300    outmost cutoff radius                                   
   RWIGS  =    2.460; RWIGS  =    1.302    wigner-seitz radius (au A)           
   ENMAX  =  267.882; ENMIN  =  200.911 eV                                      
   RCLOC  =    1.701    cutoff for local pot                                    
   LCOR   =        T    correct aug charges                                     
   LPAW   =        T    paw PP                                                  
   EAUG   =  511.368                                                            
   DEXC   =    0.000                                                            
   RMAX   =    2.356    core radius for proj-oper                               
   RAUG   =    1.300    factor for augmentation sphere                          
   RDEP   =    2.442    radius for radial grids                                 
   RDEPT  =    1.890    core radius for aug-charge                              
                                                                                
   Atomic configuration                                                         
    9 entries                                                                   
     n  l   j            E        occ.                                          
     1  0  0.50     -6993.8440   2.0000                                         
     2  0  0.50      -814.6047   2.0000                                         
     2  1  1.50      -693.3689   6.0000                                         
     3  0  0.50       -89.4732   2.0000                                         
     3  1  1.50       -55.6373   6.0000                                         
     3  2  2.50        -3.8151   7.0000                                         
     4  0  0.50        -4.2551   1.0000                                         
     4  1  1.50        -3.4015   0.0000                                         
     4  3  2.50        -1.3606   0.0000                                         
   Description                                                                  
     l       E           TYP  RCUT    TYP  RCUT                                 
     2     -3.8151135     23  2.300                                             
     2     -5.1756961     23  2.300                                             
     0     -4.2550963     23  2.300                                             
     0      7.2035603     23  2.300                                             
     1     -2.7211652     23  2.300                                             
     1     18.4316424     23  2.300                                             
  local pseudopotential read in
  partial core-charges read in
  partial kinetic energy density read in
  atomic valenz-charges read in
  non local Contribution for L=           2  read in
    real space projection operators read in
  non local Contribution for L=           2  read in
    real space projection operators read in
  non local Contribution for L=           0  read in
    real space projection operators read in
  non local Contribution for L=           0  read in
    real space projection operators read in
  non local Contribution for L=           1  read in
    real space projection operators read in
  non local Contribution for L=           1  read in
    real space projection operators read in
    PAW grid and wavefunctions read in
 
   number of l-projection  operators is LMAX  =           6
   number of lm-projection operators is LMMAX =          18
 
 POTCAR:    PAW_PBE Co 02Aug2007                  
   VRHFIN =Co: d8 s1                                                            
   LEXCH  = PE                                                                  
   EATOM  =   813.3670 eV,   59.7808 Ry                                         
                                                                                
   TITEL  = PAW_PBE Co 02Aug2007                                                
   LULTRA =        F    use ultrasoft PP ?                                      
   IUNSCR =        1    unscreen: 0-lin 1-nonlin 2-no                           
   RPACOR =    2.000    partial core radius                                     
   POMASS =   58.933; ZVAL   =    9.000    mass and valenz                      
   RCORE  =    2.300    outmost cutoff radius                                   
   RWIGS  =    2.460; RWIGS  =    1.302    wigner-seitz radius (au A)           
   ENMAX  =  267.968; ENMIN  =  200.976 eV                                      
   RCLOC  =    1.203    cutoff for local pot                                    
   LCOR   =        T    correct aug charges                                     
   LPAW   =        T    paw PP                                                  
   EAUG   =  477.818                                                            
   DEXC   =    0.000                                                            
   RMAX   =    2.360    core radius for proj-oper                               
   RAUG   =    1.300    factor for augmentation sphere                          
   RDEP   =    2.393    radius for radial grids                                 
   RDEPT  =    1.864    core radius for aug-charge                              
                                                                                
   Atomic configuration                                                         
    9 entries                                                                   
     n  l   j            E        occ.                                          
     1  0  0.50     -7587.6674   2.0000                                         
     2  0  0.50      -893.6084   2.0000                                         
     2  1  1.50      -764.5805   6.0000                                         
     3  0  0.50       -97.5973   2.0000                                         
     3  1  1.50       -60.9648   6.0000                                         
     3  2  2.50        -4.2382   8.0000                                         
     4  0  0.50        -4.3746   1.0000                                         
     4  1  1.50        -4.0817   0.0000                                         
     4  3  2.50        -1.3606   0.0000                                         
   Description                                                                  
     l       E           TYP  RCUT    TYP  RCUT                                 
     2     -4.2382362     23  2.300                                             
     2     -5.5988188     23  2.300                                             
     0     -4.3745797     23  2.300                                             
     0      5.7660125     23  2.300                                             
     1     -2.7211652     23  2.300                                             
     1     16.9860234     23  2.300                                             
  local pseudopotential read in
  partial core-charges read in
  partial kinetic energy density read in
  atomic valenz-charges read in
  non local Contribution for L=           2  read in
    real space projection operators read in
  non local Contribution for L=           2  read in
    real space projection operators read in
  non local Contribution for L=           0  read in
    real space projection operators read in
  non local Contribution for L=           0  read in
    real space projection operators read in
  non local Contribution for L=           1  read in
    real space projection operators read in
  non local Contribution for L=           1  read in
    real space projection operators read in
    PAW grid and wavefunctions read in
 
   number of l-projection  operators is LMAX  =           6
   number of lm-projection operators is LMMAX =          18
 
 POTCAR:    PAW_PBE Cu 22Jun2005                  
   VRHFIN =Cu: d10 p1                                                           
   LEXCH  = PE                                                                  
   EATOM  =  1390.9808 eV,  102.2342 Ry                                         
                                                                                
   TITEL  = PAW_PBE Cu 22Jun2005                                                
   LULTRA =        F    use ultrasoft PP ?                                      
   IUNSCR =        1    unscreen: 0-lin 1-nonlin 2-no                           
   RPACOR =    2.000    partial core radius                                     
   POMASS =   63.546; ZVAL   =   11.000    mass and valenz                      
   RCORE  =    2.300    outmost cutoff radius                                   
   RWIGS  =    2.200; RWIGS  =    1.164    wigner-seitz radius (au A)           
   ENMAX  =  295.446; ENMIN  =  221.585 eV                                      
   ICORE  =        3    local potential                                         
   LCOR   =        T    correct aug charges                                     
   LPAW   =        T    paw PP                                                  
   EAUG   =  586.980                                                            
   DEXC   =    0.000                                                            
   RMAX   =    2.344    core radius for proj-oper                               
   RAUG   =    1.300    factor for augmentation sphere                          
   RDEP   =    2.302    radius for radial grids                                 
   RDEPT  =    1.771    core radius for aug-charge                              
                                                                                
   Atomic configuration                                                         
    9 entries                                                                   
     n  l   j            E        occ.                                          
     1  0  0.50     -8850.2468   2.0000                                         
     2  0  0.50     -1062.3498   2.0000                                         
     2  1  1.50      -916.8226   6.0000                                         
     3  0  0.50      -114.6929   2.0000                                         
     3  1  1.50       -72.1325   6.0000                                         
     3  2  2.50        -5.0394  10.0000                                         
     4  0  0.50        -4.6097   1.0000                                         
     4  1  0.50        -4.0817   0.0000                                         
     4  3  2.50        -1.3606   0.0000                                         
   Description                                                                  
     l       E           TYP  RCUT    TYP  RCUT                                 
     2     -5.0393973     23  2.200                                             
     2     10.8846608     23  2.200                                             
     0     -4.6097109     23  2.200                                             
     0      8.2520465     23  2.200                                             
     1     -2.7211652     23  2.200                                             
     1     21.7055443     23  2.200                                             
     3      2.7211652     23  2.300                                             
  local pseudopotential read in
  partial core-charges read in
  partial kinetic energy density read in
  atomic valenz-charges read in
  non local Contribution for L=           2  read in
    real space projection operators read in
  non local Contribution for L=           2  read in
    real space projection operators read in
  non local Contribution for L=           0  read in
    real space projection operators read in
  non local Contribution for L=           0  read in
    real space projection operators read in
  non local Contribution for L=           1  read in
    real space projection operators read in
  non local Contribution for L=           1  read in
    real space projection operators read in
    PAW grid and wavefunctions read in
 
   number of l-projection  operators is LMAX  =           6
   number of lm-projection operators is LMMAX =          18
 
 POTCAR:    PAW_PBE Ni 02Aug2007                  
   VRHFIN =Ni:                                                                  
   LEXCH  = PE                                                                  
   EATOM  =  1077.6739 eV,   79.2068 Ry                                         
                                                                                
   TITEL  = PAW_PBE Ni 02Aug2007                                                
   LULTRA =        F    use ultrasoft PP ?                                      
   IUNSCR =        1    unscreen: 0-lin 1-nonlin 2-no                           
   RPACOR =    2.000    partial core radius                                     
   POMASS =   58.690; ZVAL   =   10.000    mass and valenz                      
   RCORE  =    2.300    outmost cutoff radius                                   
   RWIGS  =    2.430; RWIGS  =    1.286    wigner-seitz radius (au A)           
   ENMAX  =  269.532; ENMIN  =  202.149 eV                                      
   RCLOC  =    1.201    cutoff for local pot                                    
   LCOR   =        T    correct aug charges                                     
   LPAW   =        T    paw PP                                                  
   EAUG   =  544.565                                                            
   DEXC   =    0.000                                                            
   RMAX   =    2.357    core radius for proj-oper                               
   RAUG   =    1.300    factor for augmentation sphere                          
   RDEP   =    2.390    radius for radial grids                                 
   RDEPT  =    1.838    core radius for aug-charge                              
                                                                                
   Atomic configuration                                                         
    9 entries                                                                   
     n  l   j            E        occ.                                          
     1  0  0.50     -8206.4253   2.0000                                         
     2  0  0.50      -976.1748   2.0000                                         
     2  1  1.50      -839.0571   6.0000                                         
     3  0  0.50      -105.9991   2.0000                                         
     3  1  1.50       -66.4603   6.0000                                         
     3  2  2.50        -4.6458   9.0000                                         
     4  0  0.50        -4.4926   1.0000                                         
     4  1  1.50        -4.0817   0.0000                                         
     4  3  2.50        -1.3606   0.0000                                         
   Description                                                                  
     l       E           TYP  RCUT    TYP  RCUT                                 
     2     -4.6457903     23  2.300                                             
     2     -6.0063729     23  2.300                                             
     0     -4.4925590     23  2.300                                             
     0      5.0102601     23  2.300                                             
     1     -2.7211652     23  2.300                                             
     1     16.5183231     23  2.300                                             
  local pseudopotential read in
  partial core-charges read in
  partial kinetic energy density read in
  atomic valenz-charges read in
  non local Contribution for L=           2  read in
    real space projection operators read in
  non local Contribution for L=           2  read in
    real space projection operators read in
  non local Contribution for L=           0  read in
    real space projection operators read in
  non local Contribution for L=           0  read in
    real space projection operators read in
  non local Contribution for L=           1  read in
    real space projection operators read in
  non local Contribution for L=           1  read in
    real space projection operators read in
    PAW grid and wavefunctions read in
 
   number of l-projection  operators is LMAX  =           6
   number of lm-projection operators is LMMAX =          18
 
 POTCAR:    PAW_PBE H 15Jun2001                   
   VRHFIN =H: ultrasoft test                                                    
   LEXCH  = PE                                                                  
   EATOM  =    12.4884 eV,    0.9179 Ry                                         
                                                                                
   TITEL  = PAW_PBE H 15Jun2001                                                 
   LULTRA =        F    use ultrasoft PP ?                                      
   IUNSCR =        0    unscreen: 0-lin 1-nonlin 2-no                           
   RPACOR =    0.000    partial core radius                                     
   POMASS =    1.000; ZVAL   =    1.000    mass and valenz                      
   RCORE  =    1.100    outmost cutoff radius                                   
   RWIGS  =    0.700; RWIGS  =    0.370    wigner-seitz radius (au A)           
   ENMAX  =  250.000; ENMIN  =  200.000 eV                                      
   RCLOC  =    0.701    cutoff for local pot                                    
   LCOR   =        T    correct aug charges                                     
   LPAW   =        T    paw PP                                                  
   EAUG   =  400.000                                                            
   RMAX   =    1.123    core radius for proj-oper                               
   RAUG   =    1.200    factor for augmentation sphere                          
   RDEP   =    1.112    radius for radial grids                                 
   RDEPT  =    0.926    core radius for aug-charge                              
                                                                                
   Atomic configuration                                                         
    2 entries                                                                   
     n  l   j            E        occ.                                          
     1  0  0.50        -6.4927   1.0000                                         
     2  1  0.50        -3.4015   0.0000                                         
   Description                                                                  
     l       E           TYP  RCUT    TYP  RCUT                                 
     0     -6.4927494     23  1.100                                             
     0      6.8029130     23  1.100                                             
     1     -4.0817478     23  1.100                                             
  local pseudopotential read in
  atomic valenz-charges read in
  non local Contribution for L=           0  read in
    real space projection operators read in
  non local Contribution for L=           0  read in
    real space projection operators read in
  non local Contribution for L=           1  read in
    real space projection operators read in
    PAW grid and wavefunctions read in
 
   number of l-projection  operators is LMAX  =           3
   number of lm-projection operators is LMMAX =           5
 
 Optimization of the real space projectors (new method)

 maximal supplied QI-value         = 14.36
 optimisation between [QCUT,QGAM] = [ 11.92, 23.98] = [ 39.79,161.09] Ry 
 Optimized for a Real-space Cutoff    1.49 Angstroem

   l    n(q)    QCUT    max X(q) W(low)/X(q) W(high)/X(q)  e(spline) 
   2     10    11.920    66.195    0.79E-04    0.18E-03    0.24E-06
   2     10    11.920    64.643    0.81E-04    0.19E-03    0.24E-06
   0     11    11.920    95.520    0.28E-04    0.54E-04    0.18E-06
   0     11    11.920    63.403    0.27E-04    0.52E-04    0.17E-06
   1     10    11.920    19.961    0.18E-04    0.11E-03    0.23E-06
   1     10    11.920    13.289    0.25E-04    0.87E-04    0.19E-06
 Optimization of the real space projectors (new method)

 maximal supplied QI-value         = 16.25
 optimisation between [QCUT,QGAM] = [ 11.86, 23.89] = [ 39.41,159.82] Ry 
 Optimized for a Real-space Cutoff    1.49 Angstroem

   l    n(q)    QCUT    max X(q) W(low)/X(q) W(high)/X(q)  e(spline) 
   2     10    11.864    80.901    0.13E-03    0.23E-03    0.37E-06
   2     10    11.864    75.754    0.13E-03    0.23E-03    0.38E-06
   0     11    11.864    58.752    0.44E-04    0.11E-04    0.20E-06
   0     11    11.864    30.679    0.36E-04    0.10E-04    0.18E-06
   1     10    11.864    17.977    0.31E-04    0.45E-04    0.10E-06
   1     10    11.864    13.559    0.25E-04    0.37E-04    0.89E-07
 Optimization of the real space projectors (new method)

 maximal supplied QI-value         = 16.25
 optimisation between [QCUT,QGAM] = [ 11.86, 23.89] = [ 39.41,159.82] Ry 
 Optimized for a Real-space Cutoff    1.33 Angstroem

   l    n(q)    QCUT    max X(q) W(low)/X(q) W(high)/X(q)  e(spline) 
   2      9    11.864    65.824    0.22E-03    0.53E-03    0.26E-06
   2      9    11.864    61.429    0.22E-03    0.53E-03    0.26E-06
   0      9    11.864    56.174    0.21E-03    0.32E-04    0.15E-06
   0      9    11.864    31.263    0.19E-03    0.30E-04    0.14E-06
   1      9    11.864    19.828    0.63E-04    0.30E-03    0.16E-06
   1      9    11.864    15.139    0.49E-04    0.25E-03    0.13E-06
 Optimization of the real space projectors (new method)

 maximal supplied QI-value         = 16.25
 optimisation between [QCUT,QGAM] = [ 11.86, 23.89] = [ 39.41,159.82] Ry 
 Optimized for a Real-space Cutoff    1.49 Angstroem

   l    n(q)    QCUT    max X(q) W(low)/X(q) W(high)/X(q)  e(spline) 
   2     10    11.864     4.610    0.10E-03    0.20E-03    0.29E-06
   2     10    11.864     8.522    0.17E-03    0.33E-03    0.50E-06
   0     11    11.864    51.609    0.52E-04    0.55E-04    0.33E-06
   0     11    11.864    27.747    0.46E-04    0.52E-04    0.31E-06
   1     10    11.864    20.408    0.54E-04    0.25E-04    0.21E-06
   1     10    11.864    13.425    0.48E-04    0.22E-04    0.18E-06
 Optimization of the real space projectors (new method)

 maximal supplied QI-value         = 16.25
 optimisation between [QCUT,QGAM] = [ 11.86, 23.89] = [ 39.41,159.82] Ry 
 Optimized for a Real-space Cutoff    1.33 Angstroem

   l    n(q)    QCUT    max X(q) W(low)/X(q) W(high)/X(q)  e(spline) 
   2      9    11.864    60.317    0.21E-03    0.51E-03    0.25E-06
   2      9    11.864    55.921    0.21E-03    0.51E-03    0.26E-06
   0      9    11.864    51.690    0.22E-03    0.30E-04    0.17E-06
   0      9    11.864    30.015    0.20E-03    0.28E-04    0.15E-06
   1      9    11.864    18.849    0.76E-04    0.33E-03    0.17E-06
   1      9    11.864    14.624    0.60E-04    0.28E-03    0.15E-06
 Optimization of the real space projectors (new method)

 maximal supplied QI-value         = 34.20
 optimisation between [QCUT,QGAM] = [ 11.97, 23.94] = [ 40.13,160.53] Ry 
 Optimized for a Real-space Cutoff    1.18 Angstroem

   l    n(q)    QCUT    max X(q) W(low)/X(q) W(high)/X(q)  e(spline) 
   0      8    11.971    19.460    0.15E-03    0.31E-03    0.25E-06
   0      8    11.971    12.209    0.13E-03    0.29E-03    0.25E-06
   1      8    11.971     4.655    0.22E-03    0.24E-03    0.21E-06
  PAW_PBE Pt 04Feb2005                  :
 energy of atom  1       EATOM= -729.1176
 kinetic energy error for atom=    0.0021 (will be added to EATOM!!)
  PAW_PBE Fe 06Sep2000                  :
 energy of atom  2       EATOM= -594.3153
 kinetic energy error for atom=    0.0024 (will be added to EATOM!!)
  PAW_PBE Co 02Aug2007                  :
 energy of atom  3       EATOM= -813.3670
 kinetic energy error for atom=    0.0026 (will be added to EATOM!!)
  PAW_PBE Cu 22Jun2005                  :
 energy of atom  4       EATOM=-1390.9808
 kinetic energy error for atom=    0.0036 (will be added to EATOM!!)
  PAW_PBE Ni 02Aug2007                  :
 energy of atom  5       EATOM=-1077.6739
 kinetic energy error for atom=    0.0027 (will be added to EATOM!!)
  PAW_PBE H 15Jun2001                   :
 energy of atom  6       EATOM=  -12.4884
 kinetic energy error for atom=    0.0008 (will be added to EATOM!!)
 
 
 POSCAR: 10.86                                   
  positions in cartesian coordinates
  No initial velocities read in
 exchange correlation table for  LEXCH =        8
   RHO(1)=    0.500       N(1)  =     2000
   RHO(2)=  100.500       N(2)  =     4000
 


--------------------------------------------------------------------------------------------------------


 ion  position               nearest neighbor table
   1  0.785  0.881  0.315-  49 2.60  28 2.62  59 2.62  19 2.70  61 2.71  33 2.74  29 2.74  11 2.74
                            60 2.75   4 2.78   2 2.81  12 2.82
   2  0.043  0.883  0.312-  79 2.53  77 2.57  28 2.66  60 2.70  30 2.72  52 2.73   6 2.74  33 2.74
                            22 2.78   4 2.80   1 2.81  16 2.87
   3  0.276  0.382  0.318-  64 2.56  39 2.60  31 2.64  33 2.65  68 2.71  13 2.78  30 2.78  19 2.79
                            43 2.80   5 2.80  25 2.82  18 2.91
   4  0.874  0.964  0.417-   9 2.67  17 2.70  12 2.72   6 2.72  16 2.73  11 2.73  60 2.74   1 2.78
                             2 2.80
   5  0.121  0.466  0.426-  81 1.78  16 2.67  12 2.69   7 2.74  25 2.74  39 2.74  10 2.76  33 2.78
                             3 2.80  13 2.82
   6  0.126  0.961  0.416-   8 2.69  10 2.70  52 2.71  14 2.71   4 2.72   2 2.74   9 2.74  16 2.74
                            22 2.80
   7  0.871  0.460  0.421-  39 2.64  15 2.66  75 2.68  27 2.71   9 2.71  10 2.74   5 2.74  29 2.74
                            12 2.76
   8  0.375  0.958  0.416-  43 2.58  52 2.66  14 2.66  27 2.69   6 2.69  61 2.69  13 2.71  11 2.71
                            10 2.73
   9  0.872  0.211  0.416-  75 2.66   4 2.67  60 2.68  17 2.69  15 2.70   7 2.71   6 2.74  10 2.75
                            22 2.79
  10  0.125  0.210  0.421-  81 1.73   6 2.70  39 2.70   8 2.73  13 2.74   7 2.74   9 2.75   5 2.76
                            43 2.78  22 2.78
  11  0.624  0.960  0.419-  13 2.67  12 2.69  27 2.71   8 2.71  17 2.73   4 2.73   1 2.74  61 2.78
                            19 2.81
  12  0.873  0.714  0.421-  11 2.69   5 2.69  33 2.70  16 2.70   4 2.72  27 2.72   7 2.76  29 2.77
                             1 2.82
  13  0.379  0.206  0.419-  11 2.67  17 2.70   8 2.71  43 2.72  10 2.74  19 2.75  25 2.76   3 2.78
                             5 2.82
  14  0.377  0.713  0.419-  44 2.66   8 2.66  27 2.67  52 2.70   6 2.71  15 2.71  25 2.73  30 2.75
                            16 2.76
  15  0.626  0.462  0.418-  44 2.66   7 2.66  27 2.69  75 2.69   9 2.70  14 2.71  25 2.73  17 2.74
                            18 2.75
  16  0.123  0.710  0.420-  33 2.63   5 2.67  12 2.70  25 2.71   4 2.73   6 2.74  14 2.76  30 2.77
                             2 2.87
  17  0.625  0.211  0.417-   9 2.69   4 2.70  13 2.70  25 2.72  11 2.73  18 2.74  15 2.74  60 2.75
                            19 2.83
  18  0.547  0.376  0.315-  67 2.55  68 2.62  26 2.67  60 2.67  44 2.70  75 2.70  17 2.74  15 2.75
                            30 2.78  19 2.80  25 2.83   3 2.91
  19  0.533  0.126  0.313-  80 2.54  68 2.56  59 2.59  43 2.61   1 2.70  61 2.73  13 2.75   3 2.79
                            18 2.80  11 2.81  17 2.83  60 2.84
  20  0.548  0.123  0.046-  57 2.55  37 2.56  48 2.57  62 2.70  63 2.72  56 2.74  34 2.77  47 2.78
                            45 2.79
  21  0.119  0.458  0.130-  47 2.52  40 2.52  36 2.52  42 2.59  64 2.63  69 2.66  70 2.71  50 2.71
                            31 2.72  57 2.77  58 2.80  74 2.82
  22  0.046  0.137  0.313-  65 2.52  55 2.55  77 2.58  43 2.64  39 2.64  75 2.71  10 2.78   2 2.78
                            60 2.79   9 2.79   6 2.80  52 2.81  31 3.37
  23  0.041  0.131  0.037-  70 2.56  41 2.60  40 2.63  76 2.66  45 2.69  24 2.69  62 2.70  53 2.82
                            35 2.83
  24  0.131  0.958  0.134-  79 2.51  77 2.55  35 2.56  53 2.57  55 2.59  70 2.67  23 2.69  73 2.70
                            58 2.70  38 2.71  66 2.77  41 2.81
  25  0.375  0.462  0.420-  16 2.71  17 2.72  15 2.73  14 2.73   5 2.74  13 2.76  30 2.79   3 2.82
                            18 2.83
  26  0.456  0.548  0.219-  73 2.51  74 2.54  51 2.56  30 2.64  79 2.65  18 2.67  78 2.71  64 2.72
                            32 2.72  44 2.72  68 2.75  67 2.82
  27  0.623  0.711  0.420-  14 2.67  44 2.68  15 2.69   8 2.69   7 2.71  11 2.71  12 2.72  61 2.73
                            29 2.77
  28  0.955  0.786  0.220-  58 2.56  50 2.57  66 2.58   1 2.62  42 2.64  33 2.66  49 2.66   2 2.66
                            64 2.70  59 2.80  79 2.93  77 2.93
  29  0.796  0.623  0.318-  42 2.53  39 2.61  32 2.63  75 2.64  49 2.66  33 2.70   1 2.74   7 2.74
                            61 2.75  44 2.75  12 2.77  27 2.77
  30  0.291  0.631  0.316-  79 2.54  64 2.59  26 2.64  52 2.68  44 2.70   2 2.72  33 2.72  14 2.75
                            16 2.77  18 2.78   3 2.78  25 2.79
  31  0.200  0.277  0.226-  70 2.50  43 2.57  57 2.59  55 2.60  65 2.61   3 2.64  39 2.66  21 2.72
                            80 2.77  42 2.79  68 2.89  64 2.93  22 3.37
  32  0.705  0.552  0.221-  54 2.54  69 2.56  51 2.59  49 2.62  29 2.63  78 2.66  44 2.67  42 2.68
                            75 2.69  65 2.69  26 2.72  67 2.76
  33  0.040  0.633  0.322-  16 2.63   3 2.65  28 2.66  64 2.67  42 2.69  12 2.70  29 2.70  39 2.72
                            30 2.72   1 2.74   2 2.74   5 2.78
  34  0.796  0.861  0.048-  50 2.37  48 2.49  66 2.51  36 2.61  71 2.62  63 2.66  20 2.77  35 2.86
                            62 2.86
  35  0.057  0.863  0.043-  58 2.52  24 2.56  72 2.57  36 2.58  66 2.62  53 2.74  62 2.83  23 2.83
                            34 2.86
  36  0.046  0.632  0.043-  21 2.52  58 2.57  35 2.58  50 2.60  34 2.61  72 2.67  47 2.71  71 2.78
                            40 2.85
  37  0.628  0.226  0.132-  51 2.50  67 2.50  56 2.50  68 2.55  59 2.56  20 2.56  74 2.57  62 2.59
                            41 2.59  66 2.75  57 2.86  48 3.06
  38  0.382  0.953  0.132-  53 2.44  80 2.47  45 2.47  78 2.53  63 2.54  55 2.56  73 2.58  48 2.60
                            54 2.61  24 2.71  57 2.71  70 2.76
  39  0.037  0.384  0.324-   3 2.60  29 2.61  22 2.64   7 2.64  42 2.65  31 2.66  75 2.66  10 2.70
                            33 2.72  65 2.74   5 2.74  43 2.89
  40  0.027  0.380  0.042-  69 2.41  21 2.52  76 2.55  70 2.56  71 2.56  23 2.63  36 2.85  45 2.88
                            47 2.94
  41  0.872  0.216  0.131-  76 2.44  77 2.50  65 2.53  67 2.53  62 2.56  37 2.59  23 2.60  51 2.63
                            69 2.64  70 2.71  66 2.72  24 2.81
  42  0.955  0.544  0.224-  29 2.53  50 2.54  21 2.59  69 2.60  28 2.64  39 2.65  65 2.67  32 2.68
                            49 2.69  33 2.69  64 2.75  31 2.79
  43  0.299  0.114  0.320-  55 2.51  31 2.57   8 2.58  80 2.61  52 2.61  19 2.61  61 2.62  22 2.64
                            13 2.72  10 2.78   3 2.80  39 2.89
  44  0.541  0.627  0.320-  78 2.63  61 2.65  52 2.66  15 2.66  14 2.66  32 2.67  27 2.68  18 2.70
                            30 2.70  75 2.70  26 2.72  29 2.75
  45  0.295  0.117  0.044-  38 2.47  70 2.47  57 2.57  53 2.58  63 2.67  23 2.69  20 2.79  40 2.88
                            47 2.89
  46  0.552  0.624  0.047-  51 2.40  54 2.41  73 2.41  71 2.63  76 2.68  63 2.70  53 2.71  56 2.73
                            72 2.79
  47  0.296  0.383  0.044-  74 2.37  21 2.52  57 2.61  72 2.64  56 2.64  36 2.71  20 2.78  45 2.89
                            40 2.94
  48  0.625  0.946  0.135-  49 2.39  80 2.48  54 2.49  34 2.49  63 2.54  20 2.57  59 2.57  38 2.60
                            50 2.63  57 2.77  66 2.80  37 3.06
  49  0.707  0.792  0.221-  48 2.39  50 2.47  54 2.49   1 2.60  80 2.62  32 2.62  61 2.62  28 2.66
                            29 2.66  78 2.67  42 2.69  59 2.80
  50  0.864  0.701  0.131-  34 2.37  71 2.39  49 2.47  54 2.50  42 2.54  28 2.57  69 2.60  36 2.60
                            48 2.63  21 2.71  66 2.91
  51  0.628  0.457  0.129-  46 2.40  76 2.45  37 2.50  56 2.52  26 2.56  32 2.59  67 2.62  41 2.63
                            69 2.68  74 2.70  73 2.73  54 2.82
  52  0.299  0.874  0.317-  55 2.42  79 2.51  78 2.53  61 2.61  43 2.61  44 2.66   8 2.66  30 2.68
                            14 2.70   6 2.71   2 2.73  22 2.81
  53  0.303  0.875  0.044-  73 2.42  38 2.44  24 2.57  45 2.58  63 2.62  46 2.71  35 2.74  72 2.75
                            23 2.82
  54  0.626  0.717  0.129-  46 2.41  71 2.48  63 2.49  48 2.49  49 2.49  50 2.50  32 2.54  38 2.61
                            78 2.63  73 2.63  69 2.76  51 2.82
  55  0.228  0.025  0.228-  52 2.42  78 2.50  43 2.51  79 2.53  80 2.54  22 2.55  38 2.56  24 2.59
                            31 2.60  70 2.73  77 2.82
  56  0.541  0.379  0.039-  74 2.49  37 2.50  51 2.52  47 2.64  72 2.69  76 2.73  46 2.73  20 2.74
                            62 2.77
  57  0.376  0.206  0.136-  68 2.47  20 2.55  80 2.56  45 2.57  31 2.59  47 2.61  74 2.71  70 2.71
                            38 2.71  48 2.77  21 2.77  37 2.86
  58  0.139  0.705  0.135-  72 2.44  64 2.48  35 2.52  79 2.55  28 2.56  36 2.57  74 2.69  24 2.70
                            73 2.73  21 2.80
  59  0.704  0.051  0.220-  66 2.51  37 2.56  48 2.57  19 2.59  60 2.60   1 2.62  68 2.67  67 2.68
                            77 2.74  80 2.78  49 2.80  28 2.80
  60  0.793  0.129  0.315-  67 2.50  77 2.55  59 2.60  18 2.67   9 2.68   2 2.70   4 2.74  75 2.74
                             1 2.75  17 2.75  22 2.79  19 2.84
  61  0.540  0.872  0.316-  78 2.48  80 2.52  52 2.61  43 2.62  49 2.62  44 2.65   8 2.69   1 2.71
                            19 2.73  27 2.73  29 2.75  11 2.78
  62  0.796  0.123  0.039-  66 2.51  41 2.56  37 2.59  20 2.70  23 2.70  76 2.72  56 2.77  35 2.83
                            34 2.86
  63  0.544  0.876  0.039-  54 2.49  48 2.54  38 2.54  53 2.62  34 2.66  45 2.67  46 2.70  20 2.72
                            71 2.76
  64  0.208  0.543  0.224-  58 2.48   3 2.56  30 2.59  21 2.63  74 2.65  33 2.67  28 2.70  68 2.70
                            26 2.72  42 2.75  79 2.82  31 2.93
  65  0.949  0.301  0.222-  69 2.51  22 2.52  41 2.53  67 2.57  75 2.58  31 2.61  70 2.62  77 2.63
                            42 2.67  32 2.69  39 2.74
  66  0.873  0.966  0.132-  59 2.51  34 2.51  62 2.51  77 2.56  28 2.58  35 2.62  41 2.72  37 2.75
                            24 2.77  48 2.80  50 2.91
  67  0.717  0.291  0.225-  60 2.50  37 2.50  41 2.53  18 2.55  77 2.57  65 2.57  75 2.60  51 2.62
                            59 2.68  32 2.76  26 2.82
  68  0.457  0.295  0.221-  57 2.47  74 2.51  37 2.55  19 2.56  18 2.62  59 2.67  64 2.70   3 2.71
                            26 2.75  80 2.88  31 2.89
  69  0.875  0.457  0.130-  40 2.41  71 2.45  76 2.46  65 2.51  32 2.56  50 2.60  42 2.60  41 2.64
                            21 2.66  51 2.68  70 2.74  54 2.76
  70  0.127  0.205  0.131-  45 2.47  31 2.50  40 2.56  23 2.56  65 2.62  24 2.67  21 2.71  57 2.71
                            41 2.71  55 2.73  69 2.74  38 2.76
  71  0.796  0.620  0.043-  50 2.39  69 2.45  54 2.48  40 2.56  34 2.62  46 2.63  76 2.68  63 2.76
                            36 2.78
  72  0.294  0.627  0.046-  58 2.44  74 2.45  73 2.50  35 2.57  47 2.64  36 2.67  56 2.69  53 2.75
                            46 2.79
  73  0.385  0.715  0.130-  46 2.41  53 2.42  72 2.50  26 2.51  78 2.56  38 2.58  79 2.61  54 2.63
                            24 2.70  51 2.73  58 2.73  74 2.87
  74  0.382  0.452  0.129-  47 2.37  72 2.45  56 2.49  68 2.51  26 2.54  37 2.57  64 2.65  58 2.69
                            51 2.70  57 2.71  21 2.82  73 2.87
  75  0.793  0.382  0.319-  65 2.58  67 2.60  29 2.64  39 2.66   9 2.66   7 2.68  32 2.69  15 2.69
                            18 2.70  44 2.70  22 2.71  60 2.74
  76  0.795  0.374  0.043-  41 2.44  51 2.45  69 2.46  40 2.55  23 2.66  46 2.68  71 2.68  62 2.72
                            56 2.73
  77  0.955  0.056  0.222-  41 2.50  24 2.55  60 2.55  66 2.56  67 2.57   2 2.57  22 2.58  65 2.63
                            59 2.74  55 2.82  79 2.84  28 2.93
  78  0.460  0.796  0.225-  61 2.48  55 2.50  52 2.53  80 2.53  38 2.53  73 2.56  79 2.61  44 2.63
                            54 2.63  32 2.66  49 2.67  26 2.71
  79  0.218  0.797  0.225-  52 2.51  24 2.51  55 2.53   2 2.53  30 2.54  58 2.55  78 2.61  73 2.61
                            26 2.65  64 2.82  77 2.84  28 2.93
  80  0.461  0.027  0.223-  38 2.47  48 2.48  61 2.52  78 2.53  55 2.54  19 2.54  57 2.56  43 2.61
                            49 2.62  31 2.77  59 2.78  68 2.88
  81  0.123  0.331  0.473-  10 1.73   5 1.78
 
  LATTYP: Found a hexagonal cell.
 ALAT       =    10.8599996567
 C/A-ratio  =     2.0257827528
  
  Lattice vectors:
  
 A1 = (   5.4299998284,  -9.4050355878,   0.0000000000)
 A2 = ( -10.8599996567,   0.0000000000,   0.0000000000)
 A3 = (   0.0000000000,   0.0000000000, -22.0000000000)


Analysis of symmetry for initial positions (statically):
=====================================================================
 Subroutine PRICEL returns:
 Original cell was already a primitive cell.
 

 Routine SETGRP: Setting up the symmetry group for a 
 hexagonal supercell.


 Subroutine GETGRP returns: Found  1 space group operations
 (whereof  1 operations were pure point group operations)
 out of a pool of 24 trial point group operations.


The static configuration has the point symmetry C_1 .


Analysis of symmetry for dynamics (positions and initial velocities):
=====================================================================
 Subroutine PRICEL returns:
 Original cell was already a primitive cell.
 

 Routine SETGRP: Setting up the symmetry group for a 
 hexagonal supercell.


 Subroutine GETGRP returns: Found  1 space group operations
 (whereof  1 operations were pure point group operations)
 out of a pool of 24 trial point group operations.


The dynamic configuration has the point symmetry C_1 .


Analysis of constrained symmetry for selective dynamics:
=====================================================================
 Subroutine PRICEL returns:
 Original cell was already a primitive cell.
 

 Routine SETGRP: Setting up the symmetry group for a 
 hexagonal supercell.


 Subroutine GETGRP returns: Found  1 space group operations
 (whereof  1 operations were pure point group operations)
 out of a pool of 24 trial point group operations.


The constrained configuration has the point symmetry C_1 .


Analysis of structural, dynamic, and magnetic symmetry:
=====================================================================
 Subroutine PRICEL returns:
 Original cell was already a primitive cell.
 

 Routine SETGRP: Setting up the symmetry group for a 
 hexagonal supercell.


 Subroutine GETGRP returns: Found  1 space group operations
 (whereof  1 operations were pure point group operations)
 out of a pool of 24 trial point group operations.


The magnetic configuration has the point symmetry C_1 .


 Subroutine INISYM returns: Found  1 space group operations
 (whereof  1 operations are pure point group operations),
 and found     1 'primitive' translations

 
 
 KPOINTS: mesh auto                               

Automatic generation of k-mesh.
Space group operators:
 irot       det(A)        alpha          n_x          n_y          n_z        tau_x        tau_y        tau_z
    1     1.000000     0.000001     1.000000     0.000000     0.000000     0.000000     0.000000     0.000000
 
 Subroutine IBZKPT returns following result:
 ===========================================
 
 Found      4 irreducible k-points:
 
 Following reciprocal coordinates:
            Coordinates               Weight
  0.000000  0.000000  0.000000      1.000000
  0.500000  0.000000  0.000000      1.000000
  0.000000  0.500000  0.000000      1.000000
  0.500000  0.500000  0.000000      1.000000
 
 Following cartesian coordinates:
            Coordinates               Weight
  0.000000  0.000000  0.000000      1.000000
  0.046041 -0.026582  0.000000      1.000000
  0.000000  0.053163  0.000000      1.000000
  0.046041  0.026582  0.000000      1.000000
 
 TETIRR: Found     12 inequivalent tetrahedra from       24
 
 Subroutine IBZKPT_HF returns following result:
 ==============================================
 
 Found      4 k-points in 1st BZ
 the following      4 k-points will be used (e.g. in the exchange kernel)
 Following reciprocal coordinates:   # in IRBZ
  0.000000  0.000000  0.000000    0.25000000   1 t-inv F
  0.500000  0.000000  0.000000    0.25000000   2 t-inv F
  0.000000  0.500000  0.000000    0.25000000   3 t-inv F
  0.500000  0.500000  0.000000    0.25000000   4 t-inv F


--------------------------------------------------------------------------------------------------------




 Dimension of arrays:
   k-points           NKPTS =      4   k-points in BZ     NKDIM =      4   number of bands    NBANDS=    624
   number of dos      NEDOS =    301   number of ions     NIONS =     81
   non local maximal  LDIM  =      6   non local SUM 2l+1 LMDIM =     18
   total plane-waves  NPLWV = ******
   max r-space proj   IRMAX =   7380   max aug-charges    IRDMAX=  32147
   dimension x,y,z NGX =    84 NGY =   84 NGZ =  168
   dimension x,y,z NGXF=   168 NGYF=  168 NGZF=  336
   support grid    NGXF=   168 NGYF=  168 NGZF=  336
   ions per type =              32  13  10  13  12   1
   NGX,Y,Z   is equivalent  to a cutoff of  12.86, 12.86, 12.70 a.u.
   NGXF,Y,Z  is equivalent  to a cutoff of  25.72, 25.72, 25.39 a.u.

 SYSTEM =  Pt111                                   
 POSCAR =  10.86                                   

 Startparameter for this run:
   NWRITE =      2    write-flag & timer
   PREC   = accura    normal or accurate (medium, high low for compatibility)
   ISTART =      0    job   : 0-new  1-cont  2-samecut
   ICHARG =      2    charge: 1-file 2-atom 10-const
   ISPIN  =      2    spin polarized calculation?
   LNONCOLLINEAR =      F non collinear calculations
   LSORBIT =      F    spin-orbit coupling
   INIWAV =      1    electr: 0-lowe 1-rand  2-diag
   LASPH  =      F    aspherical Exc in radial PAW
   METAGGA=      F    non-selfconsistent MetaGGA calc.

 Electronic Relaxation 1
   ENCUT  =  550.0 eV  40.42 Ry    6.36 a.u.  20.77 20.77 42.07*2*pi/ulx,y,z
   ENINI  =  550.0     initial cutoff
   ENAUG  =  587.0 eV  augmentation charge cutoff
   NELM   =    200;   NELMIN=  2; NELMDL= -5     # of ELM steps 
   EDIFF  = 0.1E-04   stopping-criterion for ELM
   LREAL  =      T    real-space projection
   NLSPLINE    = F    spline interpolate recip. space projectors
   LCOMPAT=      F    compatible to vasp.4.4
   GGA_COMPAT  = T    GGA compatible to vasp.4.4-vasp.4.6
   LMAXPAW     = -100 max onsite density
   LMAXMIX     =    2 max onsite mixed and CHGCAR
   VOSKOWN=      0    Vosko Wilk Nusair interpolation
   ROPT   =   -0.00025  -0.00025  -0.00025  -0.00025
   ROPT   =   -0.00025  -0.00025
 Ionic relaxation
   EDIFFG = -.5E-01   stopping-criterion for IOM
   NSW    =   1009    number of steps for IOM
   NBLOCK =      1;   KBLOCK =   1009    inner block; outer block 
   IBRION =      5    ionic relax: 0-MD 1-quasi-New 2-CG
   NFREE  =      2    steps in history (QN), initial steepest desc. (CG)
   ISIF   =      2    stress and relaxation
   IWAVPR =     11    prediction:  0-non 1-charg 2-wave 3-comb
   ISYM   =      2    0-nonsym 1-usesym 2-fastsym
   LCORR  =      T    Harris-Foulkes like correction to forces

   POTIM  = 0.5000    time-step for ionic-motion
   TEIN   =    0.0    initial temperature
   TEBEG  =    0.0;   TEEND  =   0.0 temperature during run
   SMASS  =  -3.00    Nose mass-parameter (am)
   estimated Nose-frequenzy (Omega)   =  0.10E-29 period in steps =****** mass=  -0.270E-26a.u.
   SCALEE = 1.0000    scale energy and forces
   NPACO  =    256;   APACO  = 16.0  distance and # of slots for P.C.
   PSTRESS=    0.0 pullay stress

  Mass of Ions in am
   POMASS = 195.08 55.85 58.93 63.55 58.69  1.00
  Ionic Valenz
   ZVAL   =  10.00  8.00  9.00 11.00 10.00  1.00
  Atomic Wigner-Seitz radii
   RWIGS  =  -1.00 -1.00 -1.00 -1.00 -1.00 -1.00
  virtual crystal weights 
   VCA    =   1.00  1.00  1.00  1.00  1.00  1.00
   NELECT =     778.0000    total number of electrons
   NUPDOWN=      -1.0000    fix difference up-down

 DOS related values:
   EMIN   =  10.00;   EMAX   =-10.00  energy-range for DOS
   EFERMI =   0.00
   ISMEAR =    -5;   SIGMA  =   0.10  broadening in eV -4-tet -1-fermi 0-gaus

 Electronic relaxation 2 (details)
   IALGO  =     68    algorithm
   LDIAG  =      T    sub-space diagonalisation (order eigenvalues)
   LSUBROT=      F    optimize rotation matrix (better conditioning)
   TURBO    =      0    0=normal 1=particle mesh
   IRESTART =      0    0=no restart 2=restart with 2 vectors
   NREBOOT  =      0    no. of reboots
   NMIN     =      0    reboot dimension
   EREF     =   0.00    reference energy to select bands
   IMIX   =      4    mixing-type and parameters
     AMIX     =   0.40;   BMIX     =  1.00
     AMIX_MAG =   1.60;   BMIX_MAG =  1.00
     AMIN     =   0.10
     WC   =   100.;   INIMIX=   1;  MIXPRE=   1;  MAXMIX= -45

 Intra band minimization:
   WEIMIN = 0.0010     energy-eigenvalue tresh-hold
   EBREAK =  0.40E-08  absolut break condition
   DEPER  =   0.30     relativ break condition  

   TIME   =   0.40     timestep for ELM

  volume/ion in A,a.u.               =      27.74       187.21
  Fermi-wavevector in a.u.,A,eV,Ry     =   1.149557  2.172347 17.979834  1.321481
  Thomas-Fermi vector in A             =   2.286226
 
 Write flags
   LWAVE        =      F    write WAVECAR
   LDOWNSAMPLE  =      F    k-point downsampling of WAVECAR
   LCHARG       =      F    write CHGCAR
   LVTOT        =      F    write LOCPOT, total local potential
   LVHAR        =      F    write LOCPOT, Hartree potential only
   LELF         =      F    write electronic localiz. function (ELF)
   LORBIT       =      0    0 simple, 1 ext, 2 COOP (PROOUT), +10 PAW based schemes


 Dipole corrections
   LMONO  =      F    monopole corrections only (constant potential shift)
   LDIPOL =      F    correct potential (dipole corrections)
   IDIPOL =      0    1-x, 2-y, 3-z, 4-all directions 
   EPSILON=  1.0000000 bulk dielectric constant

 Exchange correlation treatment:
   GGA     =    --    GGA type
   LEXCH   =     8    internal setting for exchange type
   VOSKOWN=      0    Vosko Wilk Nusair interpolation
   LHFCALC =     F    Hartree Fock is set to
   LHFONE  =     F    Hartree Fock one center treatment
   AEXX    =    0.0000 exact exchange contribution

 Linear response parameters
   LEPSILON=     F    determine dielectric tensor
   LRPA    =     F    only Hartree local field effects (RPA)
   LNABLA  =     F    use nabla operator in PAW spheres
   LVEL    =     F    velocity operator in full k-point grid
   LINTERFAST=   F  fast interpolation
   KINTER  =     0    interpolate to denser k-point grid
   CSHIFT  =0.1000    complex shift for real part using Kramers Kronig
   OMEGAMAX=  -1.0    maximum frequency
   DEG_THRESHOLD= 0.2000000E-02 threshold for treating states as degnerate
   RTIME   =   -0.100 relaxation time in fs
  (WPLASMAI=    0.000 imaginary part of plasma frequency in eV, 0.658/RTIME)
   DFIELD  = 0.0000000 0.0000000 0.0000000 field for delta impulse in time
 
 Orbital magnetization related:
   ORBITALMAG=     F  switch on orbital magnetization
   LCHIMAG   =     F  perturbation theory with respect to B field
   DQ        =  0.001000  dq finite difference perturbation B field
   LLRAUG    =     F  two centre corrections for induced B field



--------------------------------------------------------------------------------------------------------


 finite differences
   using selective dynamics as specified on POSCAR
   WARNING: If single coordinates had been selected the selection of coordinates
            is made according to the corresponding   d i r e c t   coordinates!
            Don't support selection of single cartesian coordinates -- sorry ...
  !
 charge density and potential will be updated during run
 spin polarized calculation
 RMM-DIIS sequential band-by-band and
  variant of blocked Davidson during initial phase
 perform sub-space diagonalisation
    before iterative eigenvector-optimisation
 modified Broyden-mixing scheme, WC =      100.0
 initial mixing is a Kerker type mixing with AMIX =  0.4000 and BMIX =      1.0000
 Hartree-type preconditioning will be used
 using additional bands          235
 real space projection scheme for non local part
 use partial core corrections
 calculate Harris-corrections to forces 
   (improved forces if not selfconsistent)
 use gradient corrections 
 use of overlap-Matrix (Vanderbilt PP)
 Fermi weights with tetrahedron method with Bloechl corrections


--------------------------------------------------------------------------------------------------------


  energy-cutoff  :      550.00
  volume of cell :     2247.05
      direct lattice vectors                 reciprocal lattice vectors
    10.859999657  0.000000000  0.000000000     0.092081034 -0.053163010  0.000000000
     5.429999828  9.405035588  0.000000000     0.000000000  0.106326020  0.000000000
     0.000000000  0.000000000 22.000000000     0.000000000  0.000000000  0.045454545

  length of vectors
    10.859999657 10.859999657 22.000000000     0.106326020  0.106326020  0.045454545


 
 k-points in units of 2pi/SCALE and weight: mesh auto                               
   0.00000000  0.00000000  0.00000000       0.250
   0.04604052 -0.02658150  0.00000000       0.250
   0.00000000  0.05316301  0.00000000       0.250
   0.04604052  0.02658150  0.00000000       0.250
 
 k-points in reciprocal lattice and weights: mesh auto                               
   0.00000000  0.00000000  0.00000000       0.250
   0.50000000  0.00000000  0.00000000       0.250
   0.00000000  0.50000000  0.00000000       0.250
   0.50000000  0.50000000  0.00000000       0.250
 
 position of ions in fractional coordinates (direct lattice) 
   0.78460176  0.88075902  0.31486349
   0.04264791  0.88280497  0.31233967
   0.27638324  0.38244914  0.31754818
   0.87399141  0.96350554  0.41731943
   0.12066989  0.46594416  0.42617879
   0.12598006  0.96121450  0.41566201
   0.87149962  0.46034566  0.42084655
   0.37544619  0.95832114  0.41639849
   0.87178740  0.21071848  0.41553280
   0.12489467  0.20979168  0.42121925
   0.62421291  0.95973717  0.41889692
   0.87272671  0.71369196  0.42126876
   0.37850299  0.20622085  0.41872784
   0.37653364  0.71262259  0.41867741
   0.62578703  0.46219846  0.41833933
   0.12340499  0.70996232  0.41962421
   0.62461139  0.21054755  0.41714899
   0.54747794  0.37643089  0.31498104
   0.53285767  0.12640224  0.31269143
   0.54838833  0.12337347  0.04616746
   0.11897632  0.45840873  0.12986490
   0.04577020  0.13704364  0.31300188
   0.04066573  0.13149863  0.03673280
   0.13095494  0.95789127  0.13392649
   0.37468205  0.46197270  0.42037283
   0.45565223  0.54806677  0.21862214
   0.62337497  0.71072041  0.41950543
   0.95463232  0.78624459  0.22047772
   0.79649352  0.62295610  0.31756613
   0.29089401  0.63123160  0.31598773
   0.20027086  0.27704785  0.22602515
   0.70458292  0.55163211  0.22088515
   0.03967961  0.63274661  0.32170157
   0.79551100  0.86095123  0.04803851
   0.05739494  0.86293659  0.04269821
   0.04587539  0.63174243  0.04254194
   0.62839887  0.22641754  0.13184280
   0.38235880  0.95332843  0.13196947
   0.03665393  0.38370240  0.32364172
   0.02680797  0.37973819  0.04163164
   0.87237911  0.21580924  0.13075454
   0.95470242  0.54363827  0.22446703
   0.29923511  0.11377754  0.31950623
   0.54128704  0.62744495  0.32038818
   0.29450499  0.11703562  0.04414884
   0.55196850  0.62406631  0.04671093
   0.29607773  0.38273525  0.04410119
   0.62495157  0.94618873  0.13463855
   0.70730076  0.79195600  0.22069804
   0.86416424  0.70149040  0.13101985
   0.62840973  0.45654274  0.12888101
   0.29871253  0.87372936  0.31707256
   0.30340848  0.87503324  0.04361807
   0.62639551  0.71686996  0.12943899
   0.22824609  0.02519273  0.22797437
   0.54119566  0.37869383  0.03864044
   0.37588607  0.20624082  0.13551792
   0.13910459  0.70498816  0.13510658
   0.70439885  0.05140639  0.22049063
   0.79284562  0.12939845  0.31479182
   0.53985415  0.87164526  0.31613473
   0.79634723  0.12315750  0.03929397
   0.54409452  0.87593854  0.03924591
   0.20790243  0.54310364  0.22378593
   0.94893253  0.30075086  0.22244782
   0.87251125  0.96557984  0.13164478
   0.71714769  0.29144814  0.22456062
   0.45673307  0.29458484  0.22130469
   0.87502942  0.45728685  0.13000961
   0.12698014  0.20542845  0.13067041
   0.79570639  0.62023288  0.04302802
   0.29386926  0.62662746  0.04632212
   0.38503102  0.71488529  0.12987367
   0.38167182  0.45223852  0.12905631
   0.79292897  0.38177682  0.31902509
   0.79479377  0.37390398  0.04303644
   0.95461703  0.05594721  0.22179318
   0.45953371  0.79572721  0.22516979
   0.21814710  0.79732026  0.22492198
   0.46108295  0.02748800  0.22321297
   0.12265889  0.33139880  0.47284294
 
 position of ions in cartesian coordinates  (Angst):
  13.30329621  8.28356991  6.92699683
   5.25678706  8.30281214  6.87147278
   5.07822066  3.59694777  6.98606001
  14.72338135  9.06180389  9.18102755
   3.84055167  4.38222142  9.37593347
   6.58753801  9.04025662  9.14456424
  11.96416245  4.32956734  9.25862419
   9.28102905  9.01304438  9.16076671
  10.61181217  1.98181479  9.14172161
   2.49552491  1.97309826  9.26682356
  11.99032469  9.02636228  9.21573232
  13.35315902  6.71229825  9.26791280
   5.23032155  1.93951441  9.21201240
   7.95869570  6.70224078  9.21090300
   9.30578448  4.34699295  9.20346532
   5.19527344  6.67722087  9.23173255
   7.92655263  1.98020719  9.17727780
   7.98962987  3.54034594  6.92958298
   6.47319832  1.18881759  6.87921145
   6.62541500  1.16033190  1.01568419
   3.78124213  4.31135041  2.85702788
   1.24121125  1.28890028  6.88604131
   1.15566737  1.23674932  0.80812154
   6.62352002  9.00900149  2.94638274
   6.57755866  4.34486972  9.24820221
   7.92438554  5.15458743  4.80968704
  10.62906370  6.68435079  9.22911955
  14.63661464  7.39465836  4.85050991
  12.03257084  5.85892432  6.98645482
   6.58669639  5.93675570  6.95173004
   3.67931125  2.60564485  4.97255331
  10.64713259  5.18811965  4.85947330
   3.86673452  5.95100442  7.07743456
  13.31421424  8.09727694  1.05684727
   5.30905455  8.11594932  0.93936063
   3.92856797  5.94156004  0.93592272
   8.05385868  2.12946499  2.90054150
   9.32898959  8.96608780  2.90332824
   2.48156565  3.60873476  7.12011792
   2.35311289  3.57145122  0.91589603
  10.64588090  2.02969355  2.87659996
  13.32002369  5.11293728  4.93827471
   3.86750516  1.07008177  7.02913700
   9.28540307  5.90114210  7.04854002
   3.83382754  1.10072422  0.97127449
   9.38305771  5.86936583  1.02764050
   5.29365641  3.59963866  0.97022617
  11.92477847  8.89893867  2.96204804
  11.98160699  7.44837437  4.85535685
  13.19391605  6.59754215  2.88243667
   9.30355646  4.29380068  2.83538226
   7.98836822  8.21745570  6.97559628
   8.04644638  8.22971881  0.95959753
  10.69525881  6.74218749  2.84765773
   2.61554891  0.23693848  5.01543608
   7.93369212  3.56162890  0.85008961
   5.20201026  1.93970225  2.98139421
   5.33876141  6.63043871  2.97234485
   7.92890800  0.48347894  4.85079390
   9.31293675  1.21699703  6.92542012
  10.59584947  8.19785473  6.95496410
   9.31707587  1.15830066  0.86446726
  10.66521242  8.23823315  0.86341001
   5.20687297  5.10790903  4.92329037
  11.93848408  2.82857251  4.89385205
  14.71857022  9.08131274  2.89618505
   9.37078710  2.74108017  4.94033374
   6.55971659  2.77058089  4.86870315
  11.98588670  4.30079906  2.86021139
   2.49448074  1.93206192  2.87474900
  12.00923557  5.83331228  0.94661646
   6.59400710  5.89345359  1.01908661
   8.06326377  6.72352161  2.85722084
   6.60061090  4.25331933  2.83923887
  10.68425643  3.59062454  7.01855192
  10.66175863  3.51658022  0.94680163
  10.67093399  0.52618548  4.87945005
   9.31133460  7.48384275  4.95373546
   6.69852636  7.49882547  4.94828364
   5.15662057  0.25852564  4.91068524
   3.13157093  3.11681748 10.40254461
 


--------------------------------------------------------------------------------------------------------


 k-point  1 :   0.0000 0.0000 0.0000  plane waves:   65767
 k-point  2 :   0.5000 0.0000 0.0000  plane waves:   65808
 k-point  3 :   0.0000 0.5000 0.0000  plane waves:   65808
 k-point  4 :   0.5000 0.5000 0.0000  plane waves:   65808

 maximum and minimum number of plane-waves per node :     65808    65767

 maximum number of plane-waves:     65808
 maximum index in each direction: 
   IXMAX=   20   IYMAX=   20   IZMAX=   42
   IXMIN=  -21   IYMIN=  -21   IZMIN=  -42


 serial   3D FFT for wavefunctions
 parallel 3D FFT for charge:
    minimum data exchange during FFTs selected (reduces bandwidth)


 total amount of memory used by VASP MPI-rank0   370194. kBytes
=======================================================================

   base      :      30000. kBytes
   nonlr-proj:      93057. kBytes
   fftplans  :      12162. kBytes
   grid      :     120476. kBytes
   one-center:       2519. kBytes
   wavefun   :     111980. kBytes
 
     INWAV:  cpu time    0.0001: real time    0.0004
 Broyden mixing: mesh for mixing (old mesh)
   NGX = 41   NGY = 41   NGZ = 85
  (NGX  =168   NGY  =168   NGZ  =336)
  gives a total of 142885 points

 initial charge density was supplied:
 charge density of overlapping atoms calculated
 number of electron     778.0000000 magnetization     231.0000000
 keeping initial charge density in first step


--------------------------------------------------------------------------------------------------------


 Maximum index for non-local projection operator         7129
 Maximum index for augmentation-charges         1400 (set IRDMAX)


--------------------------------------------------------------------------------------------------------


 First call to EWALD:  gamma=   0.135
 Maximum number of real-space cells 4x 4x 2
 Maximum number of reciprocal cells 2x 2x 4

    FEWALD:  cpu time    0.0045: real time    0.0045


--------------------------------------- Iteration      1(   1)  ---------------------------------------


    POTLOK:  cpu time    0.4822: real time    0.4908
    SETDIJ:  cpu time    0.0357: real time    0.0359
     EDDAV:  cpu time   59.6389: real time   59.9837
 BZINTS: Fermi energy: 16.992669;778.000000 electrons
         Band energy:7577.029204;  BLOECHL correction: -0.008674
       DOS:  cpu time    0.0269: real time    0.0274
    --------------------------------------------
      LOOP:  cpu time   60.1837: real time   60.5379

 eigenvalue-minimisations  :  9984
 total energy-change (2. order) : 0.7475186E+04  (-0.3332868E+05)
 number of electron     778.0000000 magnetization     231.0000000
 augmentation part      778.0000000 magnetization     231.0000000

 Free energy of the ion-electron system (eV)
  ---------------------------------------------------
  alpha Z        PSCENC =      2116.97411455
  Ewald energy   TEWEN  =    220836.75405879
  -Hartree energ DENC   =   -292750.95731558
  -exchange      EXHF   =         0.00000000
  -V(xc)+E(xc)   XCENC  =      1378.64036676
  PAW double counting   =     64136.80006862   -66038.70876209
  entropy T*S    EENTRO =         0.00000000
  eigenvalues    EBANDS =      7577.02920428
  atomic energy  EATOM  =     70218.65458108
  Solvation  Ediel_sol  =         0.00000000
  ---------------------------------------------------
  free energy    TOTEN  =      7475.18631642 eV

  energy without entropy =     7475.18631642  energy(sigma->0) =     7475.18631642


--------------------------------------------------------------------------------------------------------




--------------------------------------- Iteration      1(   2)  ---------------------------------------


     EDDAV:  cpu time   60.2655: real time   60.4345
 BZINTS: Fermi energy:  5.423071;778.000000 electrons
         Band energy: 712.894329;  BLOECHL correction: -0.141558
       DOS:  cpu time    0.0216: real time    0.0219
    --------------------------------------------
      LOOP:  cpu time   60.2871: real time   60.4563

 eigenvalue-minimisations  : 10176
 total energy-change (2. order) :-0.6864135E+04  (-0.6095184E+04)
 number of electron     778.0000000 magnetization     231.0000000
 augmentation part      778.0000000 magnetization     231.0000000

 Free energy of the ion-electron system (eV)
  ---------------------------------------------------
  alpha Z        PSCENC =      2116.97411455
  Ewald energy   TEWEN  =    220836.75405879
  -Hartree energ DENC   =   -292750.95731558
  -exchange      EXHF   =         0.00000000
  -V(xc)+E(xc)   XCENC  =      1378.64036676
  PAW double counting   =     64136.80006862   -66038.70876209
  entropy T*S    EENTRO =         0.00000000
  eigenvalues    EBANDS =       712.89432877
  atomic energy  EATOM  =     70218.65458108
  Solvation  Ediel_sol  =         0.00000000
  ---------------------------------------------------
  free energy    TOTEN  =       611.05144091 eV

  energy without entropy =      611.05144091  energy(sigma->0) =      611.05144091


--------------------------------------------------------------------------------------------------------




--------------------------------------- Iteration      1(   3)  ---------------------------------------


     EDDAV:  cpu time   59.7222: real time   59.9349
 BZINTS: Fermi energy:  3.174234;778.000000 electrons
         Band energy:-328.353666;  BLOECHL correction: -0.006463
       DOS:  cpu time    0.0255: real time    0.0257
    --------------------------------------------
      LOOP:  cpu time   59.7477: real time   59.9606

 eigenvalue-minimisations  : 10128
 total energy-change (2. order) :-0.1041248E+04  (-0.8691906E+03)
 number of electron     778.0000000 magnetization     231.0000000
 augmentation part      778.0000000 magnetization     231.0000000

 Free energy of the ion-electron system (eV)
  ---------------------------------------------------
  alpha Z        PSCENC =      2116.97411455
  Ewald energy   TEWEN  =    220836.75405879
  -Hartree energ DENC   =   -292750.95731558
  -exchange      EXHF   =         0.00000000
  -V(xc)+E(xc)   XCENC  =      1378.64036676
  PAW double counting   =     64136.80006862   -66038.70876209
  entropy T*S    EENTRO =         0.00000000
  eigenvalues    EBANDS =      -328.35366599
  atomic energy  EATOM  =     70218.65458108
  Solvation  Ediel_sol  =         0.00000000
  ---------------------------------------------------
  free energy    TOTEN  =      -430.19655385 eV

  energy without entropy =     -430.19655385  energy(sigma->0) =     -430.19655385


--------------------------------------------------------------------------------------------------------




--------------------------------------- Iteration      1(   4)  ---------------------------------------


     EDDAV:  cpu time   70.0344: real time   70.3214
 BZINTS: Fermi energy:  3.059401;778.000000 electrons
         Band energy:-393.017722;  BLOECHL correction: -0.012853
       DOS:  cpu time    0.0464: real time    0.1028
    --------------------------------------------
      LOOP:  cpu time   70.0808: real time   70.4242

 eigenvalue-minimisations  : 12240
 total energy-change (2. order) :-0.6466406E+02  (-0.6207335E+02)
 number of electron     778.0000000 magnetization     231.0000000
 augmentation part      778.0000000 magnetization     231.0000000

 Free energy of the ion-electron system (eV)
  ---------------------------------------------------
  alpha Z        PSCENC =      2116.97411455
  Ewald energy   TEWEN  =    220836.75405879
  -Hartree energ DENC   =   -292750.95731558
  -exchange      EXHF   =         0.00000000
  -V(xc)+E(xc)   XCENC  =      1378.64036676
  PAW double counting   =     64136.80006862   -66038.70876209
  entropy T*S    EENTRO =         0.00000000
  eigenvalues    EBANDS =      -393.01772198
  atomic energy  EATOM  =     70218.65458108
  Solvation  Ediel_sol  =         0.00000000
  ---------------------------------------------------
  free energy    TOTEN  =      -494.86060984 eV

  energy without entropy =     -494.86060984  energy(sigma->0) =     -494.86060984


--------------------------------------------------------------------------------------------------------




--------------------------------------- Iteration      1(   5)  ---------------------------------------


     EDDAV:  cpu time   69.2839: real time   69.4707
 BZINTS: Fermi energy:  3.056123;778.000000 electrons
         Band energy:-395.167201;  BLOECHL correction: -0.012295
       DOS:  cpu time    0.0283: real time    0.0292
    CHARGE:  cpu time    2.7163: real time    2.7234
    MIXING:  cpu time    0.0112: real time    0.0115
    --------------------------------------------
      LOOP:  cpu time   72.0398: real time   72.2349

 eigenvalue-minimisations  : 12096
 total energy-change (2. order) :-0.2149479E+01  (-0.2144101E+01)
 number of electron     778.0000035 magnetization     216.7388607
 augmentation part      335.0875078 magnetization     183.5170197

 Broyden mixing:
  rms(total) = 0.11439E+02    rms(broyden)= 0.11439E+02
  rms(prec ) = 0.11794E+02
  weight for this iteration     100.00

 Free energy of the ion-electron system (eV)
  ---------------------------------------------------
  alpha Z        PSCENC =      2116.97411455
  Ewald energy   TEWEN  =    220836.75405879
  -Hartree energ DENC   =   -292750.95731558
  -exchange      EXHF   =         0.00000000
  -V(xc)+E(xc)   XCENC  =      1378.64036676
  PAW double counting   =     64136.80006862   -66038.70876209
  entropy T*S    EENTRO =         0.00000000
  eigenvalues    EBANDS =      -395.16720084
  atomic energy  EATOM  =     70218.65458108
  Solvation  Ediel_sol  =         0.00000000
  ---------------------------------------------------
  free energy    TOTEN  =      -497.01008870 eV

  energy without entropy =     -497.01008870  energy(sigma->0) =     -497.01008870


--------------------------------------------------------------------------------------------------------




--------------------------------------- Iteration      1(   6)  ---------------------------------------


    POTLOK:  cpu time    0.4524: real time    0.4665
    SETDIJ:  cpu time    0.0356: real time    0.0357
    EDDIAG:  cpu time    9.9596: real time    9.9885
  RMM-DIIS:  cpu time   37.3468: real time   37.4468
    ORTHCH:  cpu time    1.6106: real time    1.6148
 BZINTS: Fermi energy:  1.464050;778.000000 electrons
         Band energy:***********;  BLOECHL correction: -0.037943
       DOS:  cpu time    0.0300: real time    0.0301
    CHARGE:  cpu time    2.6883: real time    2.6953
    MIXING:  cpu time    0.0114: real time    0.0121
    --------------------------------------------
      LOOP:  cpu time   52.1347: real time   52.2898

 eigenvalue-minimisations  : 10068
 total energy-change (2. order) :-0.2202343E+03  (-0.8858355E+02)
 number of electron     778.0000037 magnetization     212.9935393
 augmentation part      407.4755296 magnetization     179.2523979

 Broyden mixing:
  rms(total) = 0.20734E+02    rms(broyden)= 0.20734E+02
  rms(prec ) = 0.27234E+02
  weight for this iteration     100.00

 eigenvalues of (default mixing * dielectric matrix)
  average eigenvalue GAMMA=   0.2016
  0.2016

 Free energy of the ion-electron system (eV)
  ---------------------------------------------------
  alpha Z        PSCENC =      2116.97411455
  Ewald energy   TEWEN  =    220836.75405879
  -Hartree energ DENC   =   -291139.29889519
  -exchange      EXHF   =         0.00000000
  -V(xc)+E(xc)   XCENC  =      1332.86513618
  PAW double counting   =     68521.92323348   -70204.02230488
  entropy T*S    EENTRO =         0.00000000
  eigenvalues    EBANDS =     -2401.09430043
  atomic energy  EATOM  =     70218.65458108
  Solvation  Ediel_sol  =         0.00000000
  ---------------------------------------------------
  free energy    TOTEN  =      -717.24437644 eV

  energy without entropy =     -717.24437644  energy(sigma->0) =     -717.24437644


--------------------------------------------------------------------------------------------------------




--------------------------------------- Iteration      1(   7)  ---------------------------------------


    POTLOK:  cpu time    0.4470: real time    0.4493
    SETDIJ:  cpu time    0.0356: real time    0.0357
    EDDIAG:  cpu time    9.9439: real time    9.9708
  RMM-DIIS:  cpu time   37.0887: real time   37.2368
    ORTHCH:  cpu time    1.6551: real time    1.6685
 BZINTS: Fermi energy:  2.460543;778.000000 electrons
         Band energy:***********;  BLOECHL correction: -0.012120
       DOS:  cpu time    0.0239: real time    0.0240
    CHARGE:  cpu time    2.6972: real time    2.7307
    MIXING:  cpu time    0.0112: real time    0.0113
    --------------------------------------------
      LOOP:  cpu time   51.9025: real time   52.1270

 eigenvalue-minimisations  : 10004
 total energy-change (2. order) : 0.2070086E+03  (-0.1409680E+02)
 number of electron     778.0000039 magnetization     208.2339678
 augmentation part      371.5132587 magnetization     164.9932540

 Broyden mixing:
  rms(total) = 0.14501E+02    rms(broyden)= 0.14501E+02
  rms(prec ) = 0.19047E+02
  weight for this iteration     100.00

 eigenvalues of (default mixing * dielectric matrix)
  average eigenvalue GAMMA=   0.2638
  0.3567  0.1709

 Free energy of the ion-electron system (eV)
  ---------------------------------------------------
  alpha Z        PSCENC =      2116.97411455
  Ewald energy   TEWEN  =    220836.75405879
  -Hartree energ DENC   =   -291792.26809627
  -exchange      EXHF   =         0.00000000
  -V(xc)+E(xc)   XCENC  =      1351.65751640
  PAW double counting   =     69472.63064268   -71307.40635407
  entropy T*S    EENTRO =         0.00000000
  eigenvalues    EBANDS =     -1407.23227150
  atomic energy  EATOM  =     70218.65458108
  Solvation  Ediel_sol  =         0.00000000
  ---------------------------------------------------
  free energy    TOTEN  =      -510.23580834 eV

  energy without entropy =     -510.23580834  energy(sigma->0) =     -510.23580834


--------------------------------------------------------------------------------------------------------




--------------------------------------- Iteration      1(   8)  ---------------------------------------


    POTLOK:  cpu time    0.4406: real time    0.4427
    SETDIJ:  cpu time    0.0356: real time    0.0357
    EDDIAG:  cpu time   10.0894: real time   10.1214
  RMM-DIIS:  cpu time   37.2314: real time   37.3581
    ORTHCH:  cpu time    1.6185: real time    1.6230
 BZINTS: Fermi energy:  2.169506;778.000000 electrons
         Band energy:***********;  BLOECHL correction: -0.013365
       DOS:  cpu time    0.0269: real time    0.0270
    CHARGE:  cpu time    2.6970: real time    2.7042
    MIXING:  cpu time    0.0140: real time    0.0143
    --------------------------------------------
      LOOP:  cpu time   52.1533: real time   52.3264

 eigenvalue-minimisations  : 10015
 total energy-change (2. order) : 0.3466485E+02  (-0.1132276E+02)
[...]
      9.285403  5.901142  7.048540            0           0           0  
      3.833828  1.100724  0.971274            0           0           0  
      9.383058  5.869366  1.027641            0           0           0  
      5.293656  3.599639  0.970226            0           0           0  
     11.924778  8.898939  2.962048            0           0           0  
     11.981607  7.448374  4.855357            0           0           0  
     13.193916  6.597542  2.882437            0           0           0  
      9.303556  4.293801  2.835382            0           0           0  
      7.988368  8.217456  6.975596            0           0           0  
      8.046446  8.229719  0.959598            0           0           0  
     10.695259  6.742187  2.847658            0           0           0  
      2.615549  0.236938  5.015436            0           0           0  
      7.933692  3.561629  0.850090            0           0           0  
      5.202010  1.939702  2.981394            0           0           0  
      5.338761  6.630439  2.972345            0           0           0  
      7.928908  0.483479  4.850794            0           0           0  
      9.312937  1.216997  6.925420            0           0           0  
     10.595849  8.197855  6.954964            0           0           0  
      9.317076  1.158301  0.864467            0           0           0  
     10.665212  8.238233  0.863410            0           0           0  
      5.206873  5.107909  4.923290            0           0           0  
     11.938484  2.828573  4.893852            0           0           0  
     14.718570  9.081313  2.896185            0           0           0  
      9.370787  2.741080  4.940334            0           0           0  
      6.559717  2.770581  4.868703            0           0           0  
     11.985887  4.300799  2.860211            0           0           0  
      2.494481  1.932062  2.874749            0           0           0  
     12.009236  5.833312  0.946616            0           0           0  
      6.594007  5.893454  1.019087            0           0           0  
      8.063264  6.723522  2.857221            0           0           0  
      6.600611  4.253319  2.839239            0           0           0  
     10.684256  3.590625  7.018552            0           0           0  
     10.661759  3.516580  0.946802            0           0           0  
     10.670934  0.526185  4.879450            0           0           0  
      9.311335  7.483843  4.953735            0           0           0  
      6.698526  7.498825  4.948284            0           0           0  
      5.156621  0.258526  4.910685            0           0           0  
      3.131571  3.116817 10.402545     0.086940    0.149534    0.984927  
 
   2 f  =   27.939732 THz   175.550512 2PiTHz  931.969104 cm-1   115.549484 meV
             X         Y         Z           dx          dy          dz
     13.303296  8.283570  6.926997            0           0           0  
      5.256787  8.302812  6.871473            0           0           0  
      5.078221  3.596948  6.986060            0           0           0  
     14.723381  9.061804  9.181028            0           0           0  
      3.840552  4.382221  9.375933            0           0           0  
      6.587538  9.040257  9.144564            0           0           0  
     11.964162  4.329567  9.258624            0           0           0  
      9.281029  9.013044  9.160767            0           0           0  
     10.611812  1.981815  9.141722            0           0           0  
      2.495525  1.973098  9.266824            0           0           0  
     11.990325  9.026362  9.215732            0           0           0  
     13.353159  6.712298  9.267913            0           0           0  
      5.230322  1.939514  9.212012            0           0           0  
      7.958696  6.702241  9.210903            0           0           0  
      9.305784  4.346993  9.203465            0           0           0  
      5.195273  6.677221  9.231733            0           0           0  
      7.926553  1.980207  9.177278            0           0           0  
      7.989630  3.540346  6.929583            0           0           0  
      6.473198  1.188818  6.879211            0           0           0  
      6.625415  1.160332  1.015684            0           0           0  
      3.781242  4.311350  2.857028            0           0           0  
      1.241211  1.288900  6.886041            0           0           0  
      1.155667  1.236749  0.808122            0           0           0  
      6.623520  9.009001  2.946383            0           0           0  
      6.577559  4.344870  9.248202            0           0           0  
      7.924386  5.154587  4.809687            0           0           0  
     10.629064  6.684351  9.229120            0           0           0  
     14.636615  7.394658  4.850510            0           0           0  
     12.032571  5.858924  6.986455            0           0           0  
      6.586696  5.936756  6.951730            0           0           0  
      3.679311  2.605645  4.972553            0           0           0  
     10.647133  5.188120  4.859473            0           0           0  
      3.866735  5.951004  7.077435            0           0           0  
     13.314214  8.097277  1.056847            0           0           0  
      5.309055  8.115949  0.939361            0           0           0  
      3.928568  5.941560  0.935923            0           0           0  
      8.053859  2.129465  2.900542            0           0           0  
      9.328990  8.966088  2.903328            0           0           0  
      2.481566  3.608735  7.120118            0           0           0  
      2.353113  3.571451  0.915896            0           0           0  
     10.645881  2.029694  2.876600            0           0           0  
     13.320024  5.112937  4.938275            0           0           0  
      3.867505  1.070082  7.029137            0           0           0  
      9.285403  5.901142  7.048540            0           0           0  
      3.833828  1.100724  0.971274            0           0           0  
      9.383058  5.869366  1.027641            0           0           0  
      5.293656  3.599639  0.970226            0           0           0  
     11.924778  8.898939  2.962048            0           0           0  
     11.981607  7.448374  4.855357            0           0           0  
     13.193916  6.597542  2.882437            0           0           0  
      9.303556  4.293801  2.835382            0           0           0  
      7.988368  8.217456  6.975596            0           0           0  
      8.046446  8.229719  0.959598            0           0           0  
     10.695259  6.742187  2.847658            0           0           0  
      2.615549  0.236938  5.015436            0           0           0  
      7.933692  3.561629  0.850090            0           0           0  
      5.202010  1.939702  2.981394            0           0           0  
      5.338761  6.630439  2.972345            0           0           0  
      7.928908  0.483479  4.850794            0           0           0  
      9.312937  1.216997  6.925420            0           0           0  
     10.595849  8.197855  6.954964            0           0           0  
      9.317076  1.158301  0.864467            0           0           0  
     10.665212  8.238233  0.863410            0           0           0  
      5.206873  5.107909  4.923290            0           0           0  
     11.938484  2.828573  4.893852            0           0           0  
     14.718570  9.081313  2.896185            0           0           0  
      9.370787  2.741080  4.940334            0           0           0  
      6.559717  2.770581  4.868703            0           0           0  
     11.985887  4.300799  2.860211            0           0           0  
      2.494481  1.932062  2.874749            0           0           0  
     12.009236  5.833312  0.946616            0           0           0  
      6.594007  5.893454  1.019087            0           0           0  
      8.063264  6.723522  2.857221            0           0           0  
      6.600611  4.253319  2.839239            0           0           0  
     10.684256  3.590625  7.018552            0           0           0  
     10.661759  3.516580  0.946802            0           0           0  
     10.670934  0.526185  4.879450            0           0           0  
      9.311335  7.483843  4.953735            0           0           0  
      6.698526  7.498825  4.948284            0           0           0  
      5.156621  0.258526  4.910685            0           0           0  
      3.131571  3.116817 10.402545     0.533677    0.827847   -0.172793  
 
   3 f  =    2.815233 THz    17.688628 2PiTHz   93.906049 cm-1    11.642870 meV
             X         Y         Z           dx          dy          dz
     13.303296  8.283570  6.926997            0           0           0  
      5.256787  8.302812  6.871473            0           0           0  
      5.078221  3.596948  6.986060            0           0           0  
     14.723381  9.061804  9.181028            0           0           0  
      3.840552  4.382221  9.375933            0           0           0  
      6.587538  9.040257  9.144564            0           0           0  
     11.964162  4.329567  9.258624            0           0           0  
      9.281029  9.013044  9.160767            0           0           0  
     10.611812  1.981815  9.141722            0           0           0  
      2.495525  1.973098  9.266824            0           0           0  
     11.990325  9.026362  9.215732            0           0           0  
     13.353159  6.712298  9.267913            0           0           0  
      5.230322  1.939514  9.212012            0           0           0  
      7.958696  6.702241  9.210903            0           0           0  
      9.305784  4.346993  9.203465            0           0           0  
      5.195273  6.677221  9.231733            0           0           0  
      7.926553  1.980207  9.177278            0           0           0  
      7.989630  3.540346  6.929583            0           0           0  
      6.473198  1.188818  6.879211            0           0           0  
      6.625415  1.160332  1.015684            0           0           0  
      3.781242  4.311350  2.857028            0           0           0  
      1.241211  1.288900  6.886041            0           0           0  
      1.155667  1.236749  0.808122            0           0           0  
      6.623520  9.009001  2.946383            0           0           0  
      6.577559  4.344870  9.248202            0           0           0  
      7.924386  5.154587  4.809687            0           0           0  
     10.629064  6.684351  9.229120            0           0           0  
     14.636615  7.394658  4.850510            0           0           0  
     12.032571  5.858924  6.986455            0           0           0  
      6.586696  5.936756  6.951730            0           0           0  
      3.679311  2.605645  4.972553            0           0           0  
     10.647133  5.188120  4.859473            0           0           0  
      3.866735  5.951004  7.077435            0           0           0  
     13.314214  8.097277  1.056847            0           0           0  
      5.309055  8.115949  0.939361            0           0           0  
      3.928568  5.941560  0.935923            0           0           0  
      8.053859  2.129465  2.900542            0           0           0  
      9.328990  8.966088  2.903328            0           0           0  
      2.481566  3.608735  7.120118            0           0           0  
      2.353113  3.571451  0.915896            0           0           0  
     10.645881  2.029694  2.876600            0           0           0  
     13.320024  5.112937  4.938275            0           0           0  
      3.867505  1.070082  7.029137            0           0           0  
      9.285403  5.901142  7.048540            0           0           0  
      3.833828  1.100724  0.971274            0           0           0  
      9.383058  5.869366  1.027641            0           0           0  
      5.293656  3.599639  0.970226            0           0           0  
     11.924778  8.898939  2.962048            0           0           0  
     11.981607  7.448374  4.855357            0           0           0  
     13.193916  6.597542  2.882437            0           0           0  
      9.303556  4.293801  2.835382            0           0           0  
      7.988368  8.217456  6.975596            0           0           0  
      8.046446  8.229719  0.959598            0           0           0  
     10.695259  6.742187  2.847658            0           0           0  
      2.615549  0.236938  5.015436            0           0           0  
      7.933692  3.561629  0.850090            0           0           0  
      5.202010  1.939702  2.981394            0           0           0  
      5.338761  6.630439  2.972345            0           0           0  
      7.928908  0.483479  4.850794            0           0           0  
      9.312937  1.216997  6.925420            0           0           0  
     10.595849  8.197855  6.954964            0           0           0  
      9.317076  1.158301  0.864467            0           0           0  
     10.665212  8.238233  0.863410            0           0           0  
      5.206873  5.107909  4.923290            0           0           0  
     11.938484  2.828573  4.893852            0           0           0  
     14.718570  9.081313  2.896185            0           0           0  
      9.370787  2.741080  4.940334            0           0           0  
      6.559717  2.770581  4.868703            0           0           0  
     11.985887  4.300799  2.860211            0           0           0  
      2.494481  1.932062  2.874749            0           0           0  
     12.009236  5.833312  0.946616            0           0           0  
      6.594007  5.893454  1.019087            0           0           0  
      8.063264  6.723522  2.857221            0           0           0  
      6.600611  4.253319  2.839239            0           0           0  
     10.684256  3.590625  7.018552            0           0           0  
     10.661759  3.516580  0.946802            0           0           0  
     10.670934  0.526185  4.879450            0           0           0  
      9.311335  7.483843  4.953735            0           0           0  
      6.698526  7.498825  4.948284            0           0           0  
      5.156621  0.258526  4.910685            0           0           0  
      3.131571  3.116817 10.402545     0.841208   -0.540655    0.007830  
 
 Finite differences POTIM=  1.500000000000000E-002
  LATTYP: Found a hexagonal cell.
 ALAT       =    10.8599996567
 C/A-ratio  =     2.0257827528
  
  Lattice vectors:
  
 A1 = (   5.4299998284,  -9.4050355878,   0.0000000000)
 A2 = ( -10.8599996567,   0.0000000000,   0.0000000000)
 A3 = (   0.0000000000,   0.0000000000, -22.0000000000)


Analysis of symmetry for initial positions (statically):
=====================================================================
 Subroutine PRICEL returns:
 Original cell was already a primitive cell.
 

 Routine SETGRP: Setting up the symmetry group for a 
 hexagonal supercell.


 Subroutine GETGRP returns: Found  1 space group operations
 (whereof  1 operations were pure point group operations)
 out of a pool of 24 trial point group operations.


The static configuration has the point symmetry C_1 .


Analysis of symmetry for dynamics (positions and initial velocities):
=====================================================================
 Subroutine PRICEL returns:
 Original cell was already a primitive cell.
 

 Routine SETGRP: Setting up the symmetry group for a 
 hexagonal supercell.


 Subroutine GETGRP returns: Found  1 space group operations
 (whereof  1 operations were pure point group operations)
 out of a pool of 24 trial point group operations.


The dynamic configuration has the point symmetry C_1 .


Analysis of constrained symmetry for selective dynamics:
=====================================================================
 Subroutine PRICEL returns:
 Original cell was already a primitive cell.
 

 Routine SETGRP: Setting up the symmetry group for a 
 hexagonal supercell.


 Subroutine GETGRP returns: Found  1 space group operations
 (whereof  1 operations were pure point group operations)
 out of a pool of 24 trial point group operations.


The constrained configuration has the point symmetry C_1 .


Analysis of structural, dynamic, and magnetic symmetry:
=====================================================================
 Subroutine PRICEL returns:
 Original cell was already a primitive cell.
 

 Routine SETGRP: Setting up the symmetry group for a 
 hexagonal supercell.


 Subroutine GETGRP returns: Found  1 space group operations
 (whereof  1 operations were pure point group operations)
 out of a pool of 24 trial point group operations.


The magnetic configuration has the point symmetry C_1 .


 Subroutine INISYM returns: Found  1 space group operations
 (whereof  1 operations are pure point group operations),
 and found     1 'primitive' translations

 
 KPOINTS: mesh auto                               

Automatic generation of k-mesh.
Space group operators:
 irot       det(A)        alpha          n_x          n_y          n_z        tau_x        tau_y        tau_z
    1     1.000000     0.000001     1.000000     0.000000     0.000000     0.000000     0.000000     0.000000
 
 Subroutine IBZKPT returns following result:
 ===========================================
 
 Found      4 irreducible k-points:
 
 Following reciprocal coordinates:
            Coordinates               Weight
  0.000000  0.000000  0.000000      1.000000
  0.500000  0.000000  0.000000      1.000000
  0.000000  0.500000  0.000000      1.000000
  0.500000  0.500000  0.000000      1.000000
 
 Following cartesian coordinates:
            Coordinates               Weight
  0.000000  0.000000  0.000000      1.000000
  0.046041 -0.026582  0.000000      1.000000
  0.000000  0.053163  0.000000      1.000000
  0.046041  0.026582  0.000000      1.000000
 
 TETIRR: Found     12 inequivalent tetrahedra from       24
     LOOP+:  cpu time  521.3951: real time  523.8052
    4ORBIT:  cpu time    0.0000: real time    0.0000
 BZINTS: Fermi energy:  1.697126;778.000000 electrons
         Band energy:-874.302141;  BLOECHL correction: -0.271415

 total amount of memory used by VASP MPI-rank0   370194. kBytes
=======================================================================

   base      :      30000. kBytes
   nonlr-proj:      93057. kBytes
   fftplans  :      12162. kBytes
   grid      :     120476. kBytes
   one-center:       2519. kBytes
   wavefun   :     111980. kBytes
 
  
  
 General timing and accounting informations for this job:
 ========================================================
  
                  Total CPU time used (sec):     7849.172
                            User time (sec):     7773.173
                          System time (sec):       75.998
                         Elapsed time (sec):     7900.672
  
                   Maximum memory used (kb):      682248.
                   Average memory used (kb):           0.
  
                          Minor page faults:     21062455
                          Major page faults:          137
                 Voluntary context switches:         7920
