 vasp.5.4.4.18Apr17-6-g9f103f2a35 (build Oct 25 2019 11:13:22) complex          
  
 executed on             LinuxIFC date 2021.10.11  21:11:29
 running on   48 total cores
 distrk:  each k-point on   48 cores,    1 groups
 distr:  one band on NCORES_PER_BAND=   4 cores,   12 groups


--------------------------------------------------------------------------------------------------------


 INCAR:
 POTCAR:    PAW_PBE Pt 04Feb2005                  
 POTCAR:    PAW_PBE Fe 06Sep2000                  
 POTCAR:    PAW_PBE Co 02Aug2007                  
 POTCAR:    PAW_PBE Cu 22Jun2005                  
 POTCAR:    PAW_PBE Ni 02Aug2007                  
 POTCAR:    PAW_PBE H 15Jun2001                   
 POTCAR:    PAW_PBE Pt 04Feb2005                  
   VRHFIN =Pt: s1d9                                                             
   LEXCH  = PE                                                                  
   EATOM  =   729.1176 eV,   53.5886 Ry                                         
                                                                                
   TITEL  = PAW_PBE Pt 04Feb2005                                                
   LULTRA =        F    use ultrasoft PP ?                                      
   IUNSCR =        1    unscreen: 0-lin 1-nonlin 2-no                           
   RPACOR =    2.330    partial core radius                                     
   POMASS =  195.080; ZVAL   =   10.000    mass and valenz                      
   RCORE  =    2.600    outmost cutoff radius                                   
   RWIGS  =    2.750; RWIGS  =    1.455    wigner-seitz radius (au A)           
   ENMAX  =  230.283; ENMIN  =  172.712 eV                                      
   ICORE  =        3    local potential                                         
   LCOR   =        T    correct aug charges                                     
   LPAW   =        T    paw PP                                                  
   EAUG   =  358.966                                                            
   DEXC   =    0.000                                                            
   RMAX   =    2.658    core radius for proj-oper                               
   RAUG   =    1.300    factor for augmentation sphere                          
   RDEP   =    2.761    radius for radial grids                                 
   RDEPT  =    2.203    core radius for aug-charge                              
                                                                                
   Atomic configuration                                                         
   16 entries                                                                   
     n  l   j            E        occ.                                          
     1  0  0.50    -78401.1885   2.0000                                         
     2  0  0.50    -13770.7750   2.0000                                         
     2  1  1.50    -11931.0468   6.0000                                         
     3  0  0.50     -3234.7234   2.0000                                         
     3  1  1.50     -2699.2216   6.0000                                         
     3  2  2.50     -2119.5714  10.0000                                         
     4  0  0.50      -695.1528   2.0000                                         
     4  1  1.50      -519.6034   6.0000                                         
     4  2  2.50      -306.6786  10.0000                                         
     4  3  3.50       -70.1041  14.0000                                         
     5  0  0.50      -101.7747   2.0000                                         
     5  1  1.50       -55.9873   6.0000                                         
     5  2  2.50        -6.1423   9.0000                                         
     6  0  0.50        -5.6573   1.0000                                         
     6  1  1.50        -6.8029   0.0000                                         
     5  3  2.50        -1.3606   0.0000                                         
   Description                                                                  
     l       E           TYP  RCUT    TYP  RCUT                                 
     2     -6.1423404     23  2.500                                             
     2     -7.5029230     23  2.500                                             
     0     -5.6573207     23  2.500                                             
     0      0.7416693     23  2.500                                             
     1     -2.7211652     23  2.600                                             
     1     20.4087390     23  2.600                                             
     3     -1.3605826     23  2.500                                             
  local pseudopotential read in
  partial core-charges read in
  partial kinetic energy density read in
  atomic valenz-charges read in
  non local Contribution for L=           2  read in
    real space projection operators read in
  non local Contribution for L=           2  read in
    real space projection operators read in
  non local Contribution for L=           0  read in
    real space projection operators read in
  non local Contribution for L=           0  read in
    real space projection operators read in
  non local Contribution for L=           1  read in
    real space projection operators read in
  non local Contribution for L=           1  read in
    real space projection operators read in
    PAW grid and wavefunctions read in
 
   number of l-projection  operators is LMAX  =           6
   number of lm-projection operators is LMMAX =          18
 
 POTCAR:    PAW_PBE Fe 06Sep2000                  
   VRHFIN =Fe:  d7 s1                                                           
   LEXCH  = PE                                                                  
   EATOM  =   594.3153 eV,   43.6809 Ry                                         
                                                                                
   TITEL  = PAW_PBE Fe 06Sep2000                                                
   LULTRA =        F    use ultrasoft PP ?                                      
   IUNSCR =        1    unscreen: 0-lin 1-nonlin 2-no                           
   RPACOR =    2.000    partial core radius                                     
   POMASS =   55.847; ZVAL   =    8.000    mass and valenz                      
   RCORE  =    2.300    outmost cutoff radius                                   
   RWIGS  =    2.460; RWIGS  =    1.302    wigner-seitz radius (au A)           
   ENMAX  =  267.882; ENMIN  =  200.911 eV                                      
   RCLOC  =    1.701    cutoff for local pot                                    
   LCOR   =        T    correct aug charges                                     
   LPAW   =        T    paw PP                                                  
   EAUG   =  511.368                                                            
   DEXC   =    0.000                                                            
   RMAX   =    2.356    core radius for proj-oper                               
   RAUG   =    1.300    factor for augmentation sphere                          
   RDEP   =    2.442    radius for radial grids                                 
   RDEPT  =    1.890    core radius for aug-charge                              
                                                                                
   Atomic configuration                                                         
    9 entries                                                                   
     n  l   j            E        occ.                                          
     1  0  0.50     -6993.8440   2.0000                                         
     2  0  0.50      -814.6047   2.0000                                         
     2  1  1.50      -693.3689   6.0000                                         
     3  0  0.50       -89.4732   2.0000                                         
     3  1  1.50       -55.6373   6.0000                                         
     3  2  2.50        -3.8151   7.0000                                         
     4  0  0.50        -4.2551   1.0000                                         
     4  1  1.50        -3.4015   0.0000                                         
     4  3  2.50        -1.3606   0.0000                                         
   Description                                                                  
     l       E           TYP  RCUT    TYP  RCUT                                 
     2     -3.8151135     23  2.300                                             
     2     -5.1756961     23  2.300                                             
     0     -4.2550963     23  2.300                                             
     0      7.2035603     23  2.300                                             
     1     -2.7211652     23  2.300                                             
     1     18.4316424     23  2.300                                             
  local pseudopotential read in
  partial core-charges read in
  partial kinetic energy density read in
  atomic valenz-charges read in
  non local Contribution for L=           2  read in
    real space projection operators read in
  non local Contribution for L=           2  read in
    real space projection operators read in
  non local Contribution for L=           0  read in
    real space projection operators read in
  non local Contribution for L=           0  read in
    real space projection operators read in
  non local Contribution for L=           1  read in
    real space projection operators read in
  non local Contribution for L=           1  read in
    real space projection operators read in
    PAW grid and wavefunctions read in
 
   number of l-projection  operators is LMAX  =           6
   number of lm-projection operators is LMMAX =          18
 
 POTCAR:    PAW_PBE Co 02Aug2007                  
   VRHFIN =Co: d8 s1                                                            
   LEXCH  = PE                                                                  
   EATOM  =   813.3670 eV,   59.7808 Ry                                         
                                                                                
   TITEL  = PAW_PBE Co 02Aug2007                                                
   LULTRA =        F    use ultrasoft PP ?                                      
   IUNSCR =        1    unscreen: 0-lin 1-nonlin 2-no                           
   RPACOR =    2.000    partial core radius                                     
   POMASS =   58.933; ZVAL   =    9.000    mass and valenz                      
   RCORE  =    2.300    outmost cutoff radius                                   
   RWIGS  =    2.460; RWIGS  =    1.302    wigner-seitz radius (au A)           
   ENMAX  =  267.968; ENMIN  =  200.976 eV                                      
   RCLOC  =    1.203    cutoff for local pot                                    
   LCOR   =        T    correct aug charges                                     
   LPAW   =        T    paw PP                                                  
   EAUG   =  477.818                                                            
   DEXC   =    0.000                                                            
   RMAX   =    2.360    core radius for proj-oper                               
   RAUG   =    1.300    factor for augmentation sphere                          
   RDEP   =    2.393    radius for radial grids                                 
   RDEPT  =    1.864    core radius for aug-charge                              
                                                                                
   Atomic configuration                                                         
    9 entries                                                                   
     n  l   j            E        occ.                                          
     1  0  0.50     -7587.6674   2.0000                                         
     2  0  0.50      -893.6084   2.0000                                         
     2  1  1.50      -764.5805   6.0000                                         
     3  0  0.50       -97.5973   2.0000                                         
     3  1  1.50       -60.9648   6.0000                                         
     3  2  2.50        -4.2382   8.0000                                         
     4  0  0.50        -4.3746   1.0000                                         
     4  1  1.50        -4.0817   0.0000                                         
     4  3  2.50        -1.3606   0.0000                                         
   Description                                                                  
     l       E           TYP  RCUT    TYP  RCUT                                 
     2     -4.2382362     23  2.300                                             
     2     -5.5988188     23  2.300                                             
     0     -4.3745797     23  2.300                                             
     0      5.7660125     23  2.300                                             
     1     -2.7211652     23  2.300                                             
     1     16.9860234     23  2.300                                             
  local pseudopotential read in
  partial core-charges read in
  partial kinetic energy density read in
  atomic valenz-charges read in
  non local Contribution for L=           2  read in
    real space projection operators read in
  non local Contribution for L=           2  read in
    real space projection operators read in
  non local Contribution for L=           0  read in
    real space projection operators read in
  non local Contribution for L=           0  read in
    real space projection operators read in
  non local Contribution for L=           1  read in
    real space projection operators read in
  non local Contribution for L=           1  read in
    real space projection operators read in
    PAW grid and wavefunctions read in
 
   number of l-projection  operators is LMAX  =           6
   number of lm-projection operators is LMMAX =          18
 
 POTCAR:    PAW_PBE Cu 22Jun2005                  
   VRHFIN =Cu: d10 p1                                                           
   LEXCH  = PE                                                                  
   EATOM  =  1390.9808 eV,  102.2342 Ry                                         
                                                                                
   TITEL  = PAW_PBE Cu 22Jun2005                                                
   LULTRA =        F    use ultrasoft PP ?                                      
   IUNSCR =        1    unscreen: 0-lin 1-nonlin 2-no                           
   RPACOR =    2.000    partial core radius                                     
   POMASS =   63.546; ZVAL   =   11.000    mass and valenz                      
   RCORE  =    2.300    outmost cutoff radius                                   
   RWIGS  =    2.200; RWIGS  =    1.164    wigner-seitz radius (au A)           
   ENMAX  =  295.446; ENMIN  =  221.585 eV                                      
   ICORE  =        3    local potential                                         
   LCOR   =        T    correct aug charges                                     
   LPAW   =        T    paw PP                                                  
   EAUG   =  586.980                                                            
   DEXC   =    0.000                                                            
   RMAX   =    2.344    core radius for proj-oper                               
   RAUG   =    1.300    factor for augmentation sphere                          
   RDEP   =    2.302    radius for radial grids                                 
   RDEPT  =    1.771    core radius for aug-charge                              
                                                                                
   Atomic configuration                                                         
    9 entries                                                                   
     n  l   j            E        occ.                                          
     1  0  0.50     -8850.2468   2.0000                                         
     2  0  0.50     -1062.3498   2.0000                                         
     2  1  1.50      -916.8226   6.0000                                         
     3  0  0.50      -114.6929   2.0000                                         
     3  1  1.50       -72.1325   6.0000                                         
     3  2  2.50        -5.0394  10.0000                                         
     4  0  0.50        -4.6097   1.0000                                         
     4  1  0.50        -4.0817   0.0000                                         
     4  3  2.50        -1.3606   0.0000                                         
   Description                                                                  
     l       E           TYP  RCUT    TYP  RCUT                                 
     2     -5.0393973     23  2.200                                             
     2     10.8846608     23  2.200                                             
     0     -4.6097109     23  2.200                                             
     0      8.2520465     23  2.200                                             
     1     -2.7211652     23  2.200                                             
     1     21.7055443     23  2.200                                             
     3      2.7211652     23  2.300                                             
  local pseudopotential read in
  partial core-charges read in
  partial kinetic energy density read in
  atomic valenz-charges read in
  non local Contribution for L=           2  read in
    real space projection operators read in
  non local Contribution for L=           2  read in
    real space projection operators read in
  non local Contribution for L=           0  read in
    real space projection operators read in
  non local Contribution for L=           0  read in
    real space projection operators read in
  non local Contribution for L=           1  read in
    real space projection operators read in
  non local Contribution for L=           1  read in
    real space projection operators read in
    PAW grid and wavefunctions read in
 
   number of l-projection  operators is LMAX  =           6
   number of lm-projection operators is LMMAX =          18
 
 POTCAR:    PAW_PBE Ni 02Aug2007                  
   VRHFIN =Ni:                                                                  
   LEXCH  = PE                                                                  
   EATOM  =  1077.6739 eV,   79.2068 Ry                                         
                                                                                
   TITEL  = PAW_PBE Ni 02Aug2007                                                
   LULTRA =        F    use ultrasoft PP ?                                      
   IUNSCR =        1    unscreen: 0-lin 1-nonlin 2-no                           
   RPACOR =    2.000    partial core radius                                     
   POMASS =   58.690; ZVAL   =   10.000    mass and valenz                      
   RCORE  =    2.300    outmost cutoff radius                                   
   RWIGS  =    2.430; RWIGS  =    1.286    wigner-seitz radius (au A)           
   ENMAX  =  269.532; ENMIN  =  202.149 eV                                      
   RCLOC  =    1.201    cutoff for local pot                                    
   LCOR   =        T    correct aug charges                                     
   LPAW   =        T    paw PP                                                  
   EAUG   =  544.565                                                            
   DEXC   =    0.000                                                            
   RMAX   =    2.357    core radius for proj-oper                               
   RAUG   =    1.300    factor for augmentation sphere                          
   RDEP   =    2.390    radius for radial grids                                 
   RDEPT  =    1.838    core radius for aug-charge                              
                                                                                
   Atomic configuration                                                         
    9 entries                                                                   
     n  l   j            E        occ.                                          
     1  0  0.50     -8206.4253   2.0000                                         
     2  0  0.50      -976.1748   2.0000                                         
     2  1  1.50      -839.0571   6.0000                                         
     3  0  0.50      -105.9991   2.0000                                         
     3  1  1.50       -66.4603   6.0000                                         
     3  2  2.50        -4.6458   9.0000                                         
     4  0  0.50        -4.4926   1.0000                                         
     4  1  1.50        -4.0817   0.0000                                         
     4  3  2.50        -1.3606   0.0000                                         
   Description                                                                  
     l       E           TYP  RCUT    TYP  RCUT                                 
     2     -4.6457903     23  2.300                                             
     2     -6.0063729     23  2.300                                             
     0     -4.4925590     23  2.300                                             
     0      5.0102601     23  2.300                                             
     1     -2.7211652     23  2.300                                             
     1     16.5183231     23  2.300                                             
  local pseudopotential read in
  partial core-charges read in
  partial kinetic energy density read in
  atomic valenz-charges read in
  non local Contribution for L=           2  read in
    real space projection operators read in
  non local Contribution for L=           2  read in
    real space projection operators read in
  non local Contribution for L=           0  read in
    real space projection operators read in
  non local Contribution for L=           0  read in
    real space projection operators read in
  non local Contribution for L=           1  read in
    real space projection operators read in
  non local Contribution for L=           1  read in
    real space projection operators read in
    PAW grid and wavefunctions read in
 
   number of l-projection  operators is LMAX  =           6
   number of lm-projection operators is LMMAX =          18
 
 POTCAR:    PAW_PBE H 15Jun2001                   
   VRHFIN =H: ultrasoft test                                                    
   LEXCH  = PE                                                                  
   EATOM  =    12.4884 eV,    0.9179 Ry                                         
                                                                                
   TITEL  = PAW_PBE H 15Jun2001                                                 
   LULTRA =        F    use ultrasoft PP ?                                      
   IUNSCR =        0    unscreen: 0-lin 1-nonlin 2-no                           
   RPACOR =    0.000    partial core radius                                     
   POMASS =    1.000; ZVAL   =    1.000    mass and valenz                      
   RCORE  =    1.100    outmost cutoff radius                                   
   RWIGS  =    0.700; RWIGS  =    0.370    wigner-seitz radius (au A)           
   ENMAX  =  250.000; ENMIN  =  200.000 eV                                      
   RCLOC  =    0.701    cutoff for local pot                                    
   LCOR   =        T    correct aug charges                                     
   LPAW   =        T    paw PP                                                  
   EAUG   =  400.000                                                            
   RMAX   =    1.123    core radius for proj-oper                               
   RAUG   =    1.200    factor for augmentation sphere                          
   RDEP   =    1.112    radius for radial grids                                 
   RDEPT  =    0.926    core radius for aug-charge                              
                                                                                
   Atomic configuration                                                         
    2 entries                                                                   
     n  l   j            E        occ.                                          
     1  0  0.50        -6.4927   1.0000                                         
     2  1  0.50        -3.4015   0.0000                                         
   Description                                                                  
     l       E           TYP  RCUT    TYP  RCUT                                 
     0     -6.4927494     23  1.100                                             
     0      6.8029130     23  1.100                                             
     1     -4.0817478     23  1.100                                             
  local pseudopotential read in
  atomic valenz-charges read in
  non local Contribution for L=           0  read in
    real space projection operators read in
  non local Contribution for L=           0  read in
    real space projection operators read in
  non local Contribution for L=           1  read in
    real space projection operators read in
    PAW grid and wavefunctions read in
 
   number of l-projection  operators is LMAX  =           3
   number of lm-projection operators is LMMAX =           5
 
 Optimization of the real space projectors (new method)

 maximal supplied QI-value         = 14.36
 optimisation between [QCUT,QGAM] = [ 11.92, 23.98] = [ 39.79,161.09] Ry 
 Optimized for a Real-space Cutoff    1.49 Angstroem

   l    n(q)    QCUT    max X(q) W(low)/X(q) W(high)/X(q)  e(spline) 
   2     10    11.920    66.195    0.79E-04    0.18E-03    0.24E-06
   2     10    11.920    64.643    0.81E-04    0.19E-03    0.24E-06
   0     11    11.920    95.520    0.28E-04    0.54E-04    0.18E-06
   0     11    11.920    63.403    0.27E-04    0.52E-04    0.17E-06
   1     10    11.920    19.961    0.18E-04    0.11E-03    0.23E-06
   1     10    11.920    13.289    0.25E-04    0.87E-04    0.19E-06
 Optimization of the real space projectors (new method)

 maximal supplied QI-value         = 16.25
 optimisation between [QCUT,QGAM] = [ 11.86, 23.89] = [ 39.41,159.82] Ry 
 Optimized for a Real-space Cutoff    1.49 Angstroem

   l    n(q)    QCUT    max X(q) W(low)/X(q) W(high)/X(q)  e(spline) 
   2     10    11.864    80.901    0.13E-03    0.23E-03    0.37E-06
   2     10    11.864    75.754    0.13E-03    0.23E-03    0.38E-06
   0     11    11.864    58.752    0.44E-04    0.11E-04    0.20E-06
   0     11    11.864    30.679    0.36E-04    0.10E-04    0.18E-06
   1     10    11.864    17.977    0.31E-04    0.45E-04    0.10E-06
   1     10    11.864    13.559    0.25E-04    0.37E-04    0.89E-07
 Optimization of the real space projectors (new method)

 maximal supplied QI-value         = 16.25
 optimisation between [QCUT,QGAM] = [ 11.86, 23.89] = [ 39.41,159.82] Ry 
 Optimized for a Real-space Cutoff    1.33 Angstroem

   l    n(q)    QCUT    max X(q) W(low)/X(q) W(high)/X(q)  e(spline) 
   2      9    11.864    65.824    0.22E-03    0.53E-03    0.26E-06
   2      9    11.864    61.429    0.22E-03    0.53E-03    0.26E-06
   0      9    11.864    56.174    0.21E-03    0.32E-04    0.15E-06
   0      9    11.864    31.263    0.19E-03    0.30E-04    0.14E-06
   1      9    11.864    19.828    0.63E-04    0.30E-03    0.16E-06
   1      9    11.864    15.139    0.49E-04    0.25E-03    0.13E-06
 Optimization of the real space projectors (new method)

 maximal supplied QI-value         = 16.25
 optimisation between [QCUT,QGAM] = [ 11.86, 23.89] = [ 39.41,159.82] Ry 
 Optimized for a Real-space Cutoff    1.49 Angstroem

   l    n(q)    QCUT    max X(q) W(low)/X(q) W(high)/X(q)  e(spline) 
   2     10    11.864     4.610    0.10E-03    0.20E-03    0.29E-06
   2     10    11.864     8.522    0.17E-03    0.33E-03    0.50E-06
   0     11    11.864    51.609    0.52E-04    0.55E-04    0.33E-06
   0     11    11.864    27.747    0.46E-04    0.52E-04    0.31E-06
   1     10    11.864    20.408    0.54E-04    0.25E-04    0.21E-06
   1     10    11.864    13.425    0.48E-04    0.22E-04    0.18E-06
 Optimization of the real space projectors (new method)

 maximal supplied QI-value         = 16.25
 optimisation between [QCUT,QGAM] = [ 11.86, 23.89] = [ 39.41,159.82] Ry 
 Optimized for a Real-space Cutoff    1.33 Angstroem

   l    n(q)    QCUT    max X(q) W(low)/X(q) W(high)/X(q)  e(spline) 
   2      9    11.864    60.317    0.21E-03    0.51E-03    0.25E-06
   2      9    11.864    55.921    0.21E-03    0.51E-03    0.26E-06
   0      9    11.864    51.690    0.22E-03    0.30E-04    0.17E-06
   0      9    11.864    30.015    0.20E-03    0.28E-04    0.15E-06
   1      9    11.864    18.849    0.76E-04    0.33E-03    0.17E-06
   1      9    11.864    14.624    0.60E-04    0.28E-03    0.15E-06
 Optimization of the real space projectors (new method)

 maximal supplied QI-value         = 34.20
 optimisation between [QCUT,QGAM] = [ 11.97, 23.94] = [ 40.13,160.53] Ry 
 Optimized for a Real-space Cutoff    1.18 Angstroem

   l    n(q)    QCUT    max X(q) W(low)/X(q) W(high)/X(q)  e(spline) 
   0      8    11.971    19.460    0.15E-03    0.31E-03    0.25E-06
   0      8    11.971    12.209    0.13E-03    0.29E-03    0.25E-06
   1      8    11.971     4.655    0.22E-03    0.24E-03    0.21E-06
  PAW_PBE Pt 04Feb2005                  :
 energy of atom  1       EATOM= -729.1176
 kinetic energy error for atom=    0.0021 (will be added to EATOM!!)
  PAW_PBE Fe 06Sep2000                  :
 energy of atom  2       EATOM= -594.3153
 kinetic energy error for atom=    0.0024 (will be added to EATOM!!)
  PAW_PBE Co 02Aug2007                  :
 energy of atom  3       EATOM= -813.3670
 kinetic energy error for atom=    0.0026 (will be added to EATOM!!)
  PAW_PBE Cu 22Jun2005                  :
 energy of atom  4       EATOM=-1390.9808
 kinetic energy error for atom=    0.0036 (will be added to EATOM!!)
  PAW_PBE Ni 02Aug2007                  :
 energy of atom  5       EATOM=-1077.6739
 kinetic energy error for atom=    0.0027 (will be added to EATOM!!)
  PAW_PBE H 15Jun2001                   :
 energy of atom  6       EATOM=  -12.4884
 kinetic energy error for atom=    0.0008 (will be added to EATOM!!)
 
 
 POSCAR: 10.46                                   
  positions in direct lattice
  velocities in cartesian coordinates
 exchange correlation table for  LEXCH =        8
   RHO(1)=    0.500       N(1)  =     2000
   RHO(2)=  100.500       N(2)  =     4000
 


--------------------------------------------------------------------------------------------------------


 ion  position               nearest neighbor table
   1  0.789  0.879  0.319-  19 2.61  33 2.62  28 2.63  60 2.64  61 2.64  49 2.65  29 2.66  59 2.66
                             2 2.67  11 2.78  12 2.84   4 2.93
   2  0.042  0.883  0.318-  79 2.57  60 2.59  30 2.62  77 2.62  52 2.64  33 2.65  22 2.66  28 2.67
                             1 2.67   6 2.80   4 2.97  16 2.99
   3  0.279  0.381  0.321-  39 2.54  33 2.56  64 2.58  31 2.63  43 2.68  19 2.68  30 2.69  68 2.73
                            18 2.79  13 2.80   5 2.80  25 2.87
   4  0.872  0.963  0.433-  81 1.80  17 2.59  11 2.60   9 2.64  12 2.64   6 2.66  16 2.67   1 2.93
                            60 2.95   2 2.97
   5  0.123  0.461  0.431-  16 2.60  12 2.60   7 2.61  10 2.61  13 2.64  25 2.64  33 2.74  39 2.75
                             3 2.80
   6  0.125  0.963  0.426-   8 2.60  10 2.60   9 2.63  14 2.63   4 2.66  16 2.66   2 2.80  52 2.86
                            22 2.92
   7  0.874  0.460  0.430-  15 2.60   9 2.60   5 2.61  12 2.61  10 2.61  27 2.63  39 2.72  75 2.82
                            29 2.84
   8  0.374  0.960  0.421-  14 2.59   6 2.60  27 2.60  43 2.61  13 2.61  11 2.62  10 2.62  52 2.70
                            61 2.73
   9  0.873  0.213  0.421-  15 2.59   7 2.60  17 2.61  10 2.63   6 2.63   4 2.64  75 2.67  60 2.71
                            22 2.81
  10  0.125  0.211  0.424-   6 2.60  13 2.60   5 2.61   7 2.61   8 2.62   9 2.63  39 2.67  43 2.73
                            22 2.80
  11  0.624  0.961  0.426-  81 1.93   4 2.60  13 2.61  27 2.62  17 2.62  12 2.62   8 2.62   1 2.78
                            19 2.84  61 2.86
  12  0.874  0.710  0.428-   5 2.60   7 2.61  27 2.61  11 2.62  16 2.64   4 2.64  33 2.67  29 2.82
                             1 2.84
  13  0.375  0.209  0.426-  10 2.60  11 2.61   8 2.61  17 2.63   5 2.64  25 2.64  43 2.78   3 2.80
                            19 2.84
  14  0.377  0.711  0.424-  27 2.57   8 2.59  15 2.61  25 2.63   6 2.63  16 2.64  44 2.69  30 2.75
                            52 2.78
  15  0.626  0.461  0.424-   9 2.59   7 2.60  27 2.60  14 2.61  25 2.62  17 2.63  44 2.71  75 2.73
                            18 2.76
  16  0.127  0.708  0.433-  25 2.59   5 2.60  12 2.64  14 2.64   6 2.66   4 2.67  33 2.75  30 2.91
                             2 2.99
  17  0.625  0.211  0.423-  81 1.89   4 2.59   9 2.61  11 2.62  25 2.62  15 2.63  13 2.63  18 2.77
                            60 2.77  19 2.86
  18  0.548  0.376  0.317-  67 2.57  60 2.57  75 2.58  44 2.63  68 2.66  26 2.66  30 2.68  19 2.70
                            15 2.76  17 2.77   3 2.79  25 2.91
  19  0.535  0.124  0.316-  43 2.55  80 2.55  68 2.58  59 2.60  61 2.61   1 2.61   3 2.68  18 2.70
                            60 2.72  11 2.84  13 2.84  17 2.86
  20  0.546  0.123  0.038-  37 2.55  57 2.56  48 2.58  62 2.61  45 2.65  63 2.65  47 2.66  56 2.67
                            34 2.68
  21  0.121  0.460  0.127-  40 2.52  47 2.53  36 2.53  69 2.59  42 2.60  70 2.61  50 2.62  64 2.62
                            58 2.64  57 2.68  74 2.69  31 2.70
  22  0.043  0.136  0.315-  65 2.52  55 2.53  43 2.55  39 2.56  77 2.57  75 2.58  60 2.65   2 2.66
                            52 2.70  10 2.80   9 2.81   6 2.92  31 3.39
  23  0.043  0.130  0.032-  70 2.58  40 2.59  45 2.59  41 2.62  62 2.62  76 2.62  24 2.68  35 2.69
                            53 2.75
  24  0.130  0.958  0.131-  79 2.51  77 2.53  53 2.57  35 2.58  55 2.58  70 2.59  58 2.62  38 2.62
                            73 2.63  66 2.68  23 2.68  41 2.70
  25  0.375  0.461  0.429-  16 2.59  17 2.62  15 2.62  14 2.63   5 2.64  13 2.64  30 2.86   3 2.87
                            18 2.91
  26  0.454  0.545  0.219-  73 2.49  74 2.54  51 2.56  79 2.59  64 2.60  68 2.65  78 2.65  18 2.66
                            30 2.66  32 2.67  67 2.70  44 2.76
  27  0.623  0.711  0.426-  14 2.57   8 2.60  15 2.60  12 2.61  11 2.62   7 2.63  44 2.71  29 2.80
                            61 2.80
  28  0.956  0.790  0.221-  58 2.57  42 2.57  66 2.58  50 2.59  49 2.59  64 2.61   1 2.63   2 2.67
                            59 2.67  79 2.72  77 2.73  33 2.75
  29  0.794  0.622  0.319-  39 2.51  75 2.55  42 2.56  44 2.61  32 2.62  33 2.64  61 2.65   1 2.66
                            49 2.70  27 2.80  12 2.82   7 2.84
  30  0.291  0.631  0.319-  79 2.58  52 2.59  44 2.61  64 2.61   2 2.62  33 2.62  26 2.66  18 2.68
                             3 2.69  14 2.75  25 2.86  16 2.91
  31  0.203  0.282  0.225-  70 2.53  55 2.55  65 2.56  43 2.60  57 2.61   3 2.63  80 2.67  42 2.68
                            39 2.68  21 2.70  68 2.71  64 2.75  22 3.39
  32  0.707  0.549  0.221-  54 2.53  69 2.56  49 2.57  42 2.58  51 2.58  65 2.60  78 2.60  29 2.62
                            26 2.67  67 2.68  75 2.69  44 2.70
  33  0.041  0.631  0.328-   3 2.56  39 2.62   1 2.62  30 2.62  29 2.64   2 2.65  12 2.67  64 2.73
                             5 2.74  16 2.75  28 2.75  42 2.77
  34  0.798  0.862  0.040-  50 2.39  66 2.50  71 2.53  36 2.54  48 2.54  63 2.59  20 2.68  35 2.72
                            62 2.73
  35  0.056  0.867  0.036-  72 2.53  58 2.54  36 2.55  24 2.58  53 2.62  66 2.62  23 2.69  62 2.70
                            34 2.72
  36  0.047  0.627  0.035-  21 2.53  34 2.54  35 2.55  58 2.59  47 2.59  72 2.62  50 2.62  40 2.64
                            71 2.69
  37  0.627  0.221  0.128-  74 2.49  51 2.51  67 2.52  41 2.54  56 2.54  20 2.55  59 2.56  68 2.56
                            62 2.60  66 2.63  57 2.68  48 2.82
  38  0.382  0.955  0.129-  80 2.48  53 2.48  45 2.51  48 2.52  78 2.53  73 2.54  54 2.54  63 2.55
                            55 2.59  57 2.60  24 2.62  70 2.65
  39  0.035  0.383  0.326-  29 2.51   3 2.54  22 2.56  75 2.56  33 2.62  10 2.67  42 2.68  31 2.68
                             7 2.72   5 2.75  43 2.76  65 2.78
  40  0.032  0.382  0.036-  69 2.46  71 2.51  21 2.52  76 2.55  70 2.58  23 2.59  36 2.64  47 2.73
                            45 2.75
  41  0.872  0.216  0.128-  76 2.46  65 2.51  37 2.54  69 2.54  67 2.54  77 2.54  51 2.57  62 2.58
                            23 2.62  70 2.63  66 2.64  24 2.70
  42  0.955  0.545  0.224-  29 2.56  50 2.56  28 2.57  32 2.58  21 2.60  49 2.61  64 2.62  69 2.62
                            65 2.63  31 2.68  39 2.68  33 2.77
  43  0.296  0.116  0.322-  52 2.51  55 2.54  61 2.54  22 2.55  19 2.55  31 2.60   8 2.61  80 2.67
                             3 2.68  10 2.73  39 2.76  13 2.78
  44  0.541  0.631  0.322-  61 2.53  52 2.55  29 2.61  30 2.61  18 2.63  78 2.63  75 2.64  14 2.69
                            32 2.70  15 2.71  27 2.71  26 2.76
  45  0.295  0.120  0.038-  70 2.50  38 2.51  57 2.57  53 2.59  23 2.59  63 2.62  20 2.65  47 2.72
                            40 2.75
  46  0.548  0.625  0.042-  51 2.38  73 2.40  54 2.42  53 2.54  71 2.55  63 2.56  76 2.57  56 2.59
                            72 2.61
  47  0.295  0.380  0.037-  74 2.43  21 2.53  72 2.58  36 2.59  56 2.61  57 2.61  20 2.66  45 2.72
                            40 2.73
  48  0.625  0.951  0.131-  49 2.40  54 2.48  80 2.48  38 2.52  34 2.54  59 2.54  50 2.54  63 2.58
                            20 2.58  57 2.62  66 2.64  37 2.82
  49  0.706  0.795  0.220-  48 2.40  50 2.48  54 2.49  80 2.51  32 2.57  78 2.59  28 2.59  42 2.61
                            61 2.63   1 2.65  59 2.66  29 2.70
  50  0.866  0.707  0.128-  34 2.39  71 2.43  54 2.46  49 2.48  48 2.54  42 2.56  69 2.57  28 2.59
                            21 2.62  36 2.62  66 2.71  58 2.80
  51  0.626  0.461  0.126-  46 2.38  76 2.45  37 2.51  56 2.53  26 2.56  73 2.57  41 2.57  32 2.58
                            69 2.58  74 2.60  67 2.63  54 2.65
  52  0.298  0.875  0.318-  55 2.43  61 2.50  43 2.51  78 2.52  79 2.53  44 2.55  30 2.59   2 2.64
                            22 2.70   8 2.70  14 2.78   6 2.86
  53  0.305  0.868  0.039-  73 2.42  38 2.48  63 2.53  46 2.54  24 2.57  72 2.58  45 2.59  35 2.62
                            23 2.75
  54  0.627  0.714  0.128-  46 2.42  71 2.46  50 2.46  48 2.48  63 2.49  49 2.49  32 2.53  38 2.54
                            73 2.55  78 2.62  69 2.64  51 2.65
  55  0.223  0.029  0.227-  52 2.43  78 2.44  79 2.48  80 2.51  22 2.53  43 2.54  31 2.55  24 2.58
                            38 2.59  77 2.69  70 2.72  65 2.82
  56  0.543  0.380  0.033-  74 2.50  51 2.53  37 2.54  72 2.57  76 2.58  46 2.59  47 2.61  62 2.67
                            20 2.67
  57  0.379  0.205  0.131-  68 2.46  80 2.54  20 2.56  45 2.57  38 2.60  74 2.60  31 2.61  47 2.61
                            70 2.61  48 2.62  37 2.68  21 2.68
  58  0.135  0.705  0.131-  72 2.47  64 2.54  35 2.54  28 2.57  79 2.58  36 2.59  24 2.62  74 2.62
                            21 2.64  73 2.65  66 2.73  50 2.80
  59  0.705  0.050  0.220-  66 2.53  48 2.54  67 2.55  37 2.56  68 2.56  19 2.60  60 2.63  77 2.63
                            80 2.64   1 2.66  49 2.66  28 2.67
  60  0.793  0.129  0.318-  67 2.54  18 2.57  77 2.59   2 2.59  75 2.61  59 2.63   1 2.64  22 2.65
                             9 2.71  19 2.72  17 2.77   4 2.95
  61  0.538  0.873  0.317-  78 2.49  52 2.50  44 2.53  80 2.54  43 2.54  19 2.61  49 2.63   1 2.64
                            29 2.65   8 2.73  27 2.80  11 2.86
  62  0.796  0.123  0.033-  66 2.55  41 2.58  37 2.60  20 2.61  23 2.62  76 2.63  56 2.67  35 2.70
                            34 2.73
  63  0.546  0.870  0.035-  54 2.49  53 2.53  38 2.55  46 2.56  48 2.58  71 2.58  34 2.59  45 2.62
                            20 2.65
  64  0.207  0.542  0.224-  58 2.54   3 2.58  26 2.60  28 2.61  30 2.61  42 2.62  21 2.62  68 2.63
                            74 2.69  79 2.70  33 2.73  31 2.75
  65  0.952  0.296  0.221-  41 2.51  22 2.52  67 2.52  69 2.53  77 2.53  31 2.56  70 2.59  32 2.60
                            75 2.62  42 2.63  39 2.78  55 2.82
  66  0.872  0.963  0.128-  34 2.50  59 2.53  62 2.55  28 2.58  77 2.58  35 2.62  37 2.63  41 2.64
                            48 2.64  24 2.68  50 2.71  58 2.73
  67  0.714  0.289  0.223-  77 2.51  37 2.52  65 2.52  41 2.54  60 2.54  59 2.55  18 2.57  51 2.63
                            75 2.64  68 2.67  32 2.68  26 2.70
  68  0.457  0.291  0.221-  57 2.46  74 2.55  59 2.56  37 2.56  19 2.58  64 2.63  26 2.65  18 2.66
                            67 2.67  80 2.69  31 2.71   3 2.73
  69  0.875  0.456  0.127-  71 2.45  76 2.45  40 2.46  65 2.53  41 2.54  32 2.56  50 2.57  51 2.58
                            21 2.59  42 2.62  70 2.62  54 2.64
  70  0.128  0.208  0.128-  45 2.50  31 2.53  40 2.58  23 2.58  65 2.59  24 2.59  21 2.61  57 2.61
                            69 2.62  41 2.63  38 2.65  55 2.72
  71  0.792  0.622  0.039-  50 2.43  69 2.45  54 2.46  40 2.51  34 2.53  46 2.55  76 2.57  63 2.58
                            36 2.69
  72  0.298  0.625  0.041-  74 2.44  58 2.47  73 2.49  35 2.53  56 2.57  53 2.58  47 2.58  46 2.61
                            36 2.62
  73  0.386  0.710  0.128-  46 2.40  53 2.42  72 2.49  26 2.49  38 2.54  54 2.55  78 2.55  51 2.57
                            24 2.63  79 2.64  58 2.65  74 2.73
  74  0.382  0.452  0.125-  47 2.43  72 2.44  37 2.49  56 2.50  26 2.54  68 2.55  51 2.60  57 2.60
                            58 2.62  21 2.69  64 2.69  73 2.73
  75  0.793  0.378  0.321-  29 2.55  39 2.56  18 2.58  22 2.58  60 2.61  65 2.62  67 2.64  44 2.64
                             9 2.67  32 2.69  15 2.73   7 2.82
  76  0.791  0.377  0.038-  51 2.45  69 2.45  41 2.46  40 2.55  46 2.57  71 2.57  56 2.58  23 2.62
                            62 2.63
  77  0.956  0.052  0.221-  67 2.51  65 2.53  24 2.53  41 2.54  22 2.57  66 2.58  60 2.59   2 2.62
                            59 2.63  79 2.67  55 2.69  28 2.73
  78  0.458  0.797  0.224-  55 2.44  80 2.47  61 2.49  52 2.52  38 2.53  73 2.55  79 2.57  49 2.59
                            32 2.60  54 2.62  44 2.63  26 2.65
  79  0.212  0.798  0.224-  55 2.48  24 2.51  52 2.53  78 2.57   2 2.57  58 2.58  30 2.58  26 2.59
                            73 2.64  77 2.67  64 2.70  28 2.72
  80  0.462  0.031  0.222-  78 2.47  48 2.48  38 2.48  49 2.51  55 2.51  61 2.54  57 2.54  19 2.55
                            59 2.64  43 2.67  31 2.67  68 2.69
  81  0.706  0.050  0.478-   4 1.80  17 1.89  11 1.93
 
  LATTYP: Found a hexagonal cell.
 ALAT       =    10.4600000381
 C/A-ratio  =     2.1032504704
  
  Lattice vectors:
  
 A1 = (   5.2300000190,  -9.0586257566,   0.0000000000)
 A2 = ( -10.4600000381,   0.0000000000,   0.0000000000)
 A3 = (   0.0000000000,   0.0000000000, -22.0000000000)


Analysis of symmetry for initial positions (statically):
=====================================================================
 Subroutine PRICEL returns:
 Original cell was already a primitive cell.
 

 Routine SETGRP: Setting up the symmetry group for a 
 hexagonal supercell.


 Subroutine GETGRP returns: Found  1 space group operations
 (whereof  1 operations were pure point group operations)
 out of a pool of 24 trial point group operations.


The static configuration has the point symmetry C_1 .


Analysis of symmetry for dynamics (positions and initial velocities):
=====================================================================
 Subroutine PRICEL returns:
 Original cell was already a primitive cell.
 

 Routine SETGRP: Setting up the symmetry group for a 
 hexagonal supercell.


 Subroutine GETGRP returns: Found  1 space group operations
 (whereof  1 operations were pure point group operations)
 out of a pool of 24 trial point group operations.


The dynamic configuration has the point symmetry C_1 .


Analysis of constrained symmetry for selective dynamics:
=====================================================================
 Subroutine PRICEL returns:
 Original cell was already a primitive cell.
 

 Routine SETGRP: Setting up the symmetry group for a 
 hexagonal supercell.


 Subroutine GETGRP returns: Found  1 space group operations
 (whereof  1 operations were pure point group operations)
 out of a pool of 24 trial point group operations.


The constrained configuration has the point symmetry C_1 .


Analysis of structural, dynamic, and magnetic symmetry:
=====================================================================
 Subroutine PRICEL returns:
 Original cell was already a primitive cell.
 

 Routine SETGRP: Setting up the symmetry group for a 
 hexagonal supercell.


 Subroutine GETGRP returns: Found  1 space group operations
 (whereof  1 operations were pure point group operations)
 out of a pool of 24 trial point group operations.


The magnetic configuration has the point symmetry C_1 .


 Subroutine INISYM returns: Found  1 space group operations
 (whereof  1 operations are pure point group operations),
 and found     1 'primitive' translations

 
 
 KPOINTS: mesh auto                               

Automatic generation of k-mesh.
Space group operators:
 irot       det(A)        alpha          n_x          n_y          n_z        tau_x        tau_y        tau_z
    1     1.000000     0.000000     1.000000     0.000000     0.000000     0.000000     0.000000     0.000000
 
 Subroutine IBZKPT returns following result:
 ===========================================
 
 Found      4 irreducible k-points:
 
 Following reciprocal coordinates:
            Coordinates               Weight
  0.000000  0.000000  0.000000      1.000000
  0.500000 -0.000000  0.000000      1.000000
  0.000000  0.500000  0.000000      1.000000
  0.500000  0.500000  0.000000      1.000000
 
 Following cartesian coordinates:
            Coordinates               Weight
  0.000000  0.000000  0.000000      1.000000
  0.047801 -0.027598  0.000000      1.000000
  0.000000  0.055196  0.000000      1.000000
  0.047801  0.027598  0.000000      1.000000
 


--------------------------------------------------------------------------------------------------------




 Dimension of arrays:
   k-points           NKPTS =      4   k-points in BZ     NKDIM =      4   number of bands    NBANDS=    588
   number of dos      NEDOS =    301   number of ions     NIONS =     81
   non local maximal  LDIM  =      6   non local SUM 2l+1 LMDIM =     18
   total plane-waves  NPLWV = ******
   max r-space proj   IRMAX =   7217   max aug-charges    IRDMAX=  31436
   dimension x,y,z NGX =    80 NGY =   80 NGZ =  168
   dimension x,y,z NGXF=   160 NGYF=  160 NGZF=  336
   support grid    NGXF=   160 NGYF=  160 NGZF=  336
   ions per type =              32  13  10  13  12   1
   NGX,Y,Z   is equivalent  to a cutoff of  12.71, 12.71, 12.70 a.u.
   NGXF,Y,Z  is equivalent  to a cutoff of  25.43, 25.43, 25.39 a.u.

 SYSTEM =  Pt111                                   
 POSCAR =  10.46                                   

 Startparameter for this run:
   NWRITE =      2    write-flag & timer
   PREC   = accura    normal or accurate (medium, high low for compatibility)
   ISTART =      0    job   : 0-new  1-cont  2-samecut
   ICHARG =      2    charge: 1-file 2-atom 10-const
   ISPIN  =      2    spin polarized calculation?
   LNONCOLLINEAR =      F non collinear calculations
   LSORBIT =      F    spin-orbit coupling
   INIWAV =      1    electr: 0-lowe 1-rand  2-diag
   LASPH  =      F    aspherical Exc in radial PAW
   METAGGA=      F    non-selfconsistent MetaGGA calc.

 Electronic Relaxation 1
   ENCUT  =  550.0 eV  40.42 Ry    6.36 a.u.  20.00 20.00 42.07*2*pi/ulx,y,z
   ENINI  =  550.0     initial cutoff
   ENAUG  =  587.0 eV  augmentation charge cutoff
   NELM   =    200;   NELMIN=  2; NELMDL= -5     # of ELM steps 
   EDIFF  = 0.1E-04   stopping-criterion for ELM
   LREAL  =      T    real-space projection
   NLSPLINE    = F    spline interpolate recip. space projectors
   LCOMPAT=      F    compatible to vasp.4.4
   GGA_COMPAT  = T    GGA compatible to vasp.4.4-vasp.4.6
   LMAXPAW     = -100 max onsite density
   LMAXMIX     =    2 max onsite mixed and CHGCAR
   VOSKOWN=      0    Vosko Wilk Nusair interpolation
   ROPT   =   -0.00025  -0.00025  -0.00025  -0.00025
   ROPT   =   -0.00025  -0.00025
 Ionic relaxation
   EDIFFG = -.5E-01   stopping-criterion for IOM
   NSW    =    300    number of steps for IOM
   NBLOCK =      1;   KBLOCK =    300    inner block; outer block 
   IBRION =      2    ionic relax: 0-MD 1-quasi-New 2-CG
   NFREE  =      1    steps in history (QN), initial steepest desc. (CG)
   ISIF   =      2    stress and relaxation
   IWAVPR =     11    prediction:  0-non 1-charg 2-wave 3-comb
   ISYM   =      2    0-nonsym 1-usesym 2-fastsym
   LCORR  =      T    Harris-Foulkes like correction to forces

   POTIM  = 0.5000    time-step for ionic-motion
   TEIN   =    0.0    initial temperature
   TEBEG  =    0.0;   TEEND  =   0.0 temperature during run
   SMASS  =  -3.00    Nose mass-parameter (am)
   estimated Nose-frequenzy (Omega)   =  0.10E-29 period in steps =****** mass=  -0.250E-26a.u.
   SCALEE = 1.0000    scale energy and forces
   NPACO  =    256;   APACO  = 16.0  distance and # of slots for P.C.
   PSTRESS=    0.0 pullay stress

  Mass of Ions in am
   POMASS = 195.08 55.85 58.93 63.55 58.69  1.00
  Ionic Valenz
   ZVAL   =  10.00  8.00  9.00 11.00 10.00  1.00
  Atomic Wigner-Seitz radii
   RWIGS  =  -1.00 -1.00 -1.00 -1.00 -1.00 -1.00
  virtual crystal weights 
   VCA    =   1.00  1.00  1.00  1.00  1.00  1.00
   NELECT =     778.0000    total number of electrons
   NUPDOWN=      -1.0000    fix difference up-down

 DOS related values:
   EMIN   =  10.00;   EMAX   =-10.00  energy-range for DOS
   EFERMI =   0.00
   ISMEAR =     1;   SIGMA  =   0.10  broadening in eV -4-tet -1-fermi 0-gaus

 Electronic relaxation 2 (details)
   IALGO  =     68    algorithm
   LDIAG  =      T    sub-space diagonalisation (order eigenvalues)
   LSUBROT=      F    optimize rotation matrix (better conditioning)
   TURBO    =      0    0=normal 1=particle mesh
   IRESTART =      0    0=no restart 2=restart with 2 vectors
   NREBOOT  =      0    no. of reboots
   NMIN     =      0    reboot dimension
   EREF     =   0.00    reference energy to select bands
   IMIX   =      4    mixing-type and parameters
     AMIX     =   0.40;   BMIX     =  1.00
     AMIX_MAG =   1.60;   BMIX_MAG =  1.00
     AMIN     =   0.10
     WC   =   100.;   INIMIX=   1;  MIXPRE=   1;  MAXMIX= -45

 Intra band minimization:
   WEIMIN = 0.0010     energy-eigenvalue tresh-hold
   EBREAK =  0.43E-08  absolut break condition
   DEPER  =   0.30     relativ break condition  

   TIME   =   0.40     timestep for ELM

  volume/ion in A,a.u.               =      25.74       173.67
  Fermi-wavevector in a.u.,A,eV,Ry     =   1.178680  2.227382 18.902381  1.389286
  Thomas-Fermi vector in A             =   2.315004
 
 Write flags
   LWAVE        =      F    write WAVECAR
   LDOWNSAMPLE  =      F    k-point downsampling of WAVECAR
   LCHARG       =      F    write CHGCAR
   LVTOT        =      F    write LOCPOT, total local potential
   LVHAR        =      F    write LOCPOT, Hartree potential only
   LELF         =      F    write electronic localiz. function (ELF)
   LORBIT       =      0    0 simple, 1 ext, 2 COOP (PROOUT), +10 PAW based schemes


 Dipole corrections
   LMONO  =      F    monopole corrections only (constant potential shift)
   LDIPOL =      F    correct potential (dipole corrections)
   IDIPOL =      0    1-x, 2-y, 3-z, 4-all directions 
   EPSILON=  1.0000000 bulk dielectric constant

 Exchange correlation treatment:
   GGA     =    --    GGA type
   LEXCH   =     8    internal setting for exchange type
   VOSKOWN=      0    Vosko Wilk Nusair interpolation
   LHFCALC =     F    Hartree Fock is set to
   LHFONE  =     F    Hartree Fock one center treatment
   AEXX    =    0.0000 exact exchange contribution

 Linear response parameters
   LEPSILON=     F    determine dielectric tensor
   LRPA    =     F    only Hartree local field effects (RPA)
   LNABLA  =     F    use nabla operator in PAW spheres
   LVEL    =     F    velocity operator in full k-point grid
   LINTERFAST=   F  fast interpolation
   KINTER  =     0    interpolate to denser k-point grid
   CSHIFT  =0.1000    complex shift for real part using Kramers Kronig
   OMEGAMAX=  -1.0    maximum frequency
   DEG_THRESHOLD= 0.2000000E-02 threshold for treating states as degnerate
   RTIME   =   -0.100 relaxation time in fs
  (WPLASMAI=    0.000 imaginary part of plasma frequency in eV, 0.658/RTIME)
   DFIELD  = 0.0000000 0.0000000 0.0000000 field for delta impulse in time
 
 Orbital magnetization related:
   ORBITALMAG=     F  switch on orbital magnetization
   LCHIMAG   =     F  perturbation theory with respect to B field
   DQ        =  0.001000  dq finite difference perturbation B field
   LLRAUG    =     F  two centre corrections for induced B field



--------------------------------------------------------------------------------------------------------


 conjugate gradient relaxation of ions
   using selective dynamics as specified on POSCAR
 charge density and potential will be updated during run
 spin polarized calculation
 RMM-DIIS sequential band-by-band and
  variant of blocked Davidson during initial phase
 perform sub-space diagonalisation
    before iterative eigenvector-optimisation
 modified Broyden-mixing scheme, WC =      100.0
 initial mixing is a Kerker type mixing with AMIX =  0.4000 and BMIX =      1.0000
 Hartree-type preconditioning will be used
 using additional bands          199
 real space projection scheme for non local part
 use partial core corrections
 calculate Harris-corrections to forces 
   (improved forces if not selfconsistent)
 use gradient corrections 
 use of overlap-Matrix (Vanderbilt PP)
 Methfessel and Paxton  Order N= 1 SIGMA  =   0.10


--------------------------------------------------------------------------------------------------------


  energy-cutoff  :      550.00
  volume of cell :     2084.57
      direct lattice vectors                 reciprocal lattice vectors
    10.460000038  0.000000000  0.000000000     0.095602294 -0.055196010  0.000000000
     5.230000019  9.058625757  0.000000000     0.000000000  0.110392020  0.000000000
     0.000000000  0.000000000 22.000000000     0.000000000  0.000000000  0.045454545

  length of vectors
    10.460000038 10.460000038 22.000000000     0.110392020  0.110392020  0.045454545


 
 k-points in units of 2pi/SCALE and weight: mesh auto                               
   0.00000000  0.00000000  0.00000000       0.250
   0.04780115 -0.02759801  0.00000000       0.250
   0.00000000  0.05519601  0.00000000       0.250
   0.04780115  0.02759801  0.00000000       0.250
 
 k-points in reciprocal lattice and weights: mesh auto                               
   0.00000000  0.00000000  0.00000000       0.250
   0.50000000 -0.00000000  0.00000000       0.250
   0.00000000  0.50000000  0.00000000       0.250
   0.50000000  0.50000000  0.00000000       0.250
 
 position of ions in fractional coordinates (direct lattice) 
   0.78852304  0.87884220  0.31884249
   0.04206956  0.88269688  0.31795472
   0.27911115  0.38060434  0.32065352
   0.87156088  0.96276319  0.43303786
   0.12271553  0.46137150  0.43054108
   0.12513232  0.96274180  0.42625368
   0.87427435  0.45995995  0.42985112
   0.37439614  0.96000135  0.42129745
   0.87293043  0.21290242  0.42105925
   0.12496132  0.21137341  0.42414687
   0.62430824  0.96080216  0.42555685
   0.87355811  0.70959078  0.42758676
   0.37454355  0.20932409  0.42630875
   0.37707255  0.71111080  0.42435516
   0.62551999  0.46134724  0.42380252
   0.12669093  0.70764645  0.43315439
   0.62501422  0.21055733  0.42331214
   0.54823204  0.37596473  0.31747532
   0.53516660  0.12428796  0.31558056
   0.54635554  0.12346440  0.03801974
   0.12124064  0.46039479  0.12715021
   0.04316409  0.13601217  0.31455795
   0.04283891  0.12981457  0.03173287
   0.13019387  0.95827841  0.13124685
   0.37489598  0.46124798  0.42868751
   0.45403289  0.54545091  0.21870836
   0.62305009  0.71135940  0.42559712
   0.95636135  0.79046790  0.22127113
   0.79387849  0.62214751  0.31945544
   0.29099544  0.63139178  0.31938530
   0.20299264  0.28191601  0.22537426
   0.70728990  0.54862033  0.22052174
   0.04093140  0.63117576  0.32771469
   0.79775823  0.86189876  0.04039458
   0.05564464  0.86654624  0.03604956
   0.04678687  0.62731106  0.03496113
   0.62680793  0.22051446  0.12798747
   0.38242997  0.95507716  0.12934307
   0.03537316  0.38348615  0.32557778
   0.03228695  0.38241898  0.03570727
   0.87180834  0.21550419  0.12750532
   0.95519237  0.54505519  0.22370187
   0.29572707  0.11638239  0.32179289
   0.54061596  0.63068249  0.32228197
   0.29501736  0.12008867  0.03750641
   0.54755980  0.62539500  0.04218165
   0.29450307  0.37991063  0.03693883
   0.62547323  0.95120890  0.13146718
   0.70629551  0.79479816  0.21965480
   0.86639037  0.70660939  0.12805709
   0.62604680  0.46066035  0.12631648
   0.29849050  0.87531944  0.31773645
   0.30524438  0.86778677  0.03913090
   0.62727034  0.71381420  0.12769253
   0.22342560  0.02895889  0.22713189
   0.54327421  0.38045200  0.03307323
   0.37859094  0.20515622  0.13147005
   0.13501613  0.70531698  0.13067687
   0.70508973  0.04998780  0.22044003
   0.79306305  0.12926170  0.31786958
   0.53848508  0.87346905  0.31699431
   0.79612970  0.12318704  0.03281809
   0.54606913  0.87006807  0.03477158
   0.20705462  0.54237546  0.22432821
   0.95183918  0.29572597  0.22078627
   0.87174178  0.96317289  0.12820031
   0.71391943  0.28911011  0.22288637
   0.45746385  0.29078742  0.22068324
   0.87522322  0.45648295  0.12682467
   0.12758453  0.20753202  0.12806114
   0.79233835  0.62247135  0.03901829
   0.29812102  0.62506428  0.04053259
   0.38563452  0.71042955  0.12826607
   0.38240893  0.45157229  0.12544734
   0.79334629  0.37835312  0.32053611
   0.79084340  0.37728899  0.03790948
   0.95584833  0.05187198  0.22132157
   0.45788199  0.79706057  0.22411927
   0.21215454  0.79805172  0.22448805
   0.46238740  0.03124127  0.22181689
   0.70551835  0.04951627  0.47812898
 
 position of ions in cartesian coordinates  (Angst):
  12.84429570  7.96110257  7.01453481
   5.05655231  7.99602067  6.99500380
   4.91006333  3.44775228  7.05437750
  14.15177832  8.72131146  9.52683302
   3.69657741  4.17939172  9.47190382
   6.34402372  8.72111764  9.37758100
  11.55050025  4.16660505  9.45672453
   8.93699069  8.69629291  9.26854395
  10.24433202  1.92860338  9.26330352
   2.41257832  1.91475264  9.33123114
  11.55525949  8.70354715  9.36225070
  12.84857769  6.42791735  9.40690870
   5.01249051  1.89618863  9.37879240
   7.66328842  6.44168664  9.33581353
   8.95578524  4.17917203  9.32365539
   5.02617811  6.41030435  9.52939667
   7.63886361  1.90736010  9.31286707
   7.70080268  3.40572381  6.98445698
   6.24786870  1.12587813  6.94277224
   6.36059777  1.11841783  0.83643430
   3.67604182  4.17054411  2.79730458
   1.16284001  1.23208338  6.92027486
   1.12702522  1.17594162  0.69812310
   6.37362399  8.68068553  2.88743074
   6.33373886  4.17827283  9.43112524
   7.60189228  4.94103567  4.81158384
  10.23751365  6.44393856  9.36313670
  14.13768686  7.16055290  4.86796493
  11.55780051  5.63580147  7.02801974
   6.34599128  5.71954183  7.02647667
   3.59772373  2.55377166  4.95823367
  10.26753667  4.96974625  4.85147823
   3.72919167  5.71758503  7.20972310
  12.85228162  7.80761834  0.88868079
   5.11407977  7.84971811  0.79309028
   3.77022748  5.68257614  0.76914493
   7.70970158  1.99755794  2.81572435
   8.99527104  8.65168656  2.84554761
   2.37563590  3.47385755  7.16271120
   2.33777282  3.46419046  0.78556002
  10.24620218  1.95217182  2.80511704
  12.84195085  4.93745094  4.92144108
   3.70198506  1.05426455  7.07944361
   8.95331242  5.71311666  7.09020343
   3.71394535  1.08783833  0.82514106
   8.99829143  5.66521924  0.92799621
   5.06743477  3.44146824  0.81265419
  11.51727260  8.61664542  2.89227791
  11.54464544  7.19977908  4.83240552
  12.75801039  6.40091003  2.81725595
   8.95770316  4.17294967  2.77896252
   7.70013131  7.92919123  6.99020188
   7.73138105  7.86095560  0.86087976
  10.29449606  6.46617565  2.80923565
   2.48848679  0.26232775  4.99690168
   7.67241216  3.44637226  0.72761104
   5.03302831  1.85843343  2.89234121
   5.10107653  6.38920253  2.87489115
   7.63667477  0.45282080  4.84968064
   8.97147830  1.17093341  6.99313073
  10.20079707  7.91242926  6.97387491
   8.97178491  1.11590525  0.72199805
  10.26233915  7.88162099  0.76497477
   5.00241504  4.91317635  4.93522055
  11.50288465  2.67887089  4.85729792
  14.15581328  8.72502274  2.82040678
   8.97964314  2.61894028  4.90350016
   6.30589003  2.63413437  4.85503126
  11.54224082  4.13510824  2.79014274
   2.41992666  1.87995489  2.81734516
  11.54338437  5.63873500  0.85840246
   6.38743212  5.66222338  0.89171700
   7.74928366  6.43551543  2.82185349
   6.36172048  4.09062433  2.75984157
  10.27718907  3.42735932  7.05179444
  10.24544346  3.41771980  0.83400850
  10.26946403  0.46988889  4.86907455
   8.95807246  7.22027342  4.93062403
   6.39294697  7.22925187  4.93873718
   4.99996406  0.28300299  4.87997169
   7.63869199  0.44854932 10.51883754
 


--------------------------------------------------------------------------------------------------------


 k-point  1 :   0.0000 0.0000 0.0000  plane waves:   60991
 k-point  2 :   0.5000-0.0000 0.0000  plane waves:   60974
 k-point  3 :   0.0000 0.5000 0.0000  plane waves:   60974
 k-point  4 :   0.5000 0.5000 0.0000  plane waves:   60974

 maximum and minimum number of plane-waves per node :     15277    15213

 maximum number of plane-waves:     60991
 maximum index in each direction: 
   IXMAX=   20   IYMAX=   20   IZMAX=   42
   IXMIN=  -20   IYMIN=  -20   IZMIN=  -42


 real space projection operators:
  total allocation   :      71949.33 KBytes
  max/ min on nodes  :      18007.90      17966.09


 parallel 3D FFT for wavefunctions:
    minimum data exchange during FFTs selected (reduces bandwidth)
 parallel 3D FFT for charge:
    minimum data exchange during FFTs selected (reduces bandwidth)


 total amount of memory used by VASP MPI-rank0   221618. kBytes
=======================================================================

   base      :      30000. kBytes
   nonlr-proj:      32064. kBytes
   fftplans  :      14920. kBytes
   grid      :      45762. kBytes
   one-center:        653. kBytes
   wavefun   :      98219. kBytes
 
     INWAV:  cpu time    0.0000: real time    0.0004
 Broyden mixing: mesh for mixing (old mesh)
   NGX = 41   NGY = 41   NGZ = 85
  (NGX  =160   NGY  =160   NGZ  =336)
  gives a total of 142885 points

 initial charge density was supplied:
 charge density of overlapping atoms calculated
 number of electron     778.0000000 magnetization     231.0000000
 keeping initial charge density in first step


--------------------------------------------------------------------------------------------------------


 Maximum index for non-local projection operator         1753
 Maximum index for augmentation-charges         1830 (set IRDMAX)


--------------------------------------------------------------------------------------------------------


 First call to EWALD:  gamma=   0.139
 Maximum number of real-space cells 4x 4x 2
 Maximum number of reciprocal cells 2x 2x 4

    FEWALD:  cpu time    0.0047: real time    0.0047


--------------------------------------- Iteration      1(   1)  ---------------------------------------


    POTLOK:  cpu time    0.3783: real time    0.3972
    SETDIJ:  cpu time    0.0351: real time    0.0364
     EDDAV:  cpu time   58.2185: real time   60.5303
       DOS:  cpu time    0.0027: real time    0.0035
    --------------------------------------------
      LOOP:  cpu time   58.6346: real time   60.9673

 eigenvalue-minimisations  :  9408
 total energy-change (2. order) : 0.7948454E+04  (-0.3299246E+05)
 number of electron     778.0000000 magnetization     231.0000000
 augmentation part      778.0000000 magnetization     231.0000000

 Free energy of the ion-electron system (eV)
  ---------------------------------------------------
  alpha Z        PSCENC =      2281.97981454
  Ewald energy   TEWEN  =    224341.36052832
  -Hartree energ DENC   =   -296722.16117404
  -exchange      EXHF   =         0.00000000
  -V(xc)+E(xc)   XCENC  =      1390.96676278
  PAW double counting   =     64136.80006862   -66038.70876209
  entropy T*S    EENTRO =        -0.00623728
  eigenvalues    EBANDS =      8339.56805996
  atomic energy  EATOM  =     70218.65458108
  Solvation  Ediel_sol  =         0.00000000
  ---------------------------------------------------
  free energy    TOTEN  =      7948.45364188 eV

  energy without entropy =     7948.45987917  energy(sigma->0) =     7948.45572098


--------------------------------------------------------------------------------------------------------




--------------------------------------- Iteration      1(   2)  ---------------------------------------


     EDDAV:  cpu time   57.8548: real time   58.0807
       DOS:  cpu time    0.0031: real time    0.0044
    --------------------------------------------
      LOOP:  cpu time   57.8579: real time   58.0851

 eigenvalue-minimisations  :  9408
 total energy-change (2. order) :-0.7075507E+04  (-0.6322651E+04)
 number of electron     778.0000000 magnetization     231.0000000
 augmentation part      778.0000000 magnetization     231.0000000

 Free energy of the ion-electron system (eV)
  ---------------------------------------------------
  alpha Z        PSCENC =      2281.97981454
  Ewald energy   TEWEN  =    224341.36052832
  -Hartree energ DENC   =   -296722.16117404
  -exchange      EXHF   =         0.00000000
  -V(xc)+E(xc)   XCENC  =      1390.96676278
  PAW double counting   =     64136.80006862   -66038.70876209
  entropy T*S    EENTRO =        -0.00237040
  eigenvalues    EBANDS =      1264.05768148
  atomic energy  EATOM  =     70218.65458108
  Solvation  Ediel_sol  =         0.00000000
  ---------------------------------------------------
  free energy    TOTEN  =       872.94713029 eV

  energy without entropy =      872.94950069  energy(sigma->0) =      872.94792042


--------------------------------------------------------------------------------------------------------




--------------------------------------- Iteration      1(   3)  ---------------------------------------


     EDDAV:  cpu time   57.8432: real time   58.0743
       DOS:  cpu time    0.0033: real time    0.0042
    --------------------------------------------
      LOOP:  cpu time   57.8465: real time   58.0785

 eigenvalue-minimisations  :  9408
 total energy-change (2. order) :-0.1244586E+04  (-0.1009671E+04)
 number of electron     778.0000000 magnetization     231.0000000
 augmentation part      778.0000000 magnetization     231.0000000

 Free energy of the ion-electron system (eV)
  ---------------------------------------------------
  alpha Z        PSCENC =      2281.97981454
  Ewald energy   TEWEN  =    224341.36052832
  -Hartree energ DENC   =   -296722.16117404
  -exchange      EXHF   =         0.00000000
  -V(xc)+E(xc)   XCENC  =      1390.96676278
  PAW double counting   =     64136.80006862   -66038.70876209
  entropy T*S    EENTRO =        -0.00521668
  eigenvalues    EBANDS =        19.47430378
  atomic energy  EATOM  =     70218.65458108
  Solvation  Ediel_sol  =         0.00000000
  ---------------------------------------------------
  free energy    TOTEN  =      -371.63909369 eV

  energy without entropy =     -371.63387702  energy(sigma->0) =     -371.63735480


--------------------------------------------------------------------------------------------------------




--------------------------------------- Iteration      1(   4)  ---------------------------------------


     EDDAV:  cpu time   68.2556: real time   68.5131
       DOS:  cpu time    0.0030: real time    0.0190
    --------------------------------------------
      LOOP:  cpu time   68.2586: real time   68.5321

 eigenvalue-minimisations  : 11664
 total energy-change (2. order) :-0.1195688E+03  (-0.1097741E+03)
 number of electron     778.0000000 magnetization     231.0000000
 augmentation part      778.0000000 magnetization     231.0000000

 Free energy of the ion-electron system (eV)
  ---------------------------------------------------
  alpha Z        PSCENC =      2281.97981454
  Ewald energy   TEWEN  =    224341.36052832
  -Hartree energ DENC   =   -296722.16117404
  -exchange      EXHF   =         0.00000000
  -V(xc)+E(xc)   XCENC  =      1390.96676278
  PAW double counting   =     64136.80006862   -66038.70876209
  entropy T*S    EENTRO =         0.00432478
  eigenvalues    EBANDS =      -100.10403007
  atomic energy  EATOM  =     70218.65458108
  Solvation  Ediel_sol  =         0.00000000
  ---------------------------------------------------
  free energy    TOTEN  =      -491.20788609 eV

  energy without entropy =     -491.21221087  energy(sigma->0) =     -491.20932768


--------------------------------------------------------------------------------------------------------




--------------------------------------- Iteration      1(   5)  ---------------------------------------


     EDDAV:  cpu time   66.2718: real time   66.5610
       DOS:  cpu time    0.0030: real time    0.0039
    CHARGE:  cpu time    3.4335: real time    3.4462
    MIXING:  cpu time    0.0104: real time    0.0106
    --------------------------------------------
      LOOP:  cpu time   69.7188: real time   70.0217

 eigenvalue-minimisations  : 11208
 total energy-change (2. order) :-0.4535291E+01  (-0.4501245E+01)
 number of electron     778.0000062 magnetization     216.2692603
 augmentation part      334.9503342 magnetization     184.8796248

 Broyden mixing:
  rms(total) = 0.12051E+02    rms(broyden)= 0.12051E+02
  rms(prec ) = 0.12338E+02
  weight for this iteration     100.00

 Free energy of the ion-electron system (eV)
  ---------------------------------------------------
  alpha Z        PSCENC =      2281.97981454
  Ewald energy   TEWEN  =    224341.36052832
  -Hartree energ DENC   =   -296722.16117404
  -exchange      EXHF   =         0.00000000
  -V(xc)+E(xc)   XCENC  =      1390.96676278
  PAW double counting   =     64136.80006862   -66038.70876209
  entropy T*S    EENTRO =         0.00509198
  eigenvalues    EBANDS =      -104.64008867
  atomic energy  EATOM  =     70218.65458108
  Solvation  Ediel_sol  =         0.00000000
  ---------------------------------------------------
  free energy    TOTEN  =      -495.74317748 eV

  energy without entropy =     -495.74826946  energy(sigma->0) =     -495.74487481


--------------------------------------------------------------------------------------------------------




--------------------------------------- Iteration      1(   6)  ---------------------------------------


    POTLOK:  cpu time    0.3646: real time    0.3843
    SETDIJ:  cpu time    0.0330: real time    0.0331
    EDDIAG:  cpu time   10.1543: real time   10.1871
  RMM-DIIS:  cpu time   34.0654: real time   34.1597
    ORTHCH:  cpu time    1.2738: real time    1.2771
       DOS:  cpu time    0.0029: real time    0.0029
    CHARGE:  cpu time    3.3334: real time    3.3424
    MIXING:  cpu time    0.0113: real time    0.0118
    --------------------------------------------
      LOOP:  cpu time   49.2387: real time   49.3985

 eigenvalue-minimisations  :  9511
 total energy-change (2. order) :-0.1156741E+03  (-0.8744010E+02)
 number of electron     778.0000085 magnetization     211.8933772
 augmentation part      405.0643210 magnetization     179.4321994

 Broyden mixing:
  rms(total) = 0.18726E+02    rms(broyden)= 0.18726E+02
  rms(prec ) = 0.24227E+02
  weight for this iteration     100.00

 eigenvalues of (default mixing * dielectric matrix)
  average eigenvalue GAMMA=   0.2492
  0.2492

 Free energy of the ion-electron system (eV)
  ---------------------------------------------------
  alpha Z        PSCENC =      2281.97981454
  Ewald energy   TEWEN  =    224341.36052832
  -Hartree energ DENC   =   -295097.63542988
  -exchange      EXHF   =         0.00000000
  -V(xc)+E(xc)   XCENC  =      1346.23370735
  PAW double counting   =     69556.05240922   -71257.69504928
  entropy T*S    EENTRO =         0.00133607
  eigenvalues    EBANDS =     -2000.36913841
  atomic energy  EATOM  =     70218.65458108
  Solvation  Ediel_sol  =         0.00000000
  ---------------------------------------------------
  free energy    TOTEN  =      -611.41724100 eV

  energy without entropy =     -611.41857707  energy(sigma->0) =     -611.41768636


--------------------------------------------------------------------------------------------------------




--------------------------------------- Iteration      1(   7)  ---------------------------------------


    POTLOK:  cpu time    0.3526: real time    0.3732
    SETDIJ:  cpu time    0.0332: real time    0.0333
    EDDIAG:  cpu time   10.1341: real time   10.1622
  RMM-DIIS:  cpu time   33.7089: real time   33.8969
    ORTHCH:  cpu time    1.3515: real time    1.3551
       DOS:  cpu time    0.0027: real time    0.0027
    CHARGE:  cpu time    3.3484: real time    3.3574
    MIXING:  cpu time    0.0112: real time    0.0113
    --------------------------------------------
      LOOP:  cpu time   48.9424: real time   49.1921

 eigenvalue-minimisations  :  9422
 total energy-change (2. order) : 0.3823845E+02  (-0.1732849E+02)
 number of electron     778.0000070 magnetization     207.2682513
 augmentation part      361.8628589 magnetization     165.2210987

 Broyden mixing:
  rms(total) = 0.16745E+02    rms(broyden)= 0.16745E+02
  rms(prec ) = 0.22919E+02
  weight for this iteration     100.00

 eigenvalues of (default mixing * dielectric matrix)
  average eigenvalue GAMMA=   0.2736
  0.3913  0.1559

 Free energy of the ion-electron system (eV)
  ---------------------------------------------------
  alpha Z        PSCENC =      2281.97981454
  Ewald energy   TEWEN  =    224341.36052832
  -Hartree energ DENC   =   -295836.21567006
  -exchange      EXHF   =         0.00000000
  -V(xc)+E(xc)   XCENC  =      1367.07523416
  PAW double counting   =     70715.57123940   -72585.11021055
  entropy T*S    EENTRO =         0.00059925
  eigenvalues    EBANDS =     -1076.49490490
  atomic energy  EATOM  =     70218.65458108
  Solvation  Ediel_sol  =         0.00000000
  ---------------------------------------------------
  free energy    TOTEN  =      -573.17878876 eV

  energy without entropy =     -573.17938801  energy(sigma->0) =     -573.17898851


--------------------------------------------------------------------------------------------------------




--------------------------------------- Iteration      1(   8)  ---------------------------------------


    POTLOK:  cpu time    0.3564: real time    0.4240
    SETDIJ:  cpu time    0.0331: real time    0.0332
    EDDIAG:  cpu time   10.1507: real time   10.1921
  RMM-DIIS:  cpu time   33.8453: real time   33.9548
    ORTHCH:  cpu time    1.2859: real time    1.2894
       DOS:  cpu time    0.0026: real time    0.0026
    CHARGE:  cpu time    3.2798: real time    3.2888
    MIXING:  cpu time    0.0129: real time    0.0133
    --------------------------------------------
      LOOP:  cpu time   48.9667: real time   49.1982

 eigenvalue-minimisations  :  9423
 total energy-change (2. order) : 0.9569730E+02  (-0.8930452E+01)
 number of electron     778.0000062 magnetization     200.3489140
 augmentation part      369.0438606 magnetization     162.3318361

 Broyden mixing:
  rms(total) = 0.16163E+02    rms(broyden)= 0.16163E+02
  rms(prec ) = 0.19006E+02
  weight for this iteration     100.00

 eigenvalues of (default mixing * dielectric matrix)
  average eigenvalue GAMMA=   0.3028
  0.5699  0.2571  0.0814

 Free energy of the ion-electron system (eV)
  ---------------------------------------------------
  alpha Z        PSCENC =      2281.97981454
  Ewald energy   TEWEN  =    224341.36052832
  -Hartree energ DENC   =   -296150.55737295
  -exchange      EXHF   =         0.00000000
  -V(xc)+E(xc)   XCENC  =      1371.69265016
  PAW double counting   =     71974.65016293   -73910.77061772
  entropy T*S    EENTRO =         0.00513183
  eigenvalues    EBANDS =      -604.49636936
  atomic energy  EATOM  =     70218.65458108
  Solvation  Ediel_sol  =         0.00000000
  ---------------------------------------------------
  free energy    TOTEN  =      -477.48149119 eV

  energy without entropy =     -477.48662301  energy(sigma->0) =     -477.48320179


--------------------------------------------------------------------------------------------------------




--------------------------------------- Iteration      1(   9)  ---------------------------------------


    POTLOK:  cpu time    0.3526: real time    0.3725
    SETDIJ:  cpu time    0.0333: real time    0.0334
    EDDIAG:  cpu time   10.1596: real time   10.1936
  RMM-DIIS:  cpu time   33.7789: real time   33.9895
    ORTHCH:  cpu time    1.3012: real time    1.3049
       DOS:  cpu time    0.0028: real time    0.0028
    CHARGE:  cpu time    3.3053: real time    3.3146
    MIXING:  cpu time    0.0112: real time    0.0113
    --------------------------------------------
      LOOP:  cpu time   48.9451: real time   49.2228

 eigenvalue-minimisations  :  9437
 total energy-change (2. order) : 0.1022942E+03  (-0.1439059E+02)
 number of electron     778.0000074 magnetization     191.8503325
 augmentation part      369.9488617 magnetization     148.5071350

 Broyden mixing:
  rms(total) = 0.12883E+02    rms(broyden)= 0.12882E+02
  rms(prec ) = 0.15304E+02
  weight for this iteration     100.00

 eigenvalues of (default mixing * dielectric matrix)
  average eigenvalue GAMMA=   0.3704
  0.8928  0.3508  0.1532  0.0849

 Free energy of the ion-electron system (eV)
  ---------------------------------------------------
  alpha Z        PSCENC =      2281.97981454
  Ewald energy   TEWEN  =    224341.36052832
  -Hartree energ DENC   =   -295831.27508538
  -exchange      EXHF   =         0.00000000
  -V(xc)+E(xc)   XCENC  =      1387.90750772
  PAW double counting   =     73462.23830603   -75448.84318016
  entropy T*S    EENTRO =        -0.01381561
  eigenvalues    EBANDS =      -787.19590280
  atomic energy  EATOM  =     70218.65458108
  Solvation  Ediel_sol  =         0.00000000
  ---------------------------------------------------
  free energy    TOTEN  =      -375.18724626 eV

[...]
   -.197E+02 0.258E+02 -.299E+04   0.203E+02 -.260E+02 0.299E+04   -.638E+00 0.275E+00 -.193E+00   0.163E-01 -.121E-01 0.372E-01
   -.793E+01 0.732E+01 -.297E+04   0.753E+01 -.700E+01 0.297E+04   0.431E+00 -.306E+00 0.125E+01   -.170E-03 -.904E-02 0.159E-02
   -.951E+01 0.353E+01 -.293E+04   0.932E+01 -.386E+01 0.293E+04   0.205E+00 0.294E+00 0.715E+00   0.234E-01 -.146E-01 0.194E-01
   -.125E+02 -.366E+01 -.299E+04   0.127E+02 0.337E+01 0.299E+04   -.223E+00 0.267E+00 0.116E+01   0.955E-03 0.990E-02 0.144E-01
   0.175E+02 -.151E+02 -.295E+04   -.176E+02 0.152E+02 0.295E+04   0.177E+00 -.783E-01 0.170E+01   -.343E-01 -.119E-01 -.497E-02
   -.219E+02 0.894E+01 -.294E+04   0.220E+02 -.861E+01 0.294E+04   -.156E+00 -.322E+00 0.879E+00   0.120E-01 -.547E-02 0.244E-01
   -.983E+01 0.131E+01 -.293E+04   0.101E+02 -.965E+00 0.293E+04   -.251E+00 -.313E+00 0.132E+01   0.823E-02 -.606E-02 0.193E-01
   0.899E+01 0.417E+01 -.296E+04   -.967E+01 -.483E+01 0.296E+04   0.695E+00 0.650E+00 0.347E+00   -.107E-01 -.345E-02 -.223E-01
   -.567E+01 0.231E+01 -.293E+04   0.600E+01 -.286E+01 0.293E+04   -.324E+00 0.560E+00 0.875E+00   -.930E-02 -.526E-02 0.188E-01
   0.441E+01 -.170E+02 -.293E+04   -.494E+01 0.169E+02 0.293E+04   0.562E+00 0.801E-01 0.673E+00   -.159E-01 0.943E-02 0.639E-02
   0.170E+02 0.567E+01 -.295E+04   -.167E+02 -.560E+01 0.295E+04   -.333E+00 -.926E-01 0.109E+01   -.426E-02 0.214E-01 0.685E-02
   0.149E+02 -.167E+02 -.295E+04   -.147E+02 0.170E+02 0.295E+04   -.174E+00 -.184E+00 0.106E+01   0.108E-01 0.278E-01 0.158E-01
   -.688E+01 0.339E+01 -.294E+04   0.652E+01 -.364E+01 0.294E+04   0.341E+00 0.253E+00 0.757E+00   0.183E-01 0.595E-03 0.504E-01
   0.255E+02 -.210E+02 -.294E+04   -.254E+02 0.221E+02 0.294E+04   -.133E+00 -.114E+01 0.350E+00   -.113E-01 0.600E-02 0.689E-02
   0.713E+02 -.716E+02 -.155E+04   -.701E+02 0.716E+02 0.155E+04   -.118E+01 -.563E-01 0.162E+01   -.236E-01 0.754E-02 -.220E-01
   0.282E+02 -.386E+02 -.156E+04   -.292E+02 0.380E+02 0.155E+04   0.940E+00 0.529E+00 0.241E+01   0.468E-02 -.961E-03 -.128E-01
   0.345E+02 0.331E+02 0.308E+04   -.347E+02 -.333E+02 -.308E+04   0.151E+00 0.186E+00 -.227E+01   0.105E-01 0.592E-02 0.327E-02
   0.386E+02 -.879E+01 0.162E+04   -.395E+02 0.949E+01 -.162E+04   0.898E+00 -.629E+00 0.954E+00   -.295E-02 -.196E-02 0.282E-02
   -.713E+02 0.100E+02 -.150E+04   0.722E+02 -.934E+01 0.150E+04   -.872E+00 -.639E+00 0.265E+01   0.224E-01 -.420E-01 -.293E-01
   -.555E+02 0.489E+02 0.312E+04   0.561E+02 -.481E+02 -.312E+04   -.691E+00 -.773E+00 -.191E+01   -.134E-01 0.162E-01 0.678E-02
   -.386E+01 -.523E+02 0.161E+04   0.413E+01 0.519E+02 -.161E+04   -.350E+00 0.385E+00 -.766E+00   0.925E-02 0.110E-01 0.158E-01
   0.734E+01 -.123E+01 -.296E+04   -.753E+01 0.130E+01 0.296E+04   0.193E+00 -.105E+00 0.514E+00   -.145E-01 0.139E-01 -.323E-02
   -.242E+02 -.914E+01 0.618E+01   0.242E+02 0.942E+01 -.749E+01   0.122E-01 -.337E+00 0.130E+01   -.687E-03 -.405E-02 -.382E-01
   -.552E+01 0.117E+02 -.296E+04   0.517E+01 -.118E+02 0.296E+04   0.404E+00 0.113E+00 0.100E+01   -.164E-01 -.111E-01 0.124E-01
   0.232E+02 0.684E+02 -.100E+02   -.241E+02 -.695E+02 0.954E+01   0.905E+00 0.111E+01 0.485E+00   0.119E-01 -.984E-02 -.186E-01
   -.672E+02 0.841E+01 -.151E+04   0.675E+02 -.961E+01 0.150E+04   -.338E+00 0.126E+01 0.292E+01   0.136E-01 0.580E-02 -.102E-01
   0.286E+02 0.268E+02 -.156E+04   -.284E+02 -.261E+02 0.156E+04   -.289E+00 -.695E+00 0.233E+01   0.613E-02 0.115E-01 -.882E-02
   0.268E+02 -.625E+02 -.819E+02   -.277E+02 0.620E+02 0.822E+02   0.933E+00 0.479E+00 -.224E+00   -.117E-01 -.225E-02 -.277E-01
   -.240E+02 -.241E+02 0.383E+01   0.248E+02 0.247E+02 -.451E+01   -.873E+00 -.714E+00 0.718E+00   -.501E-03 -.879E-02 -.534E-01
   0.192E+02 0.150E+02 -.127E+04   -.193E+02 -.152E+02 0.127E+04   0.155E+00 0.358E+00 0.511E+00   0.467E-02 -.596E-02 -.141E-01
   -.573E+02 -.182E+01 0.247E+04   0.576E+02 0.558E+00 -.247E+04   -.440E+00 0.130E+01 -.257E+01   -.415E-02 0.263E-02 -.539E-02
   0.291E+02 -.127E+02 0.250E+04   -.289E+02 0.113E+02 -.250E+04   -.824E-01 0.140E+01 -.215E+01   -.250E-02 -.129E-02 0.113E-02
   0.225E+02 -.766E+01 0.251E+04   -.227E+02 0.818E+01 -.251E+04   0.175E+00 -.546E+00 -.272E+01   0.108E-02 -.467E-02 -.103E-02
   0.174E+01 0.474E+02 0.131E+04   -.924E+00 -.468E+02 -.131E+04   -.868E+00 -.625E+00 -.123E+00   0.904E-02 0.181E-01 -.116E-01
   0.356E+02 -.516E+02 0.129E+04   -.355E+02 0.514E+02 -.129E+04   -.115E+00 0.219E+00 -.418E+00   -.823E-02 0.166E-03 0.819E-02
   -.528E+02 -.269E+02 -.126E+04   0.529E+02 0.271E+02 0.126E+04   -.138E+00 -.220E+00 0.893E+00   0.157E-01 0.324E-02 -.138E-01
   -.857E+02 0.231E+02 0.251E+04   0.856E+02 -.228E+02 -.251E+04   0.105E+00 -.265E+00 -.253E+01   -.120E-01 0.506E-02 0.464E-02
   -.322E+02 0.463E+02 0.131E+04   0.314E+02 -.459E+02 -.131E+04   0.782E+00 -.545E+00 -.427E+00   -.566E-02 0.155E-01 -.107E-01
   -.396E+02 0.174E+01 -.476E+02   0.394E+02 -.136E+01 0.476E+02   0.193E+00 -.415E+00 -.603E-01   0.672E-02 -.129E-01 -.215E-01
   0.140E+02 -.815E+02 -.126E+04   -.141E+02 0.813E+02 0.126E+04   0.140E+00 0.230E+00 0.124E+01   -.155E-01 -.148E-01 -.153E-01
   0.125E+02 0.308E+02 -.124E+04   -.125E+02 -.308E+02 0.124E+04   0.558E-01 -.659E-01 0.536E+00   -.155E-01 0.219E-01 -.232E-02
   0.178E+02 -.424E+02 0.248E+04   -.184E+02 0.417E+02 -.248E+04   0.632E+00 0.626E+00 -.259E+01   0.291E-02 0.187E-02 0.482E-02
   0.176E+01 -.216E+02 0.279E+04   -.188E+01 0.218E+02 -.279E+04   0.129E+00 -.202E+00 -.219E+01   0.226E-02 -.233E-01 0.102E-01
   0.115E+03 0.301E+02 0.283E+04   -.116E+03 -.295E+02 -.282E+04   0.515E+00 -.673E+00 -.220E+01   0.121E-01 0.746E-02 0.591E-02
   -.313E+02 -.215E+02 0.144E+04   0.309E+02 0.205E+02 -.144E+04   0.396E+00 0.101E+01 -.459E+00   -.452E-02 0.110E-01 -.229E-01
   -.600E+02 0.703E+02 0.208E+02   0.600E+02 -.701E+02 -.218E+02   0.440E-01 -.221E+00 0.953E+00   0.244E-04 -.101E-01 -.188E-01
   -.823E+02 0.225E+02 0.142E+04   0.819E+02 -.220E+02 -.142E+04   0.513E+00 -.488E+00 -.778E-01   -.534E-03 -.166E-01 -.122E-01
   -.201E+02 0.136E+02 0.141E+04   0.202E+02 -.138E+02 -.141E+04   -.143E+00 0.235E+00 -.536E-01   0.895E-03 -.338E-02 -.243E-01
   0.464E+02 0.874E+01 -.141E+04   -.461E+02 -.890E+01 0.141E+04   -.309E+00 0.198E+00 0.159E+01   -.747E-02 0.779E-02 -.153E-01
   0.504E+02 -.832E+02 0.279E+04   -.501E+02 0.831E+02 -.279E+04   -.282E+00 0.197E+00 -.223E+01   0.659E-02 -.148E-01 0.649E-02
   -.141E+02 -.132E+01 0.139E+04   0.142E+02 0.153E+01 -.139E+04   -.954E-01 -.204E+00 -.395E+00   -.188E-01 -.201E-01 -.259E-01
   0.148E+02 -.659E+02 -.166E+02   -.141E+02 0.654E+02 0.169E+02   -.744E+00 0.606E+00 -.340E+00   -.709E-02 -.735E-02 -.157E-01
   0.309E+02 0.333E+02 0.348E+04   -.311E+02 -.325E+02 -.348E+04   0.745E-01 -.858E+00 -.337E+01   0.171E-01 0.144E-01 0.203E-01
   0.661E+02 0.851E+01 0.177E+04   -.662E+02 -.922E+01 -.177E+04   0.863E-01 0.742E+00 -.180E+00   0.406E-02 0.718E-02 -.488E-02
   0.965E+02 -.290E+02 0.174E+04   -.963E+02 0.290E+02 -.174E+04   -.179E+00 0.441E-01 0.120E+00   0.104E-01 -.118E-01 -.844E-02
   0.131E+02 0.756E+02 0.707E+02   -.137E+02 -.755E+02 -.714E+02   0.574E+00 -.250E+00 0.694E+00   0.923E-02 0.179E-01 -.273E-01
   0.173E+02 0.615E+02 -.175E+04   -.170E+02 -.612E+02 0.174E+04   -.252E+00 -.291E+00 0.166E+01   -.249E-02 -.191E-01 -.269E-01
   -.445E+02 0.309E+02 -.170E+04   0.438E+02 -.306E+02 0.169E+04   0.916E+00 -.304E+00 0.247E+01   -.257E-01 0.343E-02 0.351E-03
   -.106E+02 0.101E+03 0.343E+04   0.107E+02 -.101E+03 -.343E+04   -.123E+00 0.352E+00 -.259E+01   -.131E-02 0.203E-01 0.813E-02
   -.148E+02 -.780E+02 0.345E+04   0.138E+02 0.777E+02 -.345E+04   0.969E+00 0.351E+00 -.242E+01   0.344E-02 -.157E-01 0.294E-02
   0.105E+03 0.232E+01 -.781E+02   -.105E+03 -.208E+01 0.782E+02   0.531E-01 -.301E+00 -.229E+00   -.690E-02 -.606E-02 -.251E-01
   -.118E+03 -.473E+02 0.450E+02   0.117E+03 0.470E+02 -.451E+02   0.404E+00 0.250E+00 0.168E+00   0.177E-01 -.907E-02 -.515E-01
   -.163E+02 0.473E+02 0.183E+04   0.158E+02 -.469E+02 -.183E+04   0.498E+00 -.517E+00 -.472E+00   0.509E-02 0.171E-01 -.103E-01
   0.711E+01 -.798E+02 0.507E+02   -.674E+01 0.787E+02 -.515E+02   -.401E+00 0.130E+01 0.769E+00   -.830E-02 0.800E-03 -.617E-01
   0.545E+02 -.420E+02 -.932E+00   -.539E+02 0.416E+02 0.481E+00   -.610E+00 0.370E+00 0.549E+00   0.281E-02 0.909E-02 -.329E-01
   -.759E+02 0.177E+01 0.157E+04   0.755E+02 -.164E+01 -.157E+04   0.389E+00 -.625E-01 -.324E-01   -.178E-01 -.604E-02 -.102E-01
   -.115E+02 0.210E+02 0.164E+04   0.118E+02 -.212E+02 -.164E+04   -.339E+00 0.193E+00 -.411E+00   -.869E-02 -.216E-02 0.109E-01
   -.988E+02 -.352E+01 0.312E+04   0.994E+02 0.361E+01 -.312E+04   -.519E+00 -.565E-01 -.115E+01   -.193E-01 -.117E-01 0.559E-03
   0.713E+02 -.554E+02 0.312E+04   -.716E+02 0.560E+02 -.312E+04   0.289E+00 -.552E+00 -.677E+00   0.144E-01 -.189E-01 0.526E-02
   0.137E+02 -.453E+02 0.156E+04   -.134E+02 0.452E+02 -.156E+04   -.387E+00 0.243E+00 0.329E-01   0.103E-01 -.194E-01 -.123E-01
   0.505E+02 0.218E+01 0.161E+04   -.501E+02 -.211E+01 -.161E+04   -.485E+00 -.241E-01 -.300E-01   0.192E-01 -.214E-03 -.143E-01
   -.422E+02 -.775E+02 -.156E+04   0.421E+02 0.776E+02 0.156E+04   0.999E-01 -.894E-01 0.880E+00   0.353E-02 0.199E-02 -.136E-01
   -.582E+02 0.296E+02 0.311E+04   0.586E+02 -.291E+02 -.310E+04   -.361E+00 -.532E+00 -.184E+01   -.152E-01 0.118E-01 0.173E-01
   -.450E+02 0.725E+02 0.699E+02   0.453E+02 -.723E+02 -.701E+02   -.352E+00 -.275E+00 0.164E+00   0.212E-01 -.446E-04 -.268E-01
   -.212E+00 0.614E+02 -.139E+01   0.170E+00 -.606E+02 0.135E+01   0.945E-01 -.861E+00 -.591E-01   -.320E-01 0.200E-01 -.180E-01
   0.442E+02 0.840E+01 -.365E+02   -.438E+02 -.781E+01 0.363E+02   -.377E+00 -.623E+00 0.146E+00   0.192E-01 0.207E-01 -.103E-01
   0.281E+02 -.443E+02 0.287E+02   -.285E+02 0.438E+02 -.289E+02   0.343E+00 0.522E+00 0.226E+00   -.297E-01 0.103E-01 -.250E-01
   0.306E+01 -.327E+01 -.353E+03   -.329E+01 0.342E+01 0.355E+03   0.246E+00 -.172E+00 -.170E+01   0.701E-03 -.651E-04 0.252E-02
 -----------------------------------------------------------------------------------------------
   -.293E+01 -.596E+00 -.687E+01   0.135E-12 0.119E-12 0.228E-10   0.297E+01 0.586E+00 0.732E+01   -.239E-01 0.117E-01 -.520E+00
 
 
 POSITION                                       TOTAL-FORCE (eV/Angst)
 -----------------------------------------------------------------------------------
     12.83216      7.95849      7.01941        -0.018511      0.020851     -0.015273
      5.04334      8.00171      6.98342        -0.000065      0.000390      0.005310
      4.91211      3.45234      7.05278         0.001292     -0.017350      0.011835
     14.20393      8.69607      9.53557        -0.036641      0.024940      0.003650
      3.69867      4.17858      9.49216         0.029664     -0.020045     -0.000626
      6.33346      8.70466      9.30747         0.009379     -0.017361      0.015195
     11.55005      4.16458      9.45964        -0.022657      0.017394      0.004378
      8.94027      8.69592      9.27556         0.007520      0.004904     -0.000320
     10.26125      1.91399      9.25869         0.005425      0.018011      0.008266
      2.41090      1.90763      9.33215         0.020044     -0.003640      0.000205
     11.53588      8.69163      9.44739         0.020818      0.015795      0.032642
     12.86338      6.41883      9.40578        -0.014749      0.002994     -0.015470
      5.00064      1.90304      9.35901         0.010479     -0.000344      0.011426
      7.65248      6.44707      9.34654         0.021193      0.011610     -0.010591
      8.95537      4.17952      9.31601         0.043035      0.012889     -0.000238
      5.02183      6.43127      9.42900         0.008533      0.009483     -0.009464
      7.64242      1.92798      9.36427        -0.010528     -0.036664      0.004357
      7.69420      3.40330      6.99779         0.003209     -0.016593      0.025734
      6.25141      1.12262      6.95166        -0.000128     -0.011722     -0.008149
      6.36060      1.11842      0.83643        -0.011407     -0.003504     -0.013001
      3.67604      4.17054      2.79730         0.010168      0.012589     -0.006646
      1.16156      1.23941      6.91412        -0.000359     -0.005571     -0.026765
      1.12703      1.17594      0.69812        -0.034534      0.006844     -0.003169
      6.37362      8.68069      2.88743        -0.022327      0.001288      0.010436
      6.32962      4.18173      9.44981        -0.008304     -0.010041      0.000864
      7.60189      4.94104      4.81158         0.005719     -0.011312     -0.048604
     10.23888      6.43889      9.35146         0.003566     -0.036705     -0.004363
     14.13769      7.16055      4.86796        -0.010074      0.015887      0.060278
     11.55975      5.63156      7.02541        -0.012592     -0.004581      0.019667
      6.35290      5.72044      7.02001        -0.005477     -0.009683     -0.021239
      3.59772      2.55377      4.95823        -0.012818      0.001357      0.002162
     10.26754      4.96975      4.85148        -0.021817     -0.023956     -0.019033
      3.72314      5.71281      7.19543         0.002851     -0.008740     -0.025605
     12.85228      7.80762      0.88868        -0.006689      0.008485     -0.007720
      5.11408      7.84972      0.79309         0.011292      0.014006      0.006718
      3.77023      5.68258      0.76914         0.009939     -0.001827     -0.007615
      7.70970      1.99756      2.81572        -0.022249     -0.011974     -0.016965
      8.99527      8.65169      2.84555         0.009003      0.009355     -0.006771
      2.37825      3.46907      7.17182        -0.004177      0.009377     -0.004978
      2.33777      3.46419      0.78556         0.004044     -0.001064     -0.003046
     10.24620      1.95217      2.80512        -0.025316     -0.004375     -0.023138
     12.84195      4.93745      4.92144         0.012337     -0.017209     -0.026450
      3.70596      1.05160      7.07791         0.004056     -0.001865      0.008026
      8.95135      5.71183      7.08730         0.003581     -0.004510      0.005232
      3.71395      1.08784      0.82514         0.008419      0.003929      0.009226
      8.99829      5.66522      0.92800        -0.002418      0.007852     -0.004905
      5.06743      3.44147      0.81265         0.000055      0.016867     -0.008342
     11.51727      8.61665      2.89228         0.004173     -0.012232     -0.003156
     11.54465      7.19978      4.83241        -0.000259      0.047645     -0.007070
     12.75801      6.40091      2.81726         0.020499      0.000484     -0.012670
      8.95770      4.17295      2.77896        -0.002901      0.003160     -0.001711
      7.69429      7.93790      6.99665         0.005303     -0.000101     -0.005585
      7.73138      7.86096      0.86088        -0.010445     -0.000562      0.006556
     10.29450      6.46618      2.80924         0.010857      0.006554      0.009715
      2.48849      0.26233      4.99690        -0.015946      0.002296     -0.032045
      7.67241      3.44637      0.72761        -0.007067     -0.012847      0.010182
      5.03303      1.85843      2.89234        -0.022393      0.003696      0.006771
      5.10108      6.38920      2.87489        -0.013701      0.001836      0.009616
      7.63667      0.45282      4.84968         0.006601     -0.024263      0.046918
      8.96008      1.17234      6.99882        -0.004713     -0.002168     -0.013232
     10.19860      7.91235      6.98370         0.013342      0.001051     -0.001601
      8.97178      1.11591      0.72200         0.007431     -0.009863      0.013321
     10.26234      7.88162      0.76497        -0.010652      0.001498      0.015456
      5.00242      4.91318      4.93522         0.011526      0.003823     -0.046830
     11.50288      2.67887      4.85730         0.029351     -0.008794      0.003559
     14.15581      8.72502      2.82041        -0.002715      0.002051     -0.002612
      8.97964      2.61894      4.90350        -0.032297      0.007182      0.044292
      6.30589      2.63413      4.85503         0.004989     -0.000467      0.002820
     11.54224      4.13511      2.79014         0.005137      0.006350     -0.003809
      2.41993      1.87995      2.81735         0.020018      0.023629      0.017669
     11.54338      5.63874      0.85840         0.014465      0.023418     -0.018314
      6.38743      5.66222      0.89172        -0.014270      0.014571      0.000969
      7.74928      6.43552      2.82185        -0.000002      0.006863     -0.026503
      6.36172      4.09062      2.75984        -0.014500     -0.000443      0.007431
     10.27199      3.42597      7.04719        -0.006915      0.005770      0.001409
     10.24544      3.41772      0.83401         0.002110     -0.009295     -0.017244
     10.26946      0.46989      4.86907        -0.011724     -0.034359      0.031159
      8.95807      7.22027      4.93062        -0.001464      0.006190      0.001164
      6.39295      7.22925      4.93874         0.024640      0.007514      0.011990
      4.99996      0.28300      4.87997         0.010449      0.000249      0.042373
      7.66906      0.42375     10.50572         0.019292     -0.026896      0.001891
 -----------------------------------------------------------------------------------
    total drift:                                0.014787      0.002543     -0.066314


--------------------------------------------------------------------------------------------------------



  FREE ENERGIE OF THE ION-ELECTRON SYSTEM (eV)
  ---------------------------------------------------
  free  energy   TOTEN  =      -511.46369351 eV

  energy  without entropy=     -511.46905161  energy(sigma->0) =     -511.46547954
 
 d Force = 0.1738617E-02[ 0.409E-03, 0.307E-02]  d Energy = 0.1675198E-02 0.634E-04
 d Force =-0.3447331E+02[-0.345E+02,-0.345E+02]  d Ewald  =-0.3447332E+02 0.585E-05


--------------------------------------------------------------------------------------------------------


    POTLOK:  cpu time    0.3929: real time    0.3944


--------------------------------------------------------------------------------------------------------


 Conjugate gradient step on ions:
 trial-energy change:   -0.001675  1 .order   -0.001739   -0.003068   -0.000409
  (g-gl).g = 0.234E-02      g.g   = 0.215E-02  gl.gl    = 0.346E-02
 g(Force)  = 0.215E-02   g(Stress)= 0.000E+00 ortho     =-0.663E-04
 gamma     =   0.67779
 trial     =   1.45734
 opt step  =   1.72724  (harmonic =   1.68147) maximal distance =0.01237800
 next E    =  -511.463731   (d E  =  -0.00171)


--------------------------------------------------------------------------------------------------------


  
 reached required accuracy - stopping structural energy minimisation
     LOOP+:  cpu time  694.5579: real time  699.1493
    4ORBIT:  cpu time    0.0000: real time    0.0000

 total amount of memory used by VASP MPI-rank0   221618. kBytes
=======================================================================

   base      :      30000. kBytes
   nonlr-proj:      32064. kBytes
   fftplans  :      14920. kBytes
   grid      :      45762. kBytes
   one-center:        653. kBytes
   wavefun   :      98219. kBytes
 
  
  
 General timing and accounting informations for this job:
 ========================================================
  
                  Total CPU time used (sec):    13248.974
                            User time (sec):    12858.978
                          System time (sec):      389.996
                         Elapsed time (sec):    13321.833
  
                   Maximum memory used (kb):      397712.
                   Average memory used (kb):           0.
  
                          Minor page faults:     12687977
                          Major page faults:          215
                 Voluntary context switches:         9309
