 vasp.5.4.4.18Apr17-6-g9f103f2a35 (build Oct 25 2019 11:13:22) complex          
  
 executed on             LinuxIFC date 2021.10.14  03:11:22
 running on   48 total cores
 distrk:  each k-point on   48 cores,    1 groups
 distr:  one band on NCORES_PER_BAND=   4 cores,   12 groups


--------------------------------------------------------------------------------------------------------


 INCAR:
 POTCAR:    PAW_PBE Pt 04Feb2005                  
 POTCAR:    PAW_PBE Fe 06Sep2000                  
 POTCAR:    PAW_PBE Co 02Aug2007                  
 POTCAR:    PAW_PBE Cu 22Jun2005                  
 POTCAR:    PAW_PBE Ni 02Aug2007                  
 POTCAR:    PAW_PBE H 15Jun2001                   
 POTCAR:    PAW_PBE Pt 04Feb2005                  
   VRHFIN =Pt: s1d9                                                             
   LEXCH  = PE                                                                  
   EATOM  =   729.1176 eV,   53.5886 Ry                                         
                                                                                
   TITEL  = PAW_PBE Pt 04Feb2005                                                
   LULTRA =        F    use ultrasoft PP ?                                      
   IUNSCR =        1    unscreen: 0-lin 1-nonlin 2-no                           
   RPACOR =    2.330    partial core radius                                     
   POMASS =  195.080; ZVAL   =   10.000    mass and valenz                      
   RCORE  =    2.600    outmost cutoff radius                                   
   RWIGS  =    2.750; RWIGS  =    1.455    wigner-seitz radius (au A)           
   ENMAX  =  230.283; ENMIN  =  172.712 eV                                      
   ICORE  =        3    local potential                                         
   LCOR   =        T    correct aug charges                                     
   LPAW   =        T    paw PP                                                  
   EAUG   =  358.966                                                            
   DEXC   =    0.000                                                            
   RMAX   =    2.658    core radius for proj-oper                               
   RAUG   =    1.300    factor for augmentation sphere                          
   RDEP   =    2.761    radius for radial grids                                 
   RDEPT  =    2.203    core radius for aug-charge                              
                                                                                
   Atomic configuration                                                         
   16 entries                                                                   
     n  l   j            E        occ.                                          
     1  0  0.50    -78401.1885   2.0000                                         
     2  0  0.50    -13770.7750   2.0000                                         
     2  1  1.50    -11931.0468   6.0000                                         
     3  0  0.50     -3234.7234   2.0000                                         
     3  1  1.50     -2699.2216   6.0000                                         
     3  2  2.50     -2119.5714  10.0000                                         
     4  0  0.50      -695.1528   2.0000                                         
     4  1  1.50      -519.6034   6.0000                                         
     4  2  2.50      -306.6786  10.0000                                         
     4  3  3.50       -70.1041  14.0000                                         
     5  0  0.50      -101.7747   2.0000                                         
     5  1  1.50       -55.9873   6.0000                                         
     5  2  2.50        -6.1423   9.0000                                         
     6  0  0.50        -5.6573   1.0000                                         
     6  1  1.50        -6.8029   0.0000                                         
     5  3  2.50        -1.3606   0.0000                                         
   Description                                                                  
     l       E           TYP  RCUT    TYP  RCUT                                 
     2     -6.1423404     23  2.500                                             
     2     -7.5029230     23  2.500                                             
     0     -5.6573207     23  2.500                                             
     0      0.7416693     23  2.500                                             
     1     -2.7211652     23  2.600                                             
     1     20.4087390     23  2.600                                             
     3     -1.3605826     23  2.500                                             
  local pseudopotential read in
  partial core-charges read in
  partial kinetic energy density read in
  atomic valenz-charges read in
  non local Contribution for L=           2  read in
    real space projection operators read in
  non local Contribution for L=           2  read in
    real space projection operators read in
  non local Contribution for L=           0  read in
    real space projection operators read in
  non local Contribution for L=           0  read in
    real space projection operators read in
  non local Contribution for L=           1  read in
    real space projection operators read in
  non local Contribution for L=           1  read in
    real space projection operators read in
    PAW grid and wavefunctions read in
 
   number of l-projection  operators is LMAX  =           6
   number of lm-projection operators is LMMAX =          18
 
 POTCAR:    PAW_PBE Fe 06Sep2000                  
   VRHFIN =Fe:  d7 s1                                                           
   LEXCH  = PE                                                                  
   EATOM  =   594.3153 eV,   43.6809 Ry                                         
                                                                                
   TITEL  = PAW_PBE Fe 06Sep2000                                                
   LULTRA =        F    use ultrasoft PP ?                                      
   IUNSCR =        1    unscreen: 0-lin 1-nonlin 2-no                           
   RPACOR =    2.000    partial core radius                                     
   POMASS =   55.847; ZVAL   =    8.000    mass and valenz                      
   RCORE  =    2.300    outmost cutoff radius                                   
   RWIGS  =    2.460; RWIGS  =    1.302    wigner-seitz radius (au A)           
   ENMAX  =  267.882; ENMIN  =  200.911 eV                                      
   RCLOC  =    1.701    cutoff for local pot                                    
   LCOR   =        T    correct aug charges                                     
   LPAW   =        T    paw PP                                                  
   EAUG   =  511.368                                                            
   DEXC   =    0.000                                                            
   RMAX   =    2.356    core radius for proj-oper                               
   RAUG   =    1.300    factor for augmentation sphere                          
   RDEP   =    2.442    radius for radial grids                                 
   RDEPT  =    1.890    core radius for aug-charge                              
                                                                                
   Atomic configuration                                                         
    9 entries                                                                   
     n  l   j            E        occ.                                          
     1  0  0.50     -6993.8440   2.0000                                         
     2  0  0.50      -814.6047   2.0000                                         
     2  1  1.50      -693.3689   6.0000                                         
     3  0  0.50       -89.4732   2.0000                                         
     3  1  1.50       -55.6373   6.0000                                         
     3  2  2.50        -3.8151   7.0000                                         
     4  0  0.50        -4.2551   1.0000                                         
     4  1  1.50        -3.4015   0.0000                                         
     4  3  2.50        -1.3606   0.0000                                         
   Description                                                                  
     l       E           TYP  RCUT    TYP  RCUT                                 
     2     -3.8151135     23  2.300                                             
     2     -5.1756961     23  2.300                                             
     0     -4.2550963     23  2.300                                             
     0      7.2035603     23  2.300                                             
     1     -2.7211652     23  2.300                                             
     1     18.4316424     23  2.300                                             
  local pseudopotential read in
  partial core-charges read in
  partial kinetic energy density read in
  atomic valenz-charges read in
  non local Contribution for L=           2  read in
    real space projection operators read in
  non local Contribution for L=           2  read in
    real space projection operators read in
  non local Contribution for L=           0  read in
    real space projection operators read in
  non local Contribution for L=           0  read in
    real space projection operators read in
  non local Contribution for L=           1  read in
    real space projection operators read in
  non local Contribution for L=           1  read in
    real space projection operators read in
    PAW grid and wavefunctions read in
 
   number of l-projection  operators is LMAX  =           6
   number of lm-projection operators is LMMAX =          18
 
 POTCAR:    PAW_PBE Co 02Aug2007                  
   VRHFIN =Co: d8 s1                                                            
   LEXCH  = PE                                                                  
   EATOM  =   813.3670 eV,   59.7808 Ry                                         
                                                                                
   TITEL  = PAW_PBE Co 02Aug2007                                                
   LULTRA =        F    use ultrasoft PP ?                                      
   IUNSCR =        1    unscreen: 0-lin 1-nonlin 2-no                           
   RPACOR =    2.000    partial core radius                                     
   POMASS =   58.933; ZVAL   =    9.000    mass and valenz                      
   RCORE  =    2.300    outmost cutoff radius                                   
   RWIGS  =    2.460; RWIGS  =    1.302    wigner-seitz radius (au A)           
   ENMAX  =  267.968; ENMIN  =  200.976 eV                                      
   RCLOC  =    1.203    cutoff for local pot                                    
   LCOR   =        T    correct aug charges                                     
   LPAW   =        T    paw PP                                                  
   EAUG   =  477.818                                                            
   DEXC   =    0.000                                                            
   RMAX   =    2.360    core radius for proj-oper                               
   RAUG   =    1.300    factor for augmentation sphere                          
   RDEP   =    2.393    radius for radial grids                                 
   RDEPT  =    1.864    core radius for aug-charge                              
                                                                                
   Atomic configuration                                                         
    9 entries                                                                   
     n  l   j            E        occ.                                          
     1  0  0.50     -7587.6674   2.0000                                         
     2  0  0.50      -893.6084   2.0000                                         
     2  1  1.50      -764.5805   6.0000                                         
     3  0  0.50       -97.5973   2.0000                                         
     3  1  1.50       -60.9648   6.0000                                         
     3  2  2.50        -4.2382   8.0000                                         
     4  0  0.50        -4.3746   1.0000                                         
     4  1  1.50        -4.0817   0.0000                                         
     4  3  2.50        -1.3606   0.0000                                         
   Description                                                                  
     l       E           TYP  RCUT    TYP  RCUT                                 
     2     -4.2382362     23  2.300                                             
     2     -5.5988188     23  2.300                                             
     0     -4.3745797     23  2.300                                             
     0      5.7660125     23  2.300                                             
     1     -2.7211652     23  2.300                                             
     1     16.9860234     23  2.300                                             
  local pseudopotential read in
  partial core-charges read in
  partial kinetic energy density read in
  atomic valenz-charges read in
  non local Contribution for L=           2  read in
    real space projection operators read in
  non local Contribution for L=           2  read in
    real space projection operators read in
  non local Contribution for L=           0  read in
    real space projection operators read in
  non local Contribution for L=           0  read in
    real space projection operators read in
  non local Contribution for L=           1  read in
    real space projection operators read in
  non local Contribution for L=           1  read in
    real space projection operators read in
    PAW grid and wavefunctions read in
 
   number of l-projection  operators is LMAX  =           6
   number of lm-projection operators is LMMAX =          18
 
 POTCAR:    PAW_PBE Cu 22Jun2005                  
   VRHFIN =Cu: d10 p1                                                           
   LEXCH  = PE                                                                  
   EATOM  =  1390.9808 eV,  102.2342 Ry                                         
                                                                                
   TITEL  = PAW_PBE Cu 22Jun2005                                                
   LULTRA =        F    use ultrasoft PP ?                                      
   IUNSCR =        1    unscreen: 0-lin 1-nonlin 2-no                           
   RPACOR =    2.000    partial core radius                                     
   POMASS =   63.546; ZVAL   =   11.000    mass and valenz                      
   RCORE  =    2.300    outmost cutoff radius                                   
   RWIGS  =    2.200; RWIGS  =    1.164    wigner-seitz radius (au A)           
   ENMAX  =  295.446; ENMIN  =  221.585 eV                                      
   ICORE  =        3    local potential                                         
   LCOR   =        T    correct aug charges                                     
   LPAW   =        T    paw PP                                                  
   EAUG   =  586.980                                                            
   DEXC   =    0.000                                                            
   RMAX   =    2.344    core radius for proj-oper                               
   RAUG   =    1.300    factor for augmentation sphere                          
   RDEP   =    2.302    radius for radial grids                                 
   RDEPT  =    1.771    core radius for aug-charge                              
                                                                                
   Atomic configuration                                                         
    9 entries                                                                   
     n  l   j            E        occ.                                          
     1  0  0.50     -8850.2468   2.0000                                         
     2  0  0.50     -1062.3498   2.0000                                         
     2  1  1.50      -916.8226   6.0000                                         
     3  0  0.50      -114.6929   2.0000                                         
     3  1  1.50       -72.1325   6.0000                                         
     3  2  2.50        -5.0394  10.0000                                         
     4  0  0.50        -4.6097   1.0000                                         
     4  1  0.50        -4.0817   0.0000                                         
     4  3  2.50        -1.3606   0.0000                                         
   Description                                                                  
     l       E           TYP  RCUT    TYP  RCUT                                 
     2     -5.0393973     23  2.200                                             
     2     10.8846608     23  2.200                                             
     0     -4.6097109     23  2.200                                             
     0      8.2520465     23  2.200                                             
     1     -2.7211652     23  2.200                                             
     1     21.7055443     23  2.200                                             
     3      2.7211652     23  2.300                                             
  local pseudopotential read in
  partial core-charges read in
  partial kinetic energy density read in
  atomic valenz-charges read in
  non local Contribution for L=           2  read in
    real space projection operators read in
  non local Contribution for L=           2  read in
    real space projection operators read in
  non local Contribution for L=           0  read in
    real space projection operators read in
  non local Contribution for L=           0  read in
    real space projection operators read in
  non local Contribution for L=           1  read in
    real space projection operators read in
  non local Contribution for L=           1  read in
    real space projection operators read in
    PAW grid and wavefunctions read in
 
   number of l-projection  operators is LMAX  =           6
   number of lm-projection operators is LMMAX =          18
 
 POTCAR:    PAW_PBE Ni 02Aug2007                  
   VRHFIN =Ni:                                                                  
   LEXCH  = PE                                                                  
   EATOM  =  1077.6739 eV,   79.2068 Ry                                         
                                                                                
   TITEL  = PAW_PBE Ni 02Aug2007                                                
   LULTRA =        F    use ultrasoft PP ?                                      
   IUNSCR =        1    unscreen: 0-lin 1-nonlin 2-no                           
   RPACOR =    2.000    partial core radius                                     
   POMASS =   58.690; ZVAL   =   10.000    mass and valenz                      
   RCORE  =    2.300    outmost cutoff radius                                   
   RWIGS  =    2.430; RWIGS  =    1.286    wigner-seitz radius (au A)           
   ENMAX  =  269.532; ENMIN  =  202.149 eV                                      
   RCLOC  =    1.201    cutoff for local pot                                    
   LCOR   =        T    correct aug charges                                     
   LPAW   =        T    paw PP                                                  
   EAUG   =  544.565                                                            
   DEXC   =    0.000                                                            
   RMAX   =    2.357    core radius for proj-oper                               
   RAUG   =    1.300    factor for augmentation sphere                          
   RDEP   =    2.390    radius for radial grids                                 
   RDEPT  =    1.838    core radius for aug-charge                              
                                                                                
   Atomic configuration                                                         
    9 entries                                                                   
     n  l   j            E        occ.                                          
     1  0  0.50     -8206.4253   2.0000                                         
     2  0  0.50      -976.1748   2.0000                                         
     2  1  1.50      -839.0571   6.0000                                         
     3  0  0.50      -105.9991   2.0000                                         
     3  1  1.50       -66.4603   6.0000                                         
     3  2  2.50        -4.6458   9.0000                                         
     4  0  0.50        -4.4926   1.0000                                         
     4  1  1.50        -4.0817   0.0000                                         
     4  3  2.50        -1.3606   0.0000                                         
   Description                                                                  
     l       E           TYP  RCUT    TYP  RCUT                                 
     2     -4.6457903     23  2.300                                             
     2     -6.0063729     23  2.300                                             
     0     -4.4925590     23  2.300                                             
     0      5.0102601     23  2.300                                             
     1     -2.7211652     23  2.300                                             
     1     16.5183231     23  2.300                                             
  local pseudopotential read in
  partial core-charges read in
  partial kinetic energy density read in
  atomic valenz-charges read in
  non local Contribution for L=           2  read in
    real space projection operators read in
  non local Contribution for L=           2  read in
    real space projection operators read in
  non local Contribution for L=           0  read in
    real space projection operators read in
  non local Contribution for L=           0  read in
    real space projection operators read in
  non local Contribution for L=           1  read in
    real space projection operators read in
  non local Contribution for L=           1  read in
    real space projection operators read in
    PAW grid and wavefunctions read in
 
   number of l-projection  operators is LMAX  =           6
   number of lm-projection operators is LMMAX =          18
 
 POTCAR:    PAW_PBE H 15Jun2001                   
   VRHFIN =H: ultrasoft test                                                    
   LEXCH  = PE                                                                  
   EATOM  =    12.4884 eV,    0.9179 Ry                                         
                                                                                
   TITEL  = PAW_PBE H 15Jun2001                                                 
   LULTRA =        F    use ultrasoft PP ?                                      
   IUNSCR =        0    unscreen: 0-lin 1-nonlin 2-no                           
   RPACOR =    0.000    partial core radius                                     
   POMASS =    1.000; ZVAL   =    1.000    mass and valenz                      
   RCORE  =    1.100    outmost cutoff radius                                   
   RWIGS  =    0.700; RWIGS  =    0.370    wigner-seitz radius (au A)           
   ENMAX  =  250.000; ENMIN  =  200.000 eV                                      
   RCLOC  =    0.701    cutoff for local pot                                    
   LCOR   =        T    correct aug charges                                     
   LPAW   =        T    paw PP                                                  
   EAUG   =  400.000                                                            
   RMAX   =    1.123    core radius for proj-oper                               
   RAUG   =    1.200    factor for augmentation sphere                          
   RDEP   =    1.112    radius for radial grids                                 
   RDEPT  =    0.926    core radius for aug-charge                              
                                                                                
   Atomic configuration                                                         
    2 entries                                                                   
     n  l   j            E        occ.                                          
     1  0  0.50        -6.4927   1.0000                                         
     2  1  0.50        -3.4015   0.0000                                         
   Description                                                                  
     l       E           TYP  RCUT    TYP  RCUT                                 
     0     -6.4927494     23  1.100                                             
     0      6.8029130     23  1.100                                             
     1     -4.0817478     23  1.100                                             
  local pseudopotential read in
  atomic valenz-charges read in
  non local Contribution for L=           0  read in
    real space projection operators read in
  non local Contribution for L=           0  read in
    real space projection operators read in
  non local Contribution for L=           1  read in
    real space projection operators read in
    PAW grid and wavefunctions read in
 
   number of l-projection  operators is LMAX  =           3
   number of lm-projection operators is LMMAX =           5
 
 Optimization of the real space projectors (new method)

 maximal supplied QI-value         = 14.36
 optimisation between [QCUT,QGAM] = [ 11.92, 23.98] = [ 39.79,161.09] Ry 
 Optimized for a Real-space Cutoff    1.49 Angstroem

   l    n(q)    QCUT    max X(q) W(low)/X(q) W(high)/X(q)  e(spline) 
   2     10    11.920    66.195    0.79E-04    0.18E-03    0.24E-06
   2     10    11.920    64.643    0.81E-04    0.19E-03    0.24E-06
   0     11    11.920    95.520    0.28E-04    0.54E-04    0.18E-06
   0     11    11.920    63.403    0.27E-04    0.52E-04    0.17E-06
   1     10    11.920    19.961    0.18E-04    0.11E-03    0.23E-06
   1     10    11.920    13.289    0.25E-04    0.87E-04    0.19E-06
 Optimization of the real space projectors (new method)

 maximal supplied QI-value         = 16.25
 optimisation between [QCUT,QGAM] = [ 11.86, 23.89] = [ 39.41,159.82] Ry 
 Optimized for a Real-space Cutoff    1.49 Angstroem

   l    n(q)    QCUT    max X(q) W(low)/X(q) W(high)/X(q)  e(spline) 
   2     10    11.864    80.901    0.13E-03    0.23E-03    0.37E-06
   2     10    11.864    75.754    0.13E-03    0.23E-03    0.38E-06
   0     11    11.864    58.752    0.44E-04    0.11E-04    0.20E-06
   0     11    11.864    30.679    0.36E-04    0.10E-04    0.18E-06
   1     10    11.864    17.977    0.31E-04    0.45E-04    0.10E-06
   1     10    11.864    13.559    0.25E-04    0.37E-04    0.89E-07
 Optimization of the real space projectors (new method)

 maximal supplied QI-value         = 16.25
 optimisation between [QCUT,QGAM] = [ 11.86, 23.89] = [ 39.41,159.82] Ry 
 Optimized for a Real-space Cutoff    1.33 Angstroem

   l    n(q)    QCUT    max X(q) W(low)/X(q) W(high)/X(q)  e(spline) 
   2      9    11.864    65.824    0.22E-03    0.53E-03    0.26E-06
   2      9    11.864    61.429    0.22E-03    0.53E-03    0.26E-06
   0      9    11.864    56.174    0.21E-03    0.32E-04    0.15E-06
   0      9    11.864    31.263    0.19E-03    0.30E-04    0.14E-06
   1      9    11.864    19.828    0.63E-04    0.30E-03    0.16E-06
   1      9    11.864    15.139    0.49E-04    0.25E-03    0.13E-06
 Optimization of the real space projectors (new method)

 maximal supplied QI-value         = 16.25
 optimisation between [QCUT,QGAM] = [ 11.86, 23.89] = [ 39.41,159.82] Ry 
 Optimized for a Real-space Cutoff    1.49 Angstroem

   l    n(q)    QCUT    max X(q) W(low)/X(q) W(high)/X(q)  e(spline) 
   2     10    11.864     4.610    0.10E-03    0.20E-03    0.29E-06
   2     10    11.864     8.522    0.17E-03    0.33E-03    0.50E-06
   0     11    11.864    51.609    0.52E-04    0.55E-04    0.33E-06
   0     11    11.864    27.747    0.46E-04    0.52E-04    0.31E-06
   1     10    11.864    20.408    0.54E-04    0.25E-04    0.21E-06
   1     10    11.864    13.425    0.48E-04    0.22E-04    0.18E-06
 Optimization of the real space projectors (new method)

 maximal supplied QI-value         = 16.25
 optimisation between [QCUT,QGAM] = [ 11.86, 23.89] = [ 39.41,159.82] Ry 
 Optimized for a Real-space Cutoff    1.33 Angstroem

   l    n(q)    QCUT    max X(q) W(low)/X(q) W(high)/X(q)  e(spline) 
   2      9    11.864    60.317    0.21E-03    0.51E-03    0.25E-06
   2      9    11.864    55.921    0.21E-03    0.51E-03    0.26E-06
   0      9    11.864    51.690    0.22E-03    0.30E-04    0.17E-06
   0      9    11.864    30.015    0.20E-03    0.28E-04    0.15E-06
   1      9    11.864    18.849    0.76E-04    0.33E-03    0.17E-06
   1      9    11.864    14.624    0.60E-04    0.28E-03    0.15E-06
 Optimization of the real space projectors (new method)

 maximal supplied QI-value         = 34.20
 optimisation between [QCUT,QGAM] = [ 11.97, 23.94] = [ 40.13,160.53] Ry 
 Optimized for a Real-space Cutoff    1.18 Angstroem

   l    n(q)    QCUT    max X(q) W(low)/X(q) W(high)/X(q)  e(spline) 
   0      8    11.971    19.460    0.15E-03    0.31E-03    0.25E-06
   0      8    11.971    12.209    0.13E-03    0.29E-03    0.25E-06
   1      8    11.971     4.655    0.22E-03    0.24E-03    0.21E-06
  PAW_PBE Pt 04Feb2005                  :
 energy of atom  1       EATOM= -729.1176
 kinetic energy error for atom=    0.0021 (will be added to EATOM!!)
  PAW_PBE Fe 06Sep2000                  :
 energy of atom  2       EATOM= -594.3153
 kinetic energy error for atom=    0.0024 (will be added to EATOM!!)
  PAW_PBE Co 02Aug2007                  :
 energy of atom  3       EATOM= -813.3670
 kinetic energy error for atom=    0.0026 (will be added to EATOM!!)
  PAW_PBE Cu 22Jun2005                  :
 energy of atom  4       EATOM=-1390.9808
 kinetic energy error for atom=    0.0036 (will be added to EATOM!!)
  PAW_PBE Ni 02Aug2007                  :
 energy of atom  5       EATOM=-1077.6739
 kinetic energy error for atom=    0.0027 (will be added to EATOM!!)
  PAW_PBE H 15Jun2001                   :
 energy of atom  6       EATOM=  -12.4884
 kinetic energy error for atom=    0.0008 (will be added to EATOM!!)
 
 
 POSCAR: 10.66                                   
  positions in direct lattice
  velocities in cartesian coordinates
 exchange correlation table for  LEXCH =        8
   RHO(1)=    0.500       N(1)  =     2000
   RHO(2)=  100.500       N(2)  =     4000
 


--------------------------------------------------------------------------------------------------------


 ion  position               nearest neighbor table
   1  0.787  0.879  0.317-  49 2.62  28 2.62  59 2.64  19 2.66  33 2.68  61 2.68  29 2.70  60 2.70
                             2 2.74  11 2.76   4 2.84  12 2.84
   2  0.042  0.882  0.316-  79 2.56  77 2.60  60 2.65  30 2.66  28 2.67  52 2.69  33 2.69  22 2.71
                             1 2.74   6 2.79   4 2.87  16 2.94
   3  0.279  0.381  0.319-  64 2.57  39 2.59  33 2.61  31 2.63  68 2.71  19 2.73  43 2.73  30 2.73
                             5 2.77  13 2.79  25 2.84  18 2.84
   4  0.870  0.964  0.425-  17 2.63  11 2.64   9 2.67  12 2.70   6 2.72  16 2.74  60 2.83   1 2.84
                             2 2.87
   5  0.121  0.462  0.426-  16 2.63  12 2.64  10 2.65   7 2.65  13 2.70  25 2.70  39 2.71  33 2.72
                             3 2.77
   6  0.125  0.964  0.422-   8 2.63  10 2.65   9 2.68  14 2.69   4 2.72  16 2.74   2 2.79  52 2.80
                            22 2.86
   7  0.874  0.460  0.425-  81 1.63   9 2.64  15 2.64   5 2.65  10 2.66  12 2.66  39 2.69  27 2.69
                            75 2.75  29 2.79
   8  0.374  0.960  0.419-  43 2.60   6 2.63  14 2.64  27 2.65  13 2.66  11 2.67  10 2.67  52 2.68
                            61 2.71
   9  0.872  0.213  0.419-  81 1.70  15 2.64   7 2.64  17 2.66  75 2.66   4 2.67   6 2.68  10 2.69
                            60 2.71  22 2.80
  10  0.125  0.212  0.421-  13 2.64   5 2.65   6 2.65   7 2.66  39 2.66   8 2.67   9 2.69  43 2.72
                            22 2.77
  11  0.624  0.961  0.422-   4 2.64  13 2.66  27 2.66  12 2.66   8 2.67  17 2.67   1 2.76  19 2.81
                            61 2.82
  12  0.873  0.710  0.424-   5 2.64   7 2.66  27 2.66  11 2.66  33 2.69  16 2.69   4 2.70  29 2.78
                             1 2.84
  13  0.374  0.209  0.423-  10 2.64  11 2.66   8 2.66  17 2.67  25 2.69   5 2.70  43 2.75   3 2.79
                            19 2.81
  14  0.377  0.712  0.422-  27 2.61   8 2.64  15 2.65  44 2.67  25 2.68   6 2.69  16 2.70  52 2.73
                            30 2.75
  15  0.626  0.462  0.421-   9 2.64   7 2.64  27 2.65  14 2.65  25 2.68  17 2.68  44 2.69  75 2.71
                            18 2.76
  16  0.127  0.707  0.427-  25 2.63   5 2.63  12 2.69  14 2.70  33 2.71   4 2.74   6 2.74  30 2.84
                             2 2.94
  17  0.624  0.211  0.421-   4 2.63   9 2.66  25 2.66  11 2.67  13 2.67  15 2.68  18 2.75  60 2.77
                            19 2.85
  18  0.548  0.376  0.316-  67 2.56  60 2.62  75 2.63  68 2.65  26 2.66  44 2.66  30 2.74  17 2.75
                            19 2.75  15 2.76   3 2.84  25 2.86
  19  0.534  0.125  0.314-  80 2.55  68 2.57  43 2.58  59 2.60   1 2.66  61 2.66   3 2.73  18 2.75
                            60 2.78  13 2.81  11 2.81  17 2.85
  20  0.549  0.122  0.042-  37 2.55  57 2.55  48 2.57  62 2.66  63 2.70  34 2.71  45 2.73  47 2.74
                            56 2.74
  21  0.120  0.460  0.128-  40 2.52  36 2.53  47 2.53  42 2.60  64 2.62  69 2.62  70 2.66  50 2.67
                            31 2.71  58 2.71  57 2.74  74 2.75
  22  0.044  0.136  0.314-  65 2.52  55 2.54  77 2.57  43 2.60  39 2.61  75 2.64   2 2.71  60 2.71
                            52 2.75  10 2.77   9 2.80   6 2.86  31 3.41
  23  0.042  0.131  0.034-  70 2.57  40 2.60  41 2.61  45 2.64  62 2.65  76 2.65  24 2.69  35 2.76
                            53 2.81
  24  0.131  0.958  0.132-  79 2.52  77 2.55  35 2.57  53 2.58  55 2.59  70 2.64  38 2.66  58 2.66
                            73 2.67  23 2.69  66 2.73  41 2.75
  25  0.375  0.461  0.424-  16 2.63  17 2.66  15 2.68  14 2.68  13 2.69   5 2.70  30 2.82   3 2.84
                            18 2.86
  26  0.455  0.546  0.219-  73 2.50  74 2.54  51 2.55  79 2.63  64 2.65  30 2.66  18 2.66  68 2.69
                            78 2.69  32 2.70  44 2.74  67 2.75
  27  0.622  0.712  0.423-  14 2.61   8 2.65  15 2.65  11 2.66  12 2.66   7 2.69  44 2.70  61 2.77
                            29 2.78
  28  0.956  0.789  0.221-  58 2.56  66 2.58  50 2.58  42 2.61   1 2.62  49 2.64  64 2.66   2 2.67
                            33 2.70  59 2.74  79 2.80  77 2.81
  29  0.794  0.623  0.319-  42 2.56  39 2.56  75 2.60  32 2.62  44 2.67  33 2.67  49 2.68  61 2.70
                             1 2.70  12 2.78  27 2.78   7 2.79
  30  0.290  0.631  0.318-  79 2.56  64 2.61  52 2.63  26 2.66  44 2.66   2 2.66  33 2.67   3 2.73
                            18 2.74  14 2.75  25 2.82  16 2.84
  31  0.202  0.280  0.225-  70 2.51  55 2.58  43 2.58  65 2.59  57 2.60   3 2.63  39 2.66  21 2.71
                            80 2.72  42 2.74  68 2.79  64 2.83  22 3.41
  32  0.706  0.550  0.221-  54 2.53  69 2.56  51 2.58  49 2.60  29 2.62  42 2.62  78 2.64  65 2.65
                            75 2.68  44 2.69  26 2.70  67 2.72
  33  0.040  0.632  0.325-   3 2.61  30 2.67  39 2.67  29 2.67   1 2.68  12 2.69   2 2.69  28 2.70
                            64 2.70  16 2.71   5 2.72  42 2.73
  34  0.796  0.862  0.044-  50 2.39  66 2.51  48 2.52  36 2.55  71 2.58  63 2.62  20 2.71  62 2.79
                            35 2.80
  35  0.057  0.865  0.039-  58 2.54  72 2.55  36 2.56  24 2.57  66 2.62  53 2.68  23 2.76  62 2.76
                            34 2.80
  36  0.044  0.632  0.039-  21 2.53  34 2.55  35 2.56  58 2.58  50 2.59  47 2.67  72 2.69  71 2.74
                            40 2.76
  37  0.628  0.224  0.129-  51 2.51  67 2.52  56 2.52  74 2.53  20 2.55  68 2.56  59 2.56  41 2.57
                            62 2.59  66 2.69  57 2.76  48 2.95
  38  0.383  0.954  0.131-  53 2.46  45 2.47  80 2.47  78 2.53  73 2.56  63 2.56  48 2.56  54 2.58
                            55 2.58  57 2.65  24 2.66  70 2.70
  39  0.035  0.384  0.324-  29 2.56   3 2.59  75 2.60  22 2.61  42 2.65  10 2.66  31 2.66  33 2.67
                             7 2.69   5 2.71  65 2.74  43 2.82
  40  0.028  0.381  0.039-  69 2.42  21 2.52  71 2.54  76 2.54  70 2.56  23 2.60  36 2.76  45 2.84
                            47 2.85
  41  0.872  0.215  0.129-  76 2.45  65 2.52  77 2.53  67 2.53  37 2.57  62 2.57  69 2.59  23 2.61
                            51 2.61  70 2.68  66 2.68  24 2.75
  42  0.955  0.545  0.224-  50 2.55  29 2.56  69 2.60  21 2.60  28 2.61  32 2.62  49 2.65  39 2.65
                            65 2.65  64 2.69  33 2.73  31 2.74
  43  0.296  0.116  0.320-  55 2.52  52 2.57  31 2.58  19 2.58  61 2.59   8 2.60  22 2.60  80 2.64
                            10 2.72   3 2.73  13 2.75  39 2.82
  44  0.541  0.629  0.321-  61 2.59  52 2.60  78 2.63  30 2.66  18 2.66  14 2.67  29 2.67  75 2.68
                            15 2.69  32 2.69  27 2.70  26 2.74
  45  0.296  0.116  0.041-  38 2.47  70 2.49  57 2.57  53 2.58  23 2.64  63 2.65  20 2.73  47 2.83
                            40 2.84
  46  0.549  0.625  0.045-  51 2.38  73 2.39  54 2.41  71 2.57  53 2.59  63 2.60  76 2.62  56 2.63
                            72 2.66
  47  0.294  0.382  0.040-  74 2.41  21 2.53  57 2.64  72 2.65  56 2.66  36 2.67  20 2.74  45 2.83
                            40 2.85
  48  0.626  0.948  0.133-  49 2.39  54 2.48  80 2.49  34 2.52  59 2.56  63 2.56  38 2.56  20 2.57
                            50 2.58  57 2.68  66 2.72  37 2.95
  49  0.707  0.793  0.220-  48 2.39  50 2.47  54 2.48  80 2.57  32 2.60   1 2.62  61 2.63  28 2.64
                            78 2.64  42 2.65  29 2.68  59 2.73
  50  0.865  0.704  0.130-  34 2.39  71 2.42  49 2.47  54 2.49  42 2.55  48 2.58  28 2.58  69 2.58
                            36 2.59  21 2.67  66 2.81  58 2.90
  51  0.627  0.460  0.128-  46 2.38  76 2.44  56 2.51  37 2.51  26 2.55  32 2.58  41 2.61  67 2.62
                            73 2.63  69 2.64  74 2.65  54 2.72
  52  0.298  0.874  0.318-  55 2.44  79 2.52  78 2.52  61 2.56  43 2.57  44 2.60  30 2.63   8 2.68
                             2 2.69  14 2.73  22 2.75   6 2.80
  53  0.307  0.869  0.042-  73 2.42  38 2.46  63 2.57  24 2.58  45 2.58  46 2.59  72 2.61  35 2.68
                            23 2.81
  54  0.627  0.715  0.129-  46 2.41  71 2.46  63 2.48  48 2.48  49 2.48  50 2.49  32 2.53  38 2.58
                            73 2.58  78 2.62  69 2.70  51 2.72
  55  0.225  0.027  0.228-  52 2.44  78 2.48  79 2.51  43 2.52  80 2.54  22 2.54  31 2.58  38 2.58
                            24 2.59  70 2.72  77 2.75  65 2.90
  56  0.544  0.381  0.036-  74 2.50  51 2.51  37 2.52  76 2.61  46 2.63  72 2.64  47 2.66  62 2.72
                            20 2.74
  57  0.379  0.204  0.133-  68 2.46  80 2.54  20 2.55  45 2.57  31 2.60  47 2.64  38 2.65  74 2.66
                            70 2.66  48 2.68  21 2.74  37 2.76
  58  0.137  0.705  0.133-  72 2.46  64 2.50  35 2.54  28 2.56  79 2.57  36 2.58  74 2.66  24 2.66
                            73 2.70  21 2.71  50 2.90
  59  0.705  0.051  0.220-  66 2.52  48 2.56  37 2.56  19 2.60  68 2.61  67 2.61  60 2.62   1 2.64
                            77 2.69  80 2.71  49 2.73  28 2.74
  60  0.793  0.129  0.317-  67 2.53  77 2.57  59 2.62  18 2.62   2 2.65  75 2.67   1 2.70   9 2.71
                            22 2.71  17 2.77  19 2.78   4 2.83
  61  0.539  0.873  0.317-  78 2.49  80 2.52  52 2.56  43 2.59  44 2.59  49 2.63  19 2.66   1 2.68
                            29 2.70   8 2.71  27 2.77  11 2.82
  62  0.797  0.123  0.036-  66 2.53  41 2.57  37 2.59  23 2.65  20 2.66  76 2.68  56 2.72  35 2.76
                            34 2.79
  63  0.546  0.870  0.037-  54 2.48  38 2.56  48 2.56  53 2.57  46 2.60  34 2.62  71 2.63  45 2.65
                            20 2.70
  64  0.208  0.542  0.224-  58 2.50   3 2.57  30 2.61  21 2.62  26 2.65  28 2.66  68 2.66  74 2.67
                            42 2.69  33 2.70  79 2.76  31 2.83
  65  0.951  0.297  0.222-  69 2.52  22 2.52  41 2.52  67 2.55  77 2.58  31 2.59  75 2.61  70 2.61
                            32 2.65  42 2.65  39 2.74  55 2.90
  66  0.872  0.964  0.130-  34 2.51  59 2.52  62 2.53  77 2.58  28 2.58  35 2.62  41 2.68  37 2.69
                            48 2.72  24 2.73  50 2.81
  67  0.715  0.290  0.224-  37 2.52  60 2.53  41 2.53  77 2.54  65 2.55  18 2.56  59 2.61  51 2.62
                            75 2.63  32 2.72  68 2.74  26 2.75
  68  0.457  0.292  0.221-  57 2.46  74 2.54  37 2.56  19 2.57  59 2.61  18 2.65  64 2.66  26 2.69
                             3 2.71  67 2.74  80 2.78  31 2.79
  69  0.875  0.457  0.129-  40 2.42  71 2.45  76 2.46  65 2.52  32 2.56  50 2.58  41 2.59  42 2.60
                            21 2.62  51 2.64  70 2.68  54 2.70
  70  0.128  0.206  0.129-  45 2.49  31 2.51  40 2.56  23 2.57  65 2.61  24 2.64  21 2.66  57 2.66
                            41 2.68  69 2.68  38 2.70  55 2.72
  71  0.792  0.622  0.041-  50 2.42  69 2.45  54 2.46  40 2.54  46 2.57  34 2.58  76 2.61  63 2.63
                            36 2.74
  72  0.298  0.629  0.044-  74 2.46  58 2.46  73 2.47  35 2.55  53 2.61  56 2.64  47 2.65  46 2.66
                            36 2.69
  73  0.386  0.713  0.130-  46 2.39  53 2.42  72 2.47  26 2.50  78 2.54  38 2.56  54 2.58  79 2.63
                            51 2.63  24 2.67  58 2.70  74 2.80
  74  0.382  0.451  0.127-  47 2.41  72 2.46  56 2.50  37 2.53  68 2.54  26 2.54  51 2.65  57 2.66
                            58 2.66  64 2.67  21 2.75  73 2.80
  75  0.793  0.380  0.320-  29 2.60  39 2.60  65 2.61  67 2.63  18 2.63  22 2.64   9 2.66  60 2.67
                            44 2.68  32 2.68  15 2.71   7 2.75
  76  0.791  0.377  0.041-  51 2.44  41 2.45  69 2.46  40 2.54  56 2.61  71 2.61  46 2.62  23 2.65
                            62 2.68
  77  0.956  0.053  0.222-  41 2.53  67 2.54  24 2.55  22 2.57  60 2.57  66 2.58  65 2.58   2 2.60
                            59 2.69  79 2.74  55 2.75  28 2.81
  78  0.458  0.796  0.225-  55 2.48  61 2.49  80 2.50  52 2.52  38 2.53  73 2.54  79 2.59  54 2.62
                            44 2.63  49 2.64  32 2.64  26 2.69
  79  0.215  0.798  0.225-  55 2.51  24 2.52  52 2.52   2 2.56  30 2.56  58 2.57  78 2.59  73 2.63
                            26 2.63  77 2.74  64 2.76  28 2.80
  80  0.462  0.029  0.223-  38 2.47  48 2.49  78 2.50  61 2.52  55 2.54  57 2.54  19 2.55  49 2.57
                            43 2.64  59 2.71  31 2.72  68 2.78
  81  0.874  0.335  0.468-   7 1.63   9 1.70
 
  LATTYP: Found a hexagonal cell.
 ALAT       =    10.6599998474
 C/A-ratio  =     2.0637898982
  
  Lattice vectors:
  
 A1 = (   5.3299999237,  -9.2318306722,   0.0000000000)
 A2 = ( -10.6599998474,   0.0000000000,   0.0000000000)
 A3 = (   0.0000000000,   0.0000000000, -22.0000000000)


Analysis of symmetry for initial positions (statically):
=====================================================================
 Subroutine PRICEL returns:
 Original cell was already a primitive cell.
 

 Routine SETGRP: Setting up the symmetry group for a 
 hexagonal supercell.


 Subroutine GETGRP returns: Found  1 space group operations
 (whereof  1 operations were pure point group operations)
 out of a pool of 24 trial point group operations.


The static configuration has the point symmetry C_1 .


Analysis of symmetry for dynamics (positions and initial velocities):
=====================================================================
 Subroutine PRICEL returns:
 Original cell was already a primitive cell.
 

 Routine SETGRP: Setting up the symmetry group for a 
 hexagonal supercell.


 Subroutine GETGRP returns: Found  1 space group operations
 (whereof  1 operations were pure point group operations)
 out of a pool of 24 trial point group operations.


The dynamic configuration has the point symmetry C_1 .


Analysis of constrained symmetry for selective dynamics:
=====================================================================
 Subroutine PRICEL returns:
 Original cell was already a primitive cell.
 

 Routine SETGRP: Setting up the symmetry group for a 
 hexagonal supercell.


 Subroutine GETGRP returns: Found  1 space group operations
 (whereof  1 operations were pure point group operations)
 out of a pool of 24 trial point group operations.


The constrained configuration has the point symmetry C_1 .


Analysis of structural, dynamic, and magnetic symmetry:
=====================================================================
 Subroutine PRICEL returns:
 Original cell was already a primitive cell.
 

 Routine SETGRP: Setting up the symmetry group for a 
 hexagonal supercell.


 Subroutine GETGRP returns: Found  1 space group operations
 (whereof  1 operations were pure point group operations)
 out of a pool of 24 trial point group operations.


The magnetic configuration has the point symmetry C_1 .


 Subroutine INISYM returns: Found  1 space group operations
 (whereof  1 operations are pure point group operations),
 and found     1 'primitive' translations

 
 
 KPOINTS: mesh auto                               

Automatic generation of k-mesh.
Space group operators:
 irot       det(A)        alpha          n_x          n_y          n_z        tau_x        tau_y        tau_z
    1     1.000000     0.000000     1.000000     0.000000     0.000000     0.000000     0.000000     0.000000
 
 Subroutine IBZKPT returns following result:
 ===========================================
 
 Found      4 irreducible k-points:
 
 Following reciprocal coordinates:
            Coordinates               Weight
  0.000000  0.000000  0.000000      1.000000
  0.500000 -0.000000  0.000000      1.000000
  0.000000  0.500000  0.000000      1.000000
  0.500000  0.500000  0.000000      1.000000
 
 Following cartesian coordinates:
            Coordinates               Weight
  0.000000  0.000000  0.000000      1.000000
  0.046904 -0.027080  0.000000      1.000000
  0.000000  0.054160  0.000000      1.000000
  0.046904  0.027080  0.000000      1.000000
 


--------------------------------------------------------------------------------------------------------




 Dimension of arrays:
   k-points           NKPTS =      4   k-points in BZ     NKDIM =      4   number of bands    NBANDS=    588
   number of dos      NEDOS =    301   number of ions     NIONS =     81
   non local maximal  LDIM  =      6   non local SUM 2l+1 LMDIM =     18
   total plane-waves  NPLWV = ******
   max r-space proj   IRMAX =   7657   max aug-charges    IRDMAX=  33358
   dimension x,y,z NGX =    84 NGY =   84 NGZ =  168
   dimension x,y,z NGXF=   168 NGYF=  168 NGZF=  336
   support grid    NGXF=   168 NGYF=  168 NGZF=  336
   ions per type =              32  13  10  13  12   1
   NGX,Y,Z   is equivalent  to a cutoff of  13.10, 13.10, 12.70 a.u.
   NGXF,Y,Z  is equivalent  to a cutoff of  26.20, 26.20, 25.39 a.u.

 SYSTEM =  Pt111                                   
 POSCAR =  10.66                                   

 Startparameter for this run:
   NWRITE =      2    write-flag & timer
   PREC   = accura    normal or accurate (medium, high low for compatibility)
   ISTART =      0    job   : 0-new  1-cont  2-samecut
   ICHARG =      2    charge: 1-file 2-atom 10-const
   ISPIN  =      2    spin polarized calculation?
   LNONCOLLINEAR =      F non collinear calculations
   LSORBIT =      F    spin-orbit coupling
   INIWAV =      1    electr: 0-lowe 1-rand  2-diag
   LASPH  =      F    aspherical Exc in radial PAW
   METAGGA=      F    non-selfconsistent MetaGGA calc.

 Electronic Relaxation 1
   ENCUT  =  550.0 eV  40.42 Ry    6.36 a.u.  20.38 20.38 42.07*2*pi/ulx,y,z
   ENINI  =  550.0     initial cutoff
   ENAUG  =  587.0 eV  augmentation charge cutoff
   NELM   =    200;   NELMIN=  2; NELMDL= -5     # of ELM steps 
   EDIFF  = 0.1E-04   stopping-criterion for ELM
   LREAL  =      T    real-space projection
   NLSPLINE    = F    spline interpolate recip. space projectors
   LCOMPAT=      F    compatible to vasp.4.4
   GGA_COMPAT  = T    GGA compatible to vasp.4.4-vasp.4.6
   LMAXPAW     = -100 max onsite density
   LMAXMIX     =    2 max onsite mixed and CHGCAR
   VOSKOWN=      0    Vosko Wilk Nusair interpolation
   ROPT   =   -0.00025  -0.00025  -0.00025  -0.00025
   ROPT   =   -0.00025  -0.00025
 Ionic relaxation
   EDIFFG = -.5E-01   stopping-criterion for IOM
   NSW    =    300    number of steps for IOM
   NBLOCK =      1;   KBLOCK =    300    inner block; outer block 
   IBRION =      2    ionic relax: 0-MD 1-quasi-New 2-CG
   NFREE  =      1    steps in history (QN), initial steepest desc. (CG)
   ISIF   =      2    stress and relaxation
   IWAVPR =     11    prediction:  0-non 1-charg 2-wave 3-comb
   ISYM   =      2    0-nonsym 1-usesym 2-fastsym
   LCORR  =      T    Harris-Foulkes like correction to forces

   POTIM  = 0.5000    time-step for ionic-motion
   TEIN   =    0.0    initial temperature
   TEBEG  =    0.0;   TEEND  =   0.0 temperature during run
   SMASS  =  -3.00    Nose mass-parameter (am)
   estimated Nose-frequenzy (Omega)   =  0.10E-29 period in steps =****** mass=  -0.260E-26a.u.
   SCALEE = 1.0000    scale energy and forces
   NPACO  =    256;   APACO  = 16.0  distance and # of slots for P.C.
   PSTRESS=    0.0 pullay stress

  Mass of Ions in am
   POMASS = 195.08 55.85 58.93 63.55 58.69  1.00
  Ionic Valenz
   ZVAL   =  10.00  8.00  9.00 11.00 10.00  1.00
  Atomic Wigner-Seitz radii
   RWIGS  =  -1.00 -1.00 -1.00 -1.00 -1.00 -1.00
  virtual crystal weights 
   VCA    =   1.00  1.00  1.00  1.00  1.00  1.00
   NELECT =     778.0000    total number of electrons
   NUPDOWN=      -1.0000    fix difference up-down

 DOS related values:
   EMIN   =  10.00;   EMAX   =-10.00  energy-range for DOS
   EFERMI =   0.00
   ISMEAR =     1;   SIGMA  =   0.10  broadening in eV -4-tet -1-fermi 0-gaus

 Electronic relaxation 2 (details)
   IALGO  =     68    algorithm
   LDIAG  =      T    sub-space diagonalisation (order eigenvalues)
   LSUBROT=      F    optimize rotation matrix (better conditioning)
   TURBO    =      0    0=normal 1=particle mesh
   IRESTART =      0    0=no restart 2=restart with 2 vectors
   NREBOOT  =      0    no. of reboots
   NMIN     =      0    reboot dimension
   EREF     =   0.00    reference energy to select bands
   IMIX   =      4    mixing-type and parameters
     AMIX     =   0.40;   BMIX     =  1.00
     AMIX_MAG =   1.60;   BMIX_MAG =  1.00
     AMIN     =   0.10
     WC   =   100.;   INIMIX=   1;  MIXPRE=   1;  MAXMIX= -45

 Intra band minimization:
   WEIMIN = 0.0010     energy-eigenvalue tresh-hold
   EBREAK =  0.43E-08  absolut break condition
   DEPER  =   0.30     relativ break condition  

   TIME   =   0.40     timestep for ELM

  volume/ion in A,a.u.               =      26.73       180.38
  Fermi-wavevector in a.u.,A,eV,Ry     =   1.163891  2.199434 18.431011  1.354641
  Thomas-Fermi vector in A             =   2.300435
 
 Write flags
   LWAVE        =      F    write WAVECAR
   LDOWNSAMPLE  =      F    k-point downsampling of WAVECAR
   LCHARG       =      F    write CHGCAR
   LVTOT        =      F    write LOCPOT, total local potential
   LVHAR        =      F    write LOCPOT, Hartree potential only
   LELF         =      F    write electronic localiz. function (ELF)
   LORBIT       =      0    0 simple, 1 ext, 2 COOP (PROOUT), +10 PAW based schemes


 Dipole corrections
   LMONO  =      F    monopole corrections only (constant potential shift)
   LDIPOL =      F    correct potential (dipole corrections)
   IDIPOL =      0    1-x, 2-y, 3-z, 4-all directions 
   EPSILON=  1.0000000 bulk dielectric constant

 Exchange correlation treatment:
   GGA     =    --    GGA type
   LEXCH   =     8    internal setting for exchange type
   VOSKOWN=      0    Vosko Wilk Nusair interpolation
   LHFCALC =     F    Hartree Fock is set to
   LHFONE  =     F    Hartree Fock one center treatment
   AEXX    =    0.0000 exact exchange contribution

 Linear response parameters
   LEPSILON=     F    determine dielectric tensor
   LRPA    =     F    only Hartree local field effects (RPA)
   LNABLA  =     F    use nabla operator in PAW spheres
   LVEL    =     F    velocity operator in full k-point grid
   LINTERFAST=   F  fast interpolation
   KINTER  =     0    interpolate to denser k-point grid
   CSHIFT  =0.1000    complex shift for real part using Kramers Kronig
   OMEGAMAX=  -1.0    maximum frequency
   DEG_THRESHOLD= 0.2000000E-02 threshold for treating states as degnerate
   RTIME   =   -0.100 relaxation time in fs
  (WPLASMAI=    0.000 imaginary part of plasma frequency in eV, 0.658/RTIME)
   DFIELD  = 0.0000000 0.0000000 0.0000000 field for delta impulse in time
 
 Orbital magnetization related:
   ORBITALMAG=     F  switch on orbital magnetization
   LCHIMAG   =     F  perturbation theory with respect to B field
   DQ        =  0.001000  dq finite difference perturbation B field
   LLRAUG    =     F  two centre corrections for induced B field



--------------------------------------------------------------------------------------------------------


 conjugate gradient relaxation of ions
   using selective dynamics as specified on POSCAR
 charge density and potential will be updated during run
 spin polarized calculation
 RMM-DIIS sequential band-by-band and
  variant of blocked Davidson during initial phase
 perform sub-space diagonalisation
    before iterative eigenvector-optimisation
 modified Broyden-mixing scheme, WC =      100.0
 initial mixing is a Kerker type mixing with AMIX =  0.4000 and BMIX =      1.0000
 Hartree-type preconditioning will be used
 using additional bands          199
 real space projection scheme for non local part
 use partial core corrections
 calculate Harris-corrections to forces 
   (improved forces if not selfconsistent)
 use gradient corrections 
 use of overlap-Matrix (Vanderbilt PP)
 Methfessel and Paxton  Order N= 1 SIGMA  =   0.10


--------------------------------------------------------------------------------------------------------


  energy-cutoff  :      550.00
  volume of cell :     2165.05
      direct lattice vectors                 reciprocal lattice vectors
    10.659999847  0.000000000  0.000000000     0.093808632 -0.054160439  0.000000000
     5.329999924  9.231830672  0.000000000     0.000000000  0.108320878  0.000000000
     0.000000000  0.000000000 22.000000000     0.000000000  0.000000000  0.045454545

  length of vectors
    10.659999847 10.659999847 22.000000000     0.108320878  0.108320878  0.045454545


 
 k-points in units of 2pi/SCALE and weight: mesh auto                               
   0.00000000  0.00000000  0.00000000       0.250
   0.04690432 -0.02708022  0.00000000       0.250
   0.00000000  0.05416044  0.00000000       0.250
   0.04690432  0.02708022  0.00000000       0.250
 
 k-points in reciprocal lattice and weights: mesh auto                               
   0.00000000  0.00000000  0.00000000       0.250
   0.50000000 -0.00000000  0.00000000       0.250
   0.00000000  0.50000000  0.00000000       0.250
   0.50000000  0.50000000  0.00000000       0.250
 
 position of ions in fractional coordinates (direct lattice) 
   0.78698156  0.87934948  0.31670903
   0.04234848  0.88246863  0.31591121
   0.27906093  0.38077159  0.31860809
   0.87037601  0.96396705  0.42463440
   0.12086295  0.46246961  0.42579099
   0.12543563  0.96387204  0.42212371
   0.87404697  0.45970614  0.42522089
   0.37414116  0.96018450  0.41859529
   0.87209320  0.21346419  0.41866451
   0.12504209  0.21244796  0.42095965
   0.62402401  0.96062852  0.42207325
   0.87281104  0.70992359  0.42433242
   0.37420595  0.20933820  0.42297381
   0.37724820  0.71152838  0.42154660
   0.62552648  0.46180555  0.42118050
   0.12661411  0.70664851  0.42737501
   0.62411420  0.21111642  0.42062184
   0.54809608  0.37581131  0.31638217
   0.53418159  0.12488383  0.31438418
   0.54860226  0.12207837  0.04171946
   0.12037701  0.45967589  0.12832010
   0.04398259  0.13560906  0.31394450
   0.04184264  0.13051489  0.03430237
   0.13087669  0.95764103  0.13245935
   0.37478501  0.46119156  0.42416400
   0.45485914  0.54588982  0.21874999
   0.62218054  0.71199103  0.42264004
   0.95645968  0.78899581  0.22100756
   0.79431358  0.62283920  0.31869408
   0.29035371  0.63122911  0.31786704
   0.20217908  0.27972982  0.22528100
   0.70611390  0.54959934  0.22097174
   0.04036407  0.63157605  0.32455883
   0.79601056  0.86182010  0.04358326
   0.05654378  0.86511100  0.03922008
   0.04354811  0.63172365  0.03890931
   0.62768151  0.22351632  0.12936912
   0.38251648  0.95408414  0.13073287
   0.03528268  0.38373991  0.32354596
   0.02789537  0.38111357  0.03922688
   0.87238548  0.21524336  0.12909491
   0.95467932  0.54470465  0.22394960
   0.29644672  0.11628504  0.32044908
   0.54060553  0.62917590  0.32136700
   0.29593874  0.11566849  0.04109769
   0.54915757  0.62535345  0.04512996
   0.29444361  0.38188257  0.03954700
   0.62577798  0.94799811  0.13283874
   0.70705774  0.79324161  0.22005214
   0.86523064  0.70443471  0.12965162
   0.62674088  0.45978399  0.12791088
   0.29845064  0.87417220  0.31768696
   0.30656831  0.86859519  0.04153612
   0.62656079  0.71505450  0.12903147
   0.22515281  0.02743556  0.22759778
   0.54425403  0.38139876  0.03593963
   0.37883082  0.20414358  0.13341050
   0.13702030  0.70469682  0.13275664
   0.70477493  0.05064794  0.22041944
   0.79288205  0.12930665  0.31656623
   0.53879004  0.87299165  0.31663114
   0.79690904  0.12300803  0.03589815
   0.54639677  0.86991640  0.03703501
   0.20779659  0.54239767  0.22376022
   0.95111425  0.29749285  0.22182122
   0.87203635  0.96412677  0.12966428
   0.71537339  0.29000752  0.22356538
   0.45718173  0.29225077  0.22086730
   0.87549525  0.45703326  0.12894021
   0.12808024  0.20618715  0.12934578
   0.79201094  0.62176511  0.04149761
   0.29752238  0.62870438  0.04356032
   0.38614974  0.71252577  0.12966825
   0.38234618  0.45146388  0.12688447
   0.79315007  0.37965716  0.31998752
   0.79142063  0.37689392  0.04093851
   0.95561894  0.05311826  0.22176563
   0.45832980  0.79639200  0.22484809
   0.21473375  0.79774967  0.22502562
   0.46199744  0.02941329  0.22254954
   0.87357973  0.33531958  0.46840172
 
 position of ions in cartesian coordinates  (Angst):
  13.07615599  8.11800551  6.96759867
   5.15499251  8.14680092  6.95004655
   5.00430200  3.51521882  7.00937790
  14.41615247  8.89918061  9.34195677
   3.75336201  4.26944112  9.36740170
   6.47458174  8.89830346  9.28672158
  11.76757422  4.24392924  9.35485963
   9.10612809  8.86426075  9.20909647
  10.43427746  1.97066527  9.21061932
   2.46529630  1.96128357  9.26111228
  11.77224579  8.86835980  9.28561147
  13.08805823  6.55389440  9.33531328
   5.10480797  1.93257482  9.30542384
   7.81391199  6.56870955  9.27402517
   9.12953571  4.26331063  9.26597090
   5.11614291  6.52365937  9.40225030
   7.77830774  1.94899106  9.25368057
   7.84577839  3.46942635  6.96040778
   6.36000644  1.15290638  6.91645200
   6.49877769  1.12700682  0.91782815
   3.73329140  4.24365001  2.82304227
   1.19165074  1.25191993  6.90677896
   1.14168689  1.20489139  0.75465211
   6.49937211  8.84077982  2.91410569
   6.45335914  4.25764239  9.33160810
   7.75839111  5.03956240  4.81249981
  10.42735662  6.57298059  9.29808086
  14.40120767  7.28387573  4.86216630
  11.78711552  5.74994601  7.01126987
   6.45962155  5.82740022  6.99307492
   3.64618885  2.58241830  4.95618191
  10.45653852  5.07380801  4.86137834
   3.79658130  5.83060319  7.14029420
  13.07897347  7.95617723  0.95883175
   5.21379828  7.98655826  0.86284167
   3.83130979  5.83196573  0.85600479
   7.88242681  2.06346482  2.84612068
   9.16289403  8.80794326  2.87612304
   2.42144708  3.54262184  7.11801115
   2.32869997  3.51837592  0.86299137
  10.44687620  1.98709023  2.84008810
  13.08015720  5.02862111  4.92689116
   3.77992122  1.07352384  7.04987973
   9.11636234  5.80844539  7.07007403
   3.77121995  1.06783187  0.90414915
   9.18715339  5.77315714  0.99285907
   5.17420286  3.52547522  0.87003394
  11.72362308  8.75175804  2.92245229
  11.76521306  7.32307218  4.84114715
  12.97799537  6.50322193  2.85233561
   9.13170631  4.24464793  2.81403934
   7.84082150  8.07020973  6.98911306
   7.89763048  8.01872375  0.91379463
  10.49037833  6.60126203  2.83869239
   2.54636042  0.25328046  5.00715111
   7.83460323  3.52100880  0.79067188
   5.12642169  1.88461893  2.93503107
   5.21667036  6.50564171  2.92064609
   7.78285419  0.46757319  4.84922766
   9.14132700  1.19373713  6.96445700
  10.39654712  8.05931108  6.96588500
   9.15068307  1.13558928  0.78975929
  10.46124387  8.03092093  0.81477030
   5.10609115  5.00732347  4.92272485
  11.72451460  2.74640359  4.88006674
  14.43470298  8.90065509  2.85261421
   9.17162027  2.67730030  4.91843837
   6.43125380  2.69800961  4.85908059
  11.76876646  4.21925362  2.83668457
   2.46431279  1.90348482  2.84560726
  11.75684446  5.74003023  0.91294740
   6.52258279  5.80409234  0.95832694
   7.91411848  6.57791728  2.85270146
   6.48211261  4.16783809  2.79145838
  10.47855222  3.50493060  7.03972547
  10.44538833  3.47942085  0.90064720
  10.47001811  0.49037882  4.87884395
   9.13056487  7.35215612  4.94665795
   6.54106736  7.36468985  4.95056361
   5.08166545  0.27153855  4.89608981
  11.09961309  3.09561357 10.30483790
 


--------------------------------------------------------------------------------------------------------


 k-point  1 :   0.0000 0.0000 0.0000  plane waves:   63475
 k-point  2 :   0.5000-0.0000 0.0000  plane waves:   63428
 k-point  3 :   0.0000 0.5000 0.0000  plane waves:   63428
 k-point  4 :   0.5000 0.5000 0.0000  plane waves:   63428

 maximum and minimum number of plane-waves per node :     15884    15811

 maximum number of plane-waves:     63475
 maximum index in each direction: 
   IXMAX=   20   IYMAX=   20   IZMAX=   42
   IXMIN=  -20   IYMIN=  -20   IZMIN=  -42


 real space projection operators:
  total allocation   :      76347.21 KBytes
  max/ min on nodes  :      19104.31      19064.78


 parallel 3D FFT for wavefunctions:
    minimum data exchange during FFTs selected (reduces bandwidth)
 parallel 3D FFT for charge:
    minimum data exchange during FFTs selected (reduces bandwidth)


 total amount of memory used by VASP MPI-rank0   231983. kBytes
=======================================================================

   base      :      30000. kBytes
   nonlr-proj:      34033. kBytes
   fftplans  :      16133. kBytes
   grid      :      49182. kBytes
   one-center:        653. kBytes
   wavefun   :     101982. kBytes
 
     INWAV:  cpu time    0.0000: real time    0.0000
 Broyden mixing: mesh for mixing (old mesh)
   NGX = 41   NGY = 41   NGZ = 85
  (NGX  =168   NGY  =168   NGZ  =336)
  gives a total of 142885 points

 initial charge density was supplied:
 charge density of overlapping atoms calculated
 number of electron     778.0000000 magnetization     231.0000000
 keeping initial charge density in first step


--------------------------------------------------------------------------------------------------------


 Maximum index for non-local projection operator         1866
 Maximum index for augmentation-charges         1444 (set IRDMAX)


--------------------------------------------------------------------------------------------------------


 First call to EWALD:  gamma=   0.137
 Maximum number of real-space cells 4x 4x 2
 Maximum number of reciprocal cells 2x 2x 4

    FEWALD:  cpu time    0.0087: real time    0.0087


--------------------------------------- Iteration      1(   1)  ---------------------------------------


    POTLOK:  cpu time    0.4078: real time    0.4138
    SETDIJ:  cpu time    0.0374: real time    0.0432
     EDDAV:  cpu time   62.2927: real time   62.5520
       DOS:  cpu time    0.0024: real time    0.0682
    --------------------------------------------
      LOOP:  cpu time   62.7404: real time   63.0772

 eigenvalue-minimisations  :  9408
 total energy-change (2. order) : 0.7830118E+04  (-0.3294588E+05)
 number of electron     778.0000000 magnetization     231.0000000
 augmentation part      778.0000000 magnetization     231.0000000

 Free energy of the ion-electron system (eV)
  ---------------------------------------------------
  alpha Z        PSCENC =      2197.15539535
  Ewald energy   TEWEN  =    222783.72534159
  -Hartree energ DENC   =   -294924.77433560
  -exchange      EXHF   =         0.00000000
  -V(xc)+E(xc)   XCENC  =      1384.73106751
  PAW double counting   =     64136.80006862   -66038.70876209
  entropy T*S    EENTRO =         0.00569812
  eigenvalues    EBANDS =      8072.52876200
  atomic energy  EATOM  =     70218.65458108
  Solvation  Ediel_sol  =         0.00000000
  ---------------------------------------------------
  free energy    TOTEN  =      7830.11781658 eV

  energy without entropy =     7830.11211846  energy(sigma->0) =     7830.11591721


--------------------------------------------------------------------------------------------------------




--------------------------------------- Iteration      1(   2)  ---------------------------------------


     EDDAV:  cpu time   62.1685: real time   62.4062
       DOS:  cpu time    0.0029: real time    0.0093
    --------------------------------------------
      LOOP:  cpu time   62.1714: real time   62.4155

 eigenvalue-minimisations  :  9408
 total energy-change (2. order) :-0.6999063E+04  (-0.6261063E+04)
 number of electron     778.0000000 magnetization     231.0000000
 augmentation part      778.0000000 magnetization     231.0000000

 Free energy of the ion-electron system (eV)
  ---------------------------------------------------
  alpha Z        PSCENC =      2197.15539535
  Ewald energy   TEWEN  =    222783.72534159
  -Hartree energ DENC   =   -294924.77433560
  -exchange      EXHF   =         0.00000000
  -V(xc)+E(xc)   XCENC  =      1384.73106751
  PAW double counting   =     64136.80006862   -66038.70876209
  entropy T*S    EENTRO =         0.00568442
  eigenvalues    EBANDS =      1073.46547524
  atomic energy  EATOM  =     70218.65458108
  Solvation  Ediel_sol  =         0.00000000
  ---------------------------------------------------
  free energy    TOTEN  =       831.05451612 eV

  energy without entropy =      831.04883170  energy(sigma->0) =      831.05262131


--------------------------------------------------------------------------------------------------------




--------------------------------------- Iteration      1(   3)  ---------------------------------------


     EDDAV:  cpu time   62.0352: real time   62.2445
       DOS:  cpu time    0.0029: real time    0.0237
    --------------------------------------------
      LOOP:  cpu time   62.0382: real time   62.2682

 eigenvalue-minimisations  :  9408
 total energy-change (2. order) :-0.1206667E+04  (-0.9769268E+03)
 number of electron     778.0000000 magnetization     231.0000000
 augmentation part      778.0000000 magnetization     231.0000000

 Free energy of the ion-electron system (eV)
  ---------------------------------------------------
  alpha Z        PSCENC =      2197.15539535
  Ewald energy   TEWEN  =    222783.72534159
  -Hartree energ DENC   =   -294924.77433560
  -exchange      EXHF   =         0.00000000
  -V(xc)+E(xc)   XCENC  =      1384.73106751
  PAW double counting   =     64136.80006862   -66038.70876209
  entropy T*S    EENTRO =        -0.00320144
  eigenvalues    EBANDS =      -133.19239454
  atomic energy  EATOM  =     70218.65458108
  Solvation  Ediel_sol  =         0.00000000
  ---------------------------------------------------
  free energy    TOTEN  =      -375.61223953 eV

  energy without entropy =     -375.60903809  energy(sigma->0) =     -375.61117238


--------------------------------------------------------------------------------------------------------




--------------------------------------- Iteration      1(   4)  ---------------------------------------


     EDDAV:  cpu time   74.1141: real time   74.4041
       DOS:  cpu time    0.0030: real time    0.0157
    --------------------------------------------
      LOOP:  cpu time   74.1171: real time   74.4197

 eigenvalue-minimisations  : 11796
 total energy-change (2. order) :-0.1171681E+03  (-0.1074521E+03)
 number of electron     778.0000000 magnetization     231.0000000
 augmentation part      778.0000000 magnetization     231.0000000

 Free energy of the ion-electron system (eV)
  ---------------------------------------------------
  alpha Z        PSCENC =      2197.15539535
  Ewald energy   TEWEN  =    222783.72534159
  -Hartree energ DENC   =   -294924.77433560
  -exchange      EXHF   =         0.00000000
  -V(xc)+E(xc)   XCENC  =      1384.73106751
  PAW double counting   =     64136.80006862   -66038.70876209
  entropy T*S    EENTRO =        -0.01190277
  eigenvalues    EBANDS =      -250.35182063
  atomic energy  EATOM  =     70218.65458108
  Solvation  Ediel_sol  =         0.00000000
  ---------------------------------------------------
  free energy    TOTEN  =      -492.78036695 eV

  energy without entropy =     -492.76846418  energy(sigma->0) =     -492.77639936


--------------------------------------------------------------------------------------------------------




--------------------------------------- Iteration      1(   5)  ---------------------------------------


     EDDAV:  cpu time   70.6453: real time   70.9389
       DOS:  cpu time    0.0032: real time    0.0039
    CHARGE:  cpu time    3.8908: real time    3.9195
    MIXING:  cpu time    0.0108: real time    0.0110
    --------------------------------------------
      LOOP:  cpu time   74.5502: real time   74.8734

 eigenvalue-minimisations  : 11112
 total energy-change (2. order) :-0.4356215E+01  (-0.4321879E+01)
 number of electron     778.0000011 magnetization     216.5409956
 augmentation part      335.0603665 magnetization     184.0733144

 Broyden mixing:
  rms(total) = 0.11743E+02    rms(broyden)= 0.11743E+02
  rms(prec ) = 0.12060E+02
  weight for this iteration     100.00

 Free energy of the ion-electron system (eV)
  ---------------------------------------------------
  alpha Z        PSCENC =      2197.15539535
  Ewald energy   TEWEN  =    222783.72534159
  -Hartree energ DENC   =   -294924.77433560
  -exchange      EXHF   =         0.00000000
  -V(xc)+E(xc)   XCENC  =      1384.73106751
  PAW double counting   =     64136.80006862   -66038.70876209
  entropy T*S    EENTRO =        -0.01038655
  eigenvalues    EBANDS =      -254.70955146
  atomic energy  EATOM  =     70218.65458108
  Solvation  Ediel_sol  =         0.00000000
  ---------------------------------------------------
  free energy    TOTEN  =      -497.13658156 eV

  energy without entropy =     -497.12619501  energy(sigma->0) =     -497.13311937


--------------------------------------------------------------------------------------------------------




--------------------------------------- Iteration      1(   6)  ---------------------------------------


    POTLOK:  cpu time    0.3826: real time    0.3848
    SETDIJ:  cpu time    0.0352: real time    0.0353
    EDDIAG:  cpu time   11.2410: real time   11.2811
  RMM-DIIS:  cpu time   37.7426: real time   37.8592
    ORTHCH:  cpu time    1.3164: real time    1.3200
       DOS:  cpu time    0.0026: real time    0.0026
    CHARGE:  cpu time    3.7675: real time    3.7773
    MIXING:  cpu time    0.0117: real time    0.0122
    --------------------------------------------
      LOOP:  cpu time   54.4995: real time   54.6726

 eigenvalue-minimisations  :  9554
 total energy-change (2. order) :-0.1631652E+03  (-0.9263536E+02)
 number of electron     778.0000015 magnetization     212.4504463
 augmentation part      406.2223649 magnetization     179.6981326

 Broyden mixing:
  rms(total) = 0.19641E+02    rms(broyden)= 0.19641E+02
  rms(prec ) = 0.25469E+02
  weight for this iteration     100.00

 eigenvalues of (default mixing * dielectric matrix)
  average eigenvalue GAMMA=   0.2253
  0.2253

 Free energy of the ion-electron system (eV)
  ---------------------------------------------------
  alpha Z        PSCENC =      2197.15539535
  Ewald energy   TEWEN  =    222783.72534159
  -Hartree energ DENC   =   -293314.21493506
  -exchange      EXHF   =         0.00000000
  -V(xc)+E(xc)   XCENC  =      1338.71470709
  PAW double counting   =     69091.54376722   -70783.96488321
  entropy T*S    EENTRO =         0.00112297
  eigenvalues    EBANDS =     -2191.91691415
  atomic energy  EATOM  =     70218.65458108
  Solvation  Ediel_sol  =         0.00000000
  ---------------------------------------------------
  free energy    TOTEN  =      -660.30181712 eV

  energy without entropy =     -660.30294010  energy(sigma->0) =     -660.30219145


--------------------------------------------------------------------------------------------------------




--------------------------------------- Iteration      1(   7)  ---------------------------------------


    POTLOK:  cpu time    0.3860: real time    0.3880
    SETDIJ:  cpu time    0.0353: real time    0.0354
    EDDIAG:  cpu time   11.1900: real time   11.2252
  RMM-DIIS:  cpu time   37.2105: real time   37.3712
    ORTHCH:  cpu time    1.3247: real time    1.3283
       DOS:  cpu time    0.0026: real time    0.0026
    CHARGE:  cpu time    3.8377: real time    3.8480
    MIXING:  cpu time    0.0125: real time    0.0126
    --------------------------------------------
      LOOP:  cpu time   53.9993: real time   54.2113

 eigenvalue-minimisations  :  9419
 total energy-change (2. order) : 0.1218907E+03  (-0.1660051E+02)
 number of electron     778.0000016 magnetization     207.8050662
 augmentation part      366.3611418 magnetization     165.2264993

 Broyden mixing:
  rms(total) = 0.15595E+02    rms(broyden)= 0.15595E+02
  rms(prec ) = 0.21018E+02
  weight for this iteration     100.00

 eigenvalues of (default mixing * dielectric matrix)
  average eigenvalue GAMMA=   0.2684
  0.3702  0.1666

 Free energy of the ion-electron system (eV)
  ---------------------------------------------------
  alpha Z        PSCENC =      2197.15539535
  Ewald energy   TEWEN  =    222783.72534159
  -Hartree energ DENC   =   -294000.90138029
  -exchange      EXHF   =         0.00000000
  -V(xc)+E(xc)   XCENC  =      1358.96631552
  PAW double counting   =     70146.99403515   -71999.72307592
  entropy T*S    EENTRO =        -0.00513674
  eigenvalues    EBANDS =     -1243.27723358
  atomic energy  EATOM  =     70218.65458108
  Solvation  Ediel_sol  =         0.00000000
  ---------------------------------------------------
  free energy    TOTEN  =      -538.41115786 eV

  energy without entropy =     -538.40602112  energy(sigma->0) =     -538.40944561


--------------------------------------------------------------------------------------------------------




--------------------------------------- Iteration      1(   8)  ---------------------------------------


    POTLOK:  cpu time    0.3848: real time    0.3868
    SETDIJ:  cpu time    0.0355: real time    0.0356
    EDDIAG:  cpu time   11.1390: real time   11.1777
  RMM-DIIS:  cpu time   37.3621: real time   37.4853
    ORTHCH:  cpu time    1.3144: real time    1.3180
       DOS:  cpu time    0.0026: real time    0.0026
    CHARGE:  cpu time    3.7002: real time    3.7134
    MIXING:  cpu time    0.0117: real time    0.0119
    --------------------------------------------
      LOOP:  cpu time   53.9504: real time   54.1312

 eigenvalue-minimisations  :  9433
 total energy-change (2. order) : 0.5889117E+02  (-0.1041421E+02)
 number of electron     778.0000013 magnetization     200.5540645
 augmentation part      371.6949385 magnetization     163.2200291

 Broyden mixing:
  rms(total) = 0.16159E+02    rms(broyden)= 0.16159E+02
  rms(prec ) = 0.18939E+02
  weight for this iteration     100.00

 eigenvalues of (default mixing * dielectric matrix)
  average eigenvalue GAMMA=   0.3074
  0.5805  0.2606  0.0811

 Free energy of the ion-electron system (eV)
  ---------------------------------------------------
  alpha Z        PSCENC =      2197.15539535
  Ewald energy   TEWEN  =    222783.72534159
  -Hartree energ DENC   =   -294265.94339466
  -exchange      EXHF   =         0.00000000
  -V(xc)+E(xc)   XCENC  =      1364.43985472
  PAW double counting   =     71346.28066412   -73267.73231461
  entropy T*S    EENTRO =         0.00599691
  eigenvalues    EBANDS =      -856.10611005
  atomic energy  EATOM  =     70218.65458108
  Solvation  Ediel_sol  =         0.00000000
  ---------------------------------------------------
  free energy    TOTEN  =      -479.51998557 eV

  energy without entropy =     -479.52598248  energy(sigma->0) =     -479.52198454


--------------------------------------------------------------------------------------------------------




--------------------------------------- Iteration      1(   9)  ---------------------------------------


    POTLOK:  cpu time    0.3851: real time    0.3871
    SETDIJ:  cpu time    0.0355: real time    0.0356
    EDDIAG:  cpu time   11.2143: real time   11.2937
  RMM-DIIS:  cpu time   37.4017: real time   37.5464
    ORTHCH:  cpu time    1.3108: real time    1.3150
       DOS:  cpu time    0.0028: real time    0.0028
    CHARGE:  cpu time    3.7370: real time    3.7927
    MIXING:  cpu time    0.0123: real time    0.0124
    --------------------------------------------
      LOOP:  cpu time   54.0995: real time   54.3856

 eigenvalue-minimisations  :  9446
 total energy-change (2. order) : 0.1018728E+03  (-0.1514178E+02)
 number of electron     778.0000010 magnetization     192.3396752
 augmentation part      373.5317899 magnetization     147.2618387

 Broyden mixing:
  rms(total) = 0.12459E+02    rms(broyden)= 0.12459E+02
  rms(prec ) = 0.14206E+02
  weight for this iteration     100.00

 eigenvalues of (default mixing * dielectric matrix)
  average eigenvalue GAMMA=   0.3666
  0.8888  0.3444  0.1399  0.0933

 Free energy of the ion-electron system (eV)
  ---------------------------------------------------
  alpha Z        PSCENC =      2197.15539535
  Ewald energy   TEWEN  =    222783.72534159
  -Hartree energ DENC   =   -293993.98932141
  -exchange      EXHF   =         0.00000000
  -V(xc)+E(xc)   XCENC  =      1381.22493780
  PAW double counting   =     72807.26536537   -74781.67548040
  entropy T*S    EENTRO =        -0.01123719
  eigenvalues    EBANDS =      -989.99681344
  atomic energy  EATOM  =     70218.65458108
  Solvation  Ediel_sol  =         0.00000000
  ---------------------------------------------------
  free energy    TOTEN  =      -377.64723126 eV

  energy without entropy =     -377.63599407  energy(sigma->0) =     -377.64348553


[...]
   -.219E+01 0.354E+02 -.289E+04   0.245E+01 -.351E+02 0.289E+04   -.244E+00 -.314E+00 0.897E+00   -.672E-02 -.413E-02 -.348E-02
   -.135E+02 0.670E+01 -.288E+04   0.131E+02 -.620E+01 0.288E+04   0.369E+00 -.479E+00 0.156E+01   -.858E-02 -.204E-01 -.180E-02
   0.179E+01 0.319E+01 -.287E+04   -.182E+01 -.364E+01 0.287E+04   0.442E-02 0.369E+00 0.107E+01   0.180E-01 0.115E-01 0.182E-01
   -.299E+02 -.180E+02 -.292E+04   0.299E+02 0.175E+02 0.292E+04   0.162E-01 0.433E+00 -.912E-01   -.216E-01 -.141E-01 -.802E-01
   0.128E+02 -.193E+02 -.290E+04   -.132E+02 0.194E+02 0.290E+04   0.328E+00 -.804E-01 0.187E+01   -.859E-02 0.782E-02 0.123E-01
   -.133E+02 0.280E+02 -.291E+04   0.130E+02 -.280E+02 0.291E+04   0.265E+00 -.707E-01 -.138E+00   0.161E-01 0.324E-01 -.346E-01
   -.786E+01 -.378E+01 -.285E+04   0.910E+01 0.359E+01 0.285E+04   -.121E+01 0.224E+00 0.215E+01   -.456E-02 0.120E-01 -.318E-01
   -.983E+01 -.470E+01 -.291E+04   0.102E+02 0.451E+01 0.291E+04   -.357E+00 0.150E+00 0.816E+00   -.314E-02 -.738E-02 0.698E-02
   -.193E+02 -.645E+01 -.289E+04   0.194E+02 0.597E+01 0.289E+04   -.838E-01 0.493E+00 0.125E+01   -.126E-01 -.805E-02 0.184E-02
   0.281E+01 -.221E+02 -.289E+04   -.310E+01 0.218E+02 0.289E+04   0.305E+00 0.344E+00 0.932E+00   -.115E-01 0.826E-02 -.107E-01
   0.273E+02 0.100E+02 -.290E+04   -.268E+02 -.981E+01 0.290E+04   -.485E+00 -.191E+00 0.149E+01   0.291E-01 0.295E-02 0.227E-01
   0.242E+02 -.113E+02 -.288E+04   -.246E+02 0.119E+02 0.287E+04   0.390E+00 -.631E+00 0.172E+01   0.314E-01 0.862E-02 -.185E-01
   0.136E+00 -.181E+01 -.289E+04   -.417E+00 0.137E+01 0.289E+04   0.290E+00 0.462E+00 0.122E+01   -.464E-02 0.145E-02 0.249E-01
   0.279E+02 -.873E+01 -.290E+04   -.280E+02 0.880E+01 0.290E+04   0.827E-01 -.115E+00 0.115E+01   -.877E-02 0.293E-02 0.287E-02
   0.671E+02 -.687E+02 -.151E+04   -.658E+02 0.689E+02 0.151E+04   -.126E+01 -.168E+00 0.173E+01   0.807E-02 -.391E-03 -.575E-02
   0.272E+02 -.437E+02 -.150E+04   -.283E+02 0.433E+02 0.150E+04   0.112E+01 0.445E+00 0.247E+01   -.157E-01 -.104E-01 -.302E-01
   0.377E+02 0.172E+02 0.299E+04   -.377E+02 -.175E+02 -.299E+04   0.988E-02 0.366E+00 -.252E+01   -.850E-02 -.264E-01 0.969E-02
   0.257E+02 -.290E+01 0.159E+04   -.266E+02 0.361E+01 -.160E+04   0.961E+00 -.676E+00 0.862E+00   0.846E-02 0.280E-02 0.591E-02
   -.658E+02 0.925E+01 -.147E+04   0.666E+02 -.849E+01 0.147E+04   -.728E+00 -.783E+00 0.256E+01   0.120E-01 0.238E-01 0.925E-02
   -.543E+02 0.529E+02 0.305E+04   0.550E+02 -.519E+02 -.305E+04   -.706E+00 -.989E+00 -.223E+01   0.456E-02 -.251E-01 -.743E-02
   0.517E+01 -.551E+02 0.157E+04   -.491E+01 0.546E+02 -.157E+04   -.301E+00 0.458E+00 -.832E+00   -.490E-02 -.238E-01 -.153E-01
   0.118E+02 -.948E+00 -.289E+04   -.119E+02 0.101E+01 0.289E+04   0.167E+00 -.406E-01 0.811E+00   -.123E-01 -.247E-01 0.179E-01
   -.176E+02 -.264E+01 0.131E+02   0.176E+02 0.290E+01 -.144E+02   -.687E-01 -.334E+00 0.122E+01   -.114E-01 0.188E-01 0.873E-02
   -.103E+02 0.935E+01 -.291E+04   0.977E+01 -.921E+01 0.290E+04   0.537E+00 -.848E-01 0.143E+01   -.471E-02 -.172E-01 -.344E-01
   0.147E+02 0.599E+02 0.142E+02   -.156E+02 -.611E+02 -.146E+02   0.111E+01 0.120E+01 0.251E+00   -.219E-01 0.525E-02 -.886E-03
   -.624E+02 0.913E+01 -.149E+04   0.629E+02 -.107E+02 0.148E+04   -.489E+00 0.162E+01 0.252E+01   -.993E-02 0.882E-02 -.407E-01
   0.287E+02 0.283E+02 -.153E+04   -.285E+02 -.276E+02 0.152E+04   -.274E+00 -.717E+00 0.227E+01   0.364E-02 0.451E-02 -.235E-01
   0.139E+02 -.662E+02 -.686E+02   -.148E+02 0.656E+02 0.689E+02   0.105E+01 0.579E+00 -.296E+00   0.106E-01 -.735E-02 0.730E-02
   -.238E+02 -.185E+02 -.586E+01   0.246E+02 0.192E+02 0.518E+01   -.805E+00 -.837E+00 0.674E+00   0.276E-01 0.474E-01 0.271E-01
   0.191E+02 0.138E+02 -.123E+04   -.192E+02 -.142E+02 0.123E+04   0.929E-01 0.468E+00 0.396E+00   -.187E-01 -.743E-02 -.138E-01
   -.636E+02 -.529E+01 0.241E+04   0.639E+02 0.398E+01 -.240E+04   -.335E+00 0.132E+01 -.277E+01   0.467E-02 0.105E-01 0.299E-02
   0.327E+02 -.164E+02 0.244E+04   -.326E+02 0.149E+02 -.244E+04   -.443E-01 0.157E+01 -.241E+01   -.322E-03 -.948E-03 0.688E-03
   0.173E+02 0.631E+01 0.244E+04   -.174E+02 -.565E+01 -.244E+04   0.194E+00 -.779E+00 -.296E+01   0.103E-01 0.183E-01 -.705E-02
   0.146E+02 0.538E+02 0.128E+04   -.137E+02 -.530E+02 -.128E+04   -.901E+00 -.776E+00 -.694E-01   -.135E-01 -.227E-01 0.634E-02
   0.313E+02 -.609E+02 0.126E+04   -.313E+02 0.606E+02 -.126E+04   -.109E+00 0.246E+00 -.422E+00   0.261E-01 -.458E-02 0.123E-02
   -.500E+02 -.254E+02 -.123E+04   0.502E+02 0.256E+02 0.122E+04   -.150E+00 -.222E+00 0.775E+00   -.933E-02 0.583E-02 0.435E-02
   -.110E+03 0.206E+02 0.245E+04   0.110E+03 -.203E+02 -.245E+04   0.538E+00 -.224E+00 -.279E+01   0.899E-02 -.519E-02 -.121E-01
   -.351E+02 0.476E+02 0.128E+04   0.343E+02 -.471E+02 -.128E+04   0.846E+00 -.530E+00 -.439E+00   0.112E-02 -.193E-01 0.840E-03
   -.466E+02 0.174E+01 -.449E+02   0.464E+02 -.137E+01 0.448E+02   0.221E+00 -.420E+00 -.954E-01   -.151E-01 0.189E-01 0.226E-01
   0.143E+02 -.808E+02 -.123E+04   -.145E+02 0.806E+02 0.123E+04   0.167E+00 0.209E+00 0.102E+01   0.887E-02 0.631E-02 -.306E-02
   0.106E+02 0.313E+02 -.122E+04   -.107E+02 -.313E+02 0.122E+04   0.108E+00 -.251E-01 0.316E+00   0.246E-01 0.406E-03 -.142E-02
   0.578E+01 -.630E+02 0.242E+04   -.652E+01 0.620E+02 -.242E+04   0.792E+00 0.996E+00 -.289E+01   0.141E-02 -.146E-01 0.242E-02
   0.832E+01 -.147E+02 0.272E+04   -.838E+01 0.149E+02 -.272E+04   0.720E-01 -.219E+00 -.238E+01   0.454E-03 0.283E-01 0.572E-02
   0.119E+03 0.345E+02 0.276E+04   -.119E+03 -.336E+02 -.276E+04   0.412E+00 -.833E+00 -.274E+01   -.758E-02 -.130E-02 -.200E-04
   -.416E+02 -.392E+02 0.141E+04   0.411E+02 0.382E+02 -.141E+04   0.471E+00 0.109E+01 -.376E+00   -.195E-01 -.141E-01 0.342E-01
   -.614E+02 0.673E+02 0.199E+02   0.614E+02 -.671E+02 -.207E+02   -.313E-01 -.222E+00 0.797E+00   -.109E-01 0.186E-01 -.151E-02
   -.970E+02 0.184E+02 0.139E+04   0.966E+02 -.180E+02 -.139E+04   0.473E+00 -.506E+00 -.146E+00   -.189E-01 0.322E-01 0.253E-01
   -.169E+02 0.859E+01 0.137E+04   0.171E+02 -.887E+01 -.137E+04   -.126E+00 0.315E+00 -.170E+00   -.129E-02 0.801E-02 0.175E-01
   0.454E+02 0.431E+01 -.139E+04   -.453E+02 -.449E+01 0.138E+04   -.224E+00 0.232E+00 0.139E+01   0.980E-02 -.520E-02 -.816E-02
   0.566E+02 -.799E+02 0.274E+04   -.562E+02 0.798E+02 -.273E+04   -.415E+00 0.207E+00 -.250E+01   -.103E-01 0.165E-01 0.533E-02
   -.134E+02 0.606E+01 0.136E+04   0.135E+02 -.590E+01 -.136E+04   -.126E+00 -.263E+00 -.437E+00   0.157E-01 0.456E-01 0.359E-01
   0.265E+02 -.719E+02 -.157E+02   -.256E+02 0.714E+02 0.160E+02   -.920E+00 0.628E+00 -.355E+00   0.178E-01 -.751E-02 -.103E-01
   0.459E+02 0.347E+02 0.340E+04   -.458E+02 -.339E+02 -.340E+04   -.109E+00 -.877E+00 -.388E+01   -.146E-01 -.116E-01 -.105E-01
   0.605E+02 -.248E+01 0.173E+04   -.606E+02 0.186E+01 -.173E+04   0.863E-01 0.754E+00 -.229E+00   0.356E-02 -.398E-01 0.174E-01
   0.105E+03 -.280E+02 0.170E+04   -.105E+03 0.280E+02 -.170E+04   -.146E+00 -.119E-01 -.487E-01   0.841E-02 0.230E-01 -.660E-02
   0.148E+02 0.652E+02 0.893E+02   -.154E+02 -.651E+02 -.900E+02   0.626E+00 -.228E+00 0.624E+00   -.428E-01 -.399E-01 -.151E-01
   0.105E+02 0.498E+02 -.169E+04   -.986E+01 -.493E+02 0.169E+04   -.669E+00 -.507E+00 0.133E+01   -.111E-01 0.756E-03 -.138E-01
   -.406E+02 0.319E+02 -.166E+04   0.396E+02 -.316E+02 0.166E+04   0.103E+01 -.284E+00 0.225E+01   0.217E-01 -.135E-01 -.437E-01
   -.268E+01 0.989E+02 0.335E+04   0.276E+01 -.993E+02 -.335E+04   -.133E+00 0.477E+00 -.309E+01   0.434E-02 -.358E-01 -.408E-02
   -.191E+02 -.826E+02 0.338E+04   0.182E+02 0.822E+02 -.338E+04   0.934E+00 0.348E+00 -.277E+01   0.458E-02 0.223E-01 0.287E-01
   0.107E+03 0.968E+01 -.556E+02   -.107E+03 -.947E+01 0.558E+02   -.365E-02 -.295E+00 -.323E+00   -.945E-02 0.113E-01 -.835E-02
   -.114E+03 -.365E+02 0.366E+02   0.114E+03 0.363E+02 -.366E+02   0.349E+00 0.171E+00 -.295E-01   0.787E-02 0.987E-02 0.242E-01
   -.111E+02 0.568E+02 0.179E+04   0.108E+02 -.563E+02 -.179E+04   0.321E+00 -.622E+00 -.780E+00   -.568E-02 -.166E-01 -.868E-02
   0.115E+02 -.732E+02 0.446E+02   -.112E+02 0.720E+02 -.452E+02   -.300E+00 0.133E+01 0.541E+00   -.342E-02 -.703E-02 0.116E-01
   0.554E+02 -.322E+02 0.132E+02   -.548E+02 0.319E+02 -.134E+02   -.681E+00 0.368E+00 0.211E+00   -.136E-01 -.213E-01 0.744E-03
   -.759E+02 0.375E+01 0.153E+04   0.755E+02 -.363E+01 -.153E+04   0.442E+00 -.890E-01 -.181E+00   0.719E-02 0.114E-01 0.164E-01
   -.170E+02 0.149E+02 0.160E+04   0.173E+02 -.152E+02 -.160E+04   -.376E+00 0.267E+00 -.466E+00   0.151E-01 -.156E-01 -.750E-02
   -.103E+03 -.202E+01 0.305E+04   0.104E+03 0.209E+01 -.305E+04   -.564E+00 -.652E-01 -.150E+01   0.106E-01 0.206E-01 -.388E-02
   0.739E+02 -.367E+02 0.305E+04   -.743E+02 0.372E+02 -.305E+04   0.363E+00 -.655E+00 -.104E+01   -.226E-01 0.311E-01 0.871E-03
   0.197E+02 -.326E+02 0.153E+04   -.193E+02 0.323E+02 -.153E+04   -.380E+00 0.209E+00 -.394E-01   -.879E-02 0.297E-01 0.105E-01
   0.580E+02 0.659E+01 0.159E+04   -.575E+02 -.663E+01 -.159E+04   -.483E+00 0.717E-01 -.143E+00   -.135E-01 0.794E-02 0.109E-01
   -.404E+02 -.651E+02 -.155E+04   0.404E+02 0.652E+02 0.155E+04   0.955E-02 -.115E+00 0.847E+00   0.193E-01 0.203E-01 0.121E-01
   -.500E+02 0.298E+02 0.303E+04   0.504E+02 -.292E+02 -.303E+04   -.401E+00 -.610E+00 -.193E+01   0.137E-01 -.168E-01 -.138E-01
   -.484E+02 0.766E+02 0.791E+02   0.488E+02 -.763E+02 -.791E+02   -.366E+00 -.378E+00 -.227E-01   -.366E-02 -.152E-01 -.782E-02
   -.534E+00 0.601E+02 -.907E+01   0.442E+00 -.594E+02 0.896E+01   0.779E-01 -.837E+00 -.578E-02   0.440E-01 0.647E-02 -.824E-02
   0.546E+02 0.226E+01 -.278E+02   -.542E+02 -.167E+01 0.278E+02   -.391E+00 -.624E+00 -.270E-01   -.123E-01 -.289E-02 -.152E-01
   0.178E+02 -.565E+02 0.308E+02   -.182E+02 0.561E+02 -.309E+02   0.348E+00 0.447E+00 0.841E-01   0.324E-01 -.296E-01 -.163E-01
   0.147E+00 0.349E+01 -.348E+03   -.187E+00 -.365E+01 0.350E+03   0.659E-01 0.168E+00 -.194E+01   -.381E-03 -.123E-03 -.241E-02
 -----------------------------------------------------------------------------------------------
   -.217E+01 -.152E+01 -.149E+01   0.123E-12 -.155E-12 0.580E-11   0.220E+01 0.149E+01 0.164E+01   -.234E-01 0.268E-01 -.161E+00
 
 
 POSITION                                       TOTAL-FORCE (eV/Angst)
 -----------------------------------------------------------------------------------
     13.06733      8.10409      6.96243        -0.008325      0.019128      0.006263
      5.15685      8.14275      6.91721         0.019527      0.012218     -0.023843
      5.01043      3.51256      7.00354         0.013583     -0.029105      0.007652
     14.45061      8.88739      9.25680         0.010951      0.008025      0.040272
      3.76885      4.27805      9.35960         0.006117     -0.017697     -0.000783
      6.45604      8.86595      9.23073        -0.019458     -0.031097      0.007185
     11.77348      4.27977      9.43708         0.001770     -0.021096      0.043034
      9.10811      8.86910      9.22371        -0.016882     -0.032654     -0.012634
     10.42815      1.93339      9.31168         0.023304      0.016912      0.021970
      2.48511      1.94356      9.23066         0.001237      0.006458      0.024402
     11.77865      8.87259      9.28951         0.000228     -0.013529     -0.015387
     13.10219      6.56512      9.34173         0.015256     -0.002089     -0.006869
      5.10891      1.93237      9.31548         0.001256      0.029427     -0.009013
      7.80042      6.58202      9.29367         0.006376      0.017043     -0.022564
      9.10527      4.27919      9.23242        -0.008687      0.010083      0.019285
      5.11205      6.56100      9.33336         0.013731      0.031821      0.013670
      7.77168      1.94352      9.25410         0.006685     -0.011320     -0.004061
      7.84433      3.46034      6.95440         0.010432     -0.013058      0.030527
      6.36193      1.14698      6.91857         0.000220      0.027024     -0.003370
      6.49878      1.12701      0.91783        -0.023114      0.024588      0.002710
      3.73329      4.24365      2.82304         0.016754     -0.012604     -0.030647
      1.18019      1.25965      6.89580         0.013325     -0.001306      0.025619
      1.14169      1.20489      0.75465        -0.010231     -0.000827     -0.016642
      6.49937      8.84078      2.91411         0.001036      0.009380     -0.016316
      6.44640      4.25548      9.34151        -0.003363      0.009621     -0.014316
      7.76740      5.03843      4.81278        -0.015036      0.000845     -0.012922
     10.42172      6.58805      9.28652        -0.002756      0.015115      0.017777
     14.39426      7.27926      4.85433         0.016232     -0.003701     -0.021004
     11.79441      5.73133      7.02863        -0.027913     -0.019378      0.007150
      6.47248      5.82476      6.98941        -0.003977     -0.006603     -0.040506
      3.64276      2.57914      4.95751         0.009489      0.001048     -0.013962
     10.46387      5.07666      4.86931         0.012017     -0.010250      0.008072
      3.79842      5.81935      7.13067        -0.006011     -0.007540     -0.014918
     13.07897      7.95618      0.95883        -0.005553     -0.007556      0.031428
      5.21380      7.98656      0.86284         0.006855      0.014026      0.016574
      3.83131      5.83197      0.85600         0.023625     -0.018579     -0.010761
      7.88243      2.06346      2.84612        -0.018548     -0.000118      0.026515
      9.16289      8.80794      2.87612         0.003274      0.012910      0.014851
      2.42502      3.53341      7.11840        -0.012501     -0.016194      0.023604
      2.32870      3.51838      0.86299         0.021990      0.014907     -0.036027
     10.44688      1.98709      2.84009        -0.003417      0.010236     -0.013311
     13.08429      5.02419      4.92879        -0.009029      0.002920     -0.000417
      3.78004      1.06886      7.05268        -0.002631      0.009869     -0.001781
      9.11672      5.81337      7.06184         0.012962     -0.009847      0.016006
      3.77122      1.06783      0.90415        -0.005300      0.022655     -0.011927
      9.18715      5.77316      0.99286        -0.003032      0.019024     -0.023434
      5.17420      3.52548      0.87003         0.018691      0.006992      0.035464
     11.72362      8.75176      2.92245        -0.017887      0.010182      0.016397
     11.76920      7.33679      4.83917        -0.001877     -0.011464      0.000477
     12.97800      6.50322      2.85234         0.015049     -0.032223     -0.035374
      9.13171      4.24465      2.81404         0.025461     -0.002902     -0.013586
      7.83656      8.07920      6.98670         0.002475      0.000473     -0.005244
      7.89763      8.01872      0.91379        -0.005943      0.016911      0.008533
     10.49038      6.60126      2.83869        -0.005836     -0.037349      0.028653
      2.55664      0.24997      5.00174        -0.008209      0.000324     -0.001389
      7.83460      3.52101      0.79067        -0.022661      0.002996      0.003693
      5.12642      1.88462      2.93503        -0.024565      0.012748     -0.007095
      5.21667      6.50564      2.92065         0.023055     -0.003891     -0.038661
      7.78207      0.46651      4.84791         0.008934      0.002399      0.004292
      9.14745      1.19585      6.96761        -0.000413     -0.001868      0.009353
     10.39318      8.05793      6.96776         0.008824     -0.014016     -0.002600
      9.15068      1.13559      0.78976        -0.022657     -0.003057      0.001767
     10.46124      8.03092      0.81477        -0.015048      0.018576      0.019308
      5.11087      5.00664      4.92049         0.007244      0.001760     -0.010435
     11.72380      2.74933      4.87588        -0.000093     -0.000214      0.008543
     14.43470      8.90066      2.85261        -0.005489      0.003124     -0.013636
      9.17465      2.67771      4.91886         0.002586     -0.003728     -0.000884
      6.43453      2.69611      4.85666        -0.008052     -0.012412      0.012664
     11.76877      4.21925      2.83668        -0.020212     -0.012922     -0.024426
      2.46431      1.90348      2.84561        -0.008811      0.017234     -0.006502
     11.75684      5.74003      0.91295        -0.012971      0.013532     -0.022290
      6.52258      5.80409      0.95833        -0.000612     -0.023144     -0.000945
      7.91412      6.57792      2.85270         0.004764     -0.015064     -0.003975
      6.48211      4.16784      2.79146        -0.009882      0.000293     -0.004305
     10.48419      3.49381      7.06081        -0.002574      0.005180      0.008698
     10.44539      3.47942      0.90065        -0.009626     -0.003661     -0.029585
     10.46603      0.49416      4.86882        -0.006631     -0.007753      0.017896
      9.13844      7.35109      4.94618         0.006993      0.005162     -0.003472
      6.54838      7.35946      4.93693        -0.000764     -0.008595      0.023629
      5.08669      0.27351      4.89623        -0.000292      0.003750      0.003190
     11.10328      3.05979     10.48063         0.024555      0.013492     -0.005303
 -----------------------------------------------------------------------------------
    total drift:                                0.011357      0.002356     -0.011764


--------------------------------------------------------------------------------------------------------



  FREE ENERGIE OF THE ION-ELECTRON SYSTEM (eV)
  ---------------------------------------------------
  free  energy   TOTEN  =      -510.27910698 eV

  energy  without entropy=     -510.30395872  energy(sigma->0) =     -510.28739089
 
 d Force = 0.3139167E-02[ 0.111E-02, 0.517E-02]  d Energy = 0.3205390E-02-0.662E-04
 d Force = 0.1894228E+02[ 0.189E+02, 0.189E+02]  d Ewald  = 0.1894228E+02-0.592E-05


--------------------------------------------------------------------------------------------------------


    POTLOK:  cpu time    0.4468: real time    0.6659


--------------------------------------------------------------------------------------------------------


 Conjugate gradient step on ions:
 trial-energy change:   -0.003205  1 .order   -0.003139   -0.005167   -0.001112
  (g-gl).g = 0.393E-02      g.g   = 0.377E-02  gl.gl    = 0.603E-02
 g(Force)  = 0.377E-02   g(Stress)= 0.000E+00 ortho     =-0.385E-04
 gamma     =   0.65174
 trial     =   1.38076
 opt step  =   1.71822  (harmonic =   1.75937) maximal distance =0.01911521
 next E    =  -510.279244   (d E  =  -0.00334)


--------------------------------------------------------------------------------------------------------


  
 reached required accuracy - stopping structural energy minimisation
     LOOP+:  cpu time  773.0347: real time  776.2544
    4ORBIT:  cpu time    0.0000: real time    0.0000

 total amount of memory used by VASP MPI-rank0   231983. kBytes
=======================================================================

   base      :      30000. kBytes
   nonlr-proj:      34033. kBytes
   fftplans  :      16133. kBytes
   grid      :      49182. kBytes
   one-center:        653. kBytes
   wavefun   :     101982. kBytes
 
  
  
 General timing and accounting informations for this job:
 ========================================================
  
                  Total CPU time used (sec):    16646.914
                            User time (sec):    16191.955
                          System time (sec):      454.959
                         Elapsed time (sec):    16742.161
  
                   Maximum memory used (kb):      416640.
                   Average memory used (kb):           0.
  
                          Minor page faults:      3364344
                          Major page faults:          352
                 Voluntary context switches:        16468
