 vasp.5.4.4.18Apr17-6-g9f103f2a35 (build Oct 25 2019 11:13:22) complex          
  
 executed on             LinuxIFC date 2022.02.05  09:06:08
 running on   48 total cores
 distrk:  each k-point on   48 cores,    1 groups
 distr:  one band on NCORES_PER_BAND=   1 cores,   48 groups


--------------------------------------------------------------------------------------------------------


 INCAR:
 POTCAR:    PAW_PBE Pt 04Feb2005                  
 POTCAR:    PAW_PBE Fe 06Sep2000                  
 POTCAR:    PAW_PBE Co 02Aug2007                  
 POTCAR:    PAW_PBE Cu 22Jun2005                  
 POTCAR:    PAW_PBE Ni 02Aug2007                  
 POTCAR:    PAW_PBE H 15Jun2001                   

 ----------------------------------------------------------------------------- 
|                                                                             |
|           W    W    AA    RRRRR   N    N  II  N    N   GGGG   !!!           |
|           W    W   A  A   R    R  NN   N  II  NN   N  G    G  !!!           |
|           W    W  A    A  R    R  N N  N  II  N N  N  G       !!!           |
|           W WW W  AAAAAA  RRRRR   N  N N  II  N  N N  G  GGG   !            |
|           WW  WW  A    A  R   R   N   NN  II  N   NN  G    G                |
|           W    W  A    A  R    R  N    N  II  N    N   GGGG   !!!           |
|                                                                             |
|      For optimal performance we recommend to set                            |
|        NCORE= 4 - approx SQRT( number of cores)                             |
|      NCORE specifies how many cores store one orbital (NPAR=cpu/NCORE).     |
|      This setting can  greatly improve the performance of VASP for DFT.     |
|      The default,   NCORE=1            might be grossly inefficient         |
|      on modern multi-core architectures or massively parallel machines.     |
|      Do your own testing !!!!                                               |
|      Unfortunately you need to use the default for GW and RPA calculations. |
|      (for HF NCORE is supported but not extensively tested yet)             |
|                                                                             |
 ----------------------------------------------------------------------------- 

 POTCAR:    PAW_PBE Pt 04Feb2005                  
   VRHFIN =Pt: s1d9                                                             
   LEXCH  = PE                                                                  
   EATOM  =   729.1176 eV,   53.5886 Ry                                         
                                                                                
   TITEL  = PAW_PBE Pt 04Feb2005                                                
   LULTRA =        F    use ultrasoft PP ?                                      
   IUNSCR =        1    unscreen: 0-lin 1-nonlin 2-no                           
   RPACOR =    2.330    partial core radius                                     
   POMASS =  195.080; ZVAL   =   10.000    mass and valenz                      
   RCORE  =    2.600    outmost cutoff radius                                   
   RWIGS  =    2.750; RWIGS  =    1.455    wigner-seitz radius (au A)           
   ENMAX  =  230.283; ENMIN  =  172.712 eV                                      
   ICORE  =        3    local potential                                         
   LCOR   =        T    correct aug charges                                     
   LPAW   =        T    paw PP                                                  
   EAUG   =  358.966                                                            
   DEXC   =    0.000                                                            
   RMAX   =    2.658    core radius for proj-oper                               
   RAUG   =    1.300    factor for augmentation sphere                          
   RDEP   =    2.761    radius for radial grids                                 
   RDEPT  =    2.203    core radius for aug-charge                              
                                                                                
   Atomic configuration                                                         
   16 entries                                                                   
     n  l   j            E        occ.                                          
     1  0  0.50    -78401.1885   2.0000                                         
     2  0  0.50    -13770.7750   2.0000                                         
     2  1  1.50    -11931.0468   6.0000                                         
     3  0  0.50     -3234.7234   2.0000                                         
     3  1  1.50     -2699.2216   6.0000                                         
     3  2  2.50     -2119.5714  10.0000                                         
     4  0  0.50      -695.1528   2.0000                                         
     4  1  1.50      -519.6034   6.0000                                         
     4  2  2.50      -306.6786  10.0000                                         
     4  3  3.50       -70.1041  14.0000                                         
     5  0  0.50      -101.7747   2.0000                                         
     5  1  1.50       -55.9873   6.0000                                         
     5  2  2.50        -6.1423   9.0000                                         
     6  0  0.50        -5.6573   1.0000                                         
     6  1  1.50        -6.8029   0.0000                                         
     5  3  2.50        -1.3606   0.0000                                         
   Description                                                                  
     l       E           TYP  RCUT    TYP  RCUT                                 
     2     -6.1423404     23  2.500                                             
     2     -7.5029230     23  2.500                                             
     0     -5.6573207     23  2.500                                             
     0      0.7416693     23  2.500                                             
     1     -2.7211652     23  2.600                                             
     1     20.4087390     23  2.600                                             
     3     -1.3605826     23  2.500                                             
  local pseudopotential read in
  partial core-charges read in
  partial kinetic energy density read in
  atomic valenz-charges read in
  non local Contribution for L=           2  read in
    real space projection operators read in
  non local Contribution for L=           2  read in
    real space projection operators read in
  non local Contribution for L=           0  read in
    real space projection operators read in
  non local Contribution for L=           0  read in
    real space projection operators read in
  non local Contribution for L=           1  read in
    real space projection operators read in
  non local Contribution for L=           1  read in
    real space projection operators read in
    PAW grid and wavefunctions read in
 
   number of l-projection  operators is LMAX  =           6
   number of lm-projection operators is LMMAX =          18
 
 POTCAR:    PAW_PBE Fe 06Sep2000                  
   VRHFIN =Fe:  d7 s1                                                           
   LEXCH  = PE                                                                  
   EATOM  =   594.3153 eV,   43.6809 Ry                                         
                                                                                
   TITEL  = PAW_PBE Fe 06Sep2000                                                
   LULTRA =        F    use ultrasoft PP ?                                      
   IUNSCR =        1    unscreen: 0-lin 1-nonlin 2-no                           
   RPACOR =    2.000    partial core radius                                     
   POMASS =   55.847; ZVAL   =    8.000    mass and valenz                      
   RCORE  =    2.300    outmost cutoff radius                                   
   RWIGS  =    2.460; RWIGS  =    1.302    wigner-seitz radius (au A)           
   ENMAX  =  267.882; ENMIN  =  200.911 eV                                      
   RCLOC  =    1.701    cutoff for local pot                                    
   LCOR   =        T    correct aug charges                                     
   LPAW   =        T    paw PP                                                  
   EAUG   =  511.368                                                            
   DEXC   =    0.000                                                            
   RMAX   =    2.356    core radius for proj-oper                               
   RAUG   =    1.300    factor for augmentation sphere                          
   RDEP   =    2.442    radius for radial grids                                 
   RDEPT  =    1.890    core radius for aug-charge                              
                                                                                
   Atomic configuration                                                         
    9 entries                                                                   
     n  l   j            E        occ.                                          
     1  0  0.50     -6993.8440   2.0000                                         
     2  0  0.50      -814.6047   2.0000                                         
     2  1  1.50      -693.3689   6.0000                                         
     3  0  0.50       -89.4732   2.0000                                         
     3  1  1.50       -55.6373   6.0000                                         
     3  2  2.50        -3.8151   7.0000                                         
     4  0  0.50        -4.2551   1.0000                                         
     4  1  1.50        -3.4015   0.0000                                         
     4  3  2.50        -1.3606   0.0000                                         
   Description                                                                  
     l       E           TYP  RCUT    TYP  RCUT                                 
     2     -3.8151135     23  2.300                                             
     2     -5.1756961     23  2.300                                             
     0     -4.2550963     23  2.300                                             
     0      7.2035603     23  2.300                                             
     1     -2.7211652     23  2.300                                             
     1     18.4316424     23  2.300                                             
  local pseudopotential read in
  partial core-charges read in
  partial kinetic energy density read in
  atomic valenz-charges read in
  non local Contribution for L=           2  read in
    real space projection operators read in
  non local Contribution for L=           2  read in
    real space projection operators read in
  non local Contribution for L=           0  read in
    real space projection operators read in
  non local Contribution for L=           0  read in
    real space projection operators read in
  non local Contribution for L=           1  read in
    real space projection operators read in
  non local Contribution for L=           1  read in
    real space projection operators read in
    PAW grid and wavefunctions read in
 
   number of l-projection  operators is LMAX  =           6
   number of lm-projection operators is LMMAX =          18
 
 POTCAR:    PAW_PBE Co 02Aug2007                  
   VRHFIN =Co: d8 s1                                                            
   LEXCH  = PE                                                                  
   EATOM  =   813.3670 eV,   59.7808 Ry                                         
                                                                                
   TITEL  = PAW_PBE Co 02Aug2007                                                
   LULTRA =        F    use ultrasoft PP ?                                      
   IUNSCR =        1    unscreen: 0-lin 1-nonlin 2-no                           
   RPACOR =    2.000    partial core radius                                     
   POMASS =   58.933; ZVAL   =    9.000    mass and valenz                      
   RCORE  =    2.300    outmost cutoff radius                                   
   RWIGS  =    2.460; RWIGS  =    1.302    wigner-seitz radius (au A)           
   ENMAX  =  267.968; ENMIN  =  200.976 eV                                      
   RCLOC  =    1.203    cutoff for local pot                                    
   LCOR   =        T    correct aug charges                                     
   LPAW   =        T    paw PP                                                  
   EAUG   =  477.818                                                            
   DEXC   =    0.000                                                            
   RMAX   =    2.360    core radius for proj-oper                               
   RAUG   =    1.300    factor for augmentation sphere                          
   RDEP   =    2.393    radius for radial grids                                 
   RDEPT  =    1.864    core radius for aug-charge                              
                                                                                
   Atomic configuration                                                         
    9 entries                                                                   
     n  l   j            E        occ.                                          
     1  0  0.50     -7587.6674   2.0000                                         
     2  0  0.50      -893.6084   2.0000                                         
     2  1  1.50      -764.5805   6.0000                                         
     3  0  0.50       -97.5973   2.0000                                         
     3  1  1.50       -60.9648   6.0000                                         
     3  2  2.50        -4.2382   8.0000                                         
     4  0  0.50        -4.3746   1.0000                                         
     4  1  1.50        -4.0817   0.0000                                         
     4  3  2.50        -1.3606   0.0000                                         
   Description                                                                  
     l       E           TYP  RCUT    TYP  RCUT                                 
     2     -4.2382362     23  2.300                                             
     2     -5.5988188     23  2.300                                             
     0     -4.3745797     23  2.300                                             
     0      5.7660125     23  2.300                                             
     1     -2.7211652     23  2.300                                             
     1     16.9860234     23  2.300                                             
  local pseudopotential read in
  partial core-charges read in
  partial kinetic energy density read in
  atomic valenz-charges read in
  non local Contribution for L=           2  read in
    real space projection operators read in
  non local Contribution for L=           2  read in
    real space projection operators read in
  non local Contribution for L=           0  read in
    real space projection operators read in
  non local Contribution for L=           0  read in
    real space projection operators read in
  non local Contribution for L=           1  read in
    real space projection operators read in
  non local Contribution for L=           1  read in
    real space projection operators read in
    PAW grid and wavefunctions read in
 
   number of l-projection  operators is LMAX  =           6
   number of lm-projection operators is LMMAX =          18
 
 POTCAR:    PAW_PBE Cu 22Jun2005                  
   VRHFIN =Cu: d10 p1                                                           
   LEXCH  = PE                                                                  
   EATOM  =  1390.9808 eV,  102.2342 Ry                                         
                                                                                
   TITEL  = PAW_PBE Cu 22Jun2005                                                
   LULTRA =        F    use ultrasoft PP ?                                      
   IUNSCR =        1    unscreen: 0-lin 1-nonlin 2-no                           
   RPACOR =    2.000    partial core radius                                     
   POMASS =   63.546; ZVAL   =   11.000    mass and valenz                      
   RCORE  =    2.300    outmost cutoff radius                                   
   RWIGS  =    2.200; RWIGS  =    1.164    wigner-seitz radius (au A)           
   ENMAX  =  295.446; ENMIN  =  221.585 eV                                      
   ICORE  =        3    local potential                                         
   LCOR   =        T    correct aug charges                                     
   LPAW   =        T    paw PP                                                  
   EAUG   =  586.980                                                            
   DEXC   =    0.000                                                            
   RMAX   =    2.344    core radius for proj-oper                               
   RAUG   =    1.300    factor for augmentation sphere                          
   RDEP   =    2.302    radius for radial grids                                 
   RDEPT  =    1.771    core radius for aug-charge                              
                                                                                
   Atomic configuration                                                         
    9 entries                                                                   
     n  l   j            E        occ.                                          
     1  0  0.50     -8850.2468   2.0000                                         
     2  0  0.50     -1062.3498   2.0000                                         
     2  1  1.50      -916.8226   6.0000                                         
     3  0  0.50      -114.6929   2.0000                                         
     3  1  1.50       -72.1325   6.0000                                         
     3  2  2.50        -5.0394  10.0000                                         
     4  0  0.50        -4.6097   1.0000                                         
     4  1  0.50        -4.0817   0.0000                                         
     4  3  2.50        -1.3606   0.0000                                         
   Description                                                                  
     l       E           TYP  RCUT    TYP  RCUT                                 
     2     -5.0393973     23  2.200                                             
     2     10.8846608     23  2.200                                             
     0     -4.6097109     23  2.200                                             
     0      8.2520465     23  2.200                                             
     1     -2.7211652     23  2.200                                             
     1     21.7055443     23  2.200                                             
     3      2.7211652     23  2.300                                             
  local pseudopotential read in
  partial core-charges read in
  partial kinetic energy density read in
  atomic valenz-charges read in
  non local Contribution for L=           2  read in
    real space projection operators read in
  non local Contribution for L=           2  read in
    real space projection operators read in
  non local Contribution for L=           0  read in
    real space projection operators read in
  non local Contribution for L=           0  read in
    real space projection operators read in
  non local Contribution for L=           1  read in
    real space projection operators read in
  non local Contribution for L=           1  read in
    real space projection operators read in
    PAW grid and wavefunctions read in
 
   number of l-projection  operators is LMAX  =           6
   number of lm-projection operators is LMMAX =          18
 
 POTCAR:    PAW_PBE Ni 02Aug2007                  
   VRHFIN =Ni:                                                                  
   LEXCH  = PE                                                                  
   EATOM  =  1077.6739 eV,   79.2068 Ry                                         
                                                                                
   TITEL  = PAW_PBE Ni 02Aug2007                                                
   LULTRA =        F    use ultrasoft PP ?                                      
   IUNSCR =        1    unscreen: 0-lin 1-nonlin 2-no                           
   RPACOR =    2.000    partial core radius                                     
   POMASS =   58.690; ZVAL   =   10.000    mass and valenz                      
   RCORE  =    2.300    outmost cutoff radius                                   
   RWIGS  =    2.430; RWIGS  =    1.286    wigner-seitz radius (au A)           
   ENMAX  =  269.532; ENMIN  =  202.149 eV                                      
   RCLOC  =    1.201    cutoff for local pot                                    
   LCOR   =        T    correct aug charges                                     
   LPAW   =        T    paw PP                                                  
   EAUG   =  544.565                                                            
   DEXC   =    0.000                                                            
   RMAX   =    2.357    core radius for proj-oper                               
   RAUG   =    1.300    factor for augmentation sphere                          
   RDEP   =    2.390    radius for radial grids                                 
   RDEPT  =    1.838    core radius for aug-charge                              
                                                                                
   Atomic configuration                                                         
    9 entries                                                                   
     n  l   j            E        occ.                                          
     1  0  0.50     -8206.4253   2.0000                                         
     2  0  0.50      -976.1748   2.0000                                         
     2  1  1.50      -839.0571   6.0000                                         
     3  0  0.50      -105.9991   2.0000                                         
     3  1  1.50       -66.4603   6.0000                                         
     3  2  2.50        -4.6458   9.0000                                         
     4  0  0.50        -4.4926   1.0000                                         
     4  1  1.50        -4.0817   0.0000                                         
     4  3  2.50        -1.3606   0.0000                                         
   Description                                                                  
     l       E           TYP  RCUT    TYP  RCUT                                 
     2     -4.6457903     23  2.300                                             
     2     -6.0063729     23  2.300                                             
     0     -4.4925590     23  2.300                                             
     0      5.0102601     23  2.300                                             
     1     -2.7211652     23  2.300                                             
     1     16.5183231     23  2.300                                             
  local pseudopotential read in
  partial core-charges read in
  partial kinetic energy density read in
  atomic valenz-charges read in
  non local Contribution for L=           2  read in
    real space projection operators read in
  non local Contribution for L=           2  read in
    real space projection operators read in
  non local Contribution for L=           0  read in
    real space projection operators read in
  non local Contribution for L=           0  read in
    real space projection operators read in
  non local Contribution for L=           1  read in
    real space projection operators read in
  non local Contribution for L=           1  read in
    real space projection operators read in
    PAW grid and wavefunctions read in
 
   number of l-projection  operators is LMAX  =           6
   number of lm-projection operators is LMMAX =          18
 
 POTCAR:    PAW_PBE H 15Jun2001                   
   VRHFIN =H: ultrasoft test                                                    
   LEXCH  = PE                                                                  
   EATOM  =    12.4884 eV,    0.9179 Ry                                         
                                                                                
   TITEL  = PAW_PBE H 15Jun2001                                                 
   LULTRA =        F    use ultrasoft PP ?                                      
   IUNSCR =        0    unscreen: 0-lin 1-nonlin 2-no                           
   RPACOR =    0.000    partial core radius                                     
   POMASS =    1.000; ZVAL   =    1.000    mass and valenz                      
   RCORE  =    1.100    outmost cutoff radius                                   
   RWIGS  =    0.700; RWIGS  =    0.370    wigner-seitz radius (au A)           
   ENMAX  =  250.000; ENMIN  =  200.000 eV                                      
   RCLOC  =    0.701    cutoff for local pot                                    
   LCOR   =        T    correct aug charges                                     
   LPAW   =        T    paw PP                                                  
   EAUG   =  400.000                                                            
   RMAX   =    1.123    core radius for proj-oper                               
   RAUG   =    1.200    factor for augmentation sphere                          
   RDEP   =    1.112    radius for radial grids                                 
   RDEPT  =    0.926    core radius for aug-charge                              
                                                                                
   Atomic configuration                                                         
    2 entries                                                                   
     n  l   j            E        occ.                                          
     1  0  0.50        -6.4927   1.0000                                         
     2  1  0.50        -3.4015   0.0000                                         
   Description                                                                  
     l       E           TYP  RCUT    TYP  RCUT                                 
     0     -6.4927494     23  1.100                                             
     0      6.8029130     23  1.100                                             
     1     -4.0817478     23  1.100                                             
  local pseudopotential read in
  atomic valenz-charges read in
  non local Contribution for L=           0  read in
    real space projection operators read in
  non local Contribution for L=           0  read in
    real space projection operators read in
  non local Contribution for L=           1  read in
    real space projection operators read in
    PAW grid and wavefunctions read in
 
   number of l-projection  operators is LMAX  =           3
   number of lm-projection operators is LMMAX =           5
 
 Optimization of the real space projectors (new method)

 maximal supplied QI-value         = 14.36
 optimisation between [QCUT,QGAM] = [ 11.92, 23.98] = [ 39.79,161.09] Ry 
 Optimized for a Real-space Cutoff    1.49 Angstroem

   l    n(q)    QCUT    max X(q) W(low)/X(q) W(high)/X(q)  e(spline) 
   2     10    11.920    66.195    0.79E-04    0.18E-03    0.24E-06
   2     10    11.920    64.643    0.81E-04    0.19E-03    0.24E-06
   0     11    11.920    95.520    0.28E-04    0.54E-04    0.18E-06
   0     11    11.920    63.403    0.27E-04    0.52E-04    0.17E-06
   1     10    11.920    19.961    0.18E-04    0.11E-03    0.23E-06
   1     10    11.920    13.289    0.25E-04    0.87E-04    0.19E-06
 Optimization of the real space projectors (new method)

 maximal supplied QI-value         = 16.25
 optimisation between [QCUT,QGAM] = [ 11.86, 23.89] = [ 39.41,159.82] Ry 
 Optimized for a Real-space Cutoff    1.49 Angstroem

   l    n(q)    QCUT    max X(q) W(low)/X(q) W(high)/X(q)  e(spline) 
   2     10    11.864    80.901    0.13E-03    0.23E-03    0.37E-06
   2     10    11.864    75.754    0.13E-03    0.23E-03    0.38E-06
   0     11    11.864    58.752    0.44E-04    0.11E-04    0.20E-06
   0     11    11.864    30.679    0.36E-04    0.10E-04    0.18E-06
   1     10    11.864    17.977    0.31E-04    0.45E-04    0.10E-06
   1     10    11.864    13.559    0.25E-04    0.37E-04    0.89E-07
 Optimization of the real space projectors (new method)

 maximal supplied QI-value         = 16.25
 optimisation between [QCUT,QGAM] = [ 11.86, 23.89] = [ 39.41,159.82] Ry 
 Optimized for a Real-space Cutoff    1.33 Angstroem

   l    n(q)    QCUT    max X(q) W(low)/X(q) W(high)/X(q)  e(spline) 
   2      9    11.864    65.824    0.22E-03    0.53E-03    0.26E-06
   2      9    11.864    61.429    0.22E-03    0.53E-03    0.26E-06
   0      9    11.864    56.174    0.21E-03    0.32E-04    0.15E-06
   0      9    11.864    31.263    0.19E-03    0.30E-04    0.14E-06
   1      9    11.864    19.828    0.63E-04    0.30E-03    0.16E-06
   1      9    11.864    15.139    0.49E-04    0.25E-03    0.13E-06
 Optimization of the real space projectors (new method)

 maximal supplied QI-value         = 16.25
 optimisation between [QCUT,QGAM] = [ 11.86, 23.89] = [ 39.41,159.82] Ry 
 Optimized for a Real-space Cutoff    1.49 Angstroem

   l    n(q)    QCUT    max X(q) W(low)/X(q) W(high)/X(q)  e(spline) 
   2     10    11.864     4.610    0.10E-03    0.20E-03    0.29E-06
   2     10    11.864     8.522    0.17E-03    0.33E-03    0.50E-06
   0     11    11.864    51.609    0.52E-04    0.55E-04    0.33E-06
   0     11    11.864    27.747    0.46E-04    0.52E-04    0.31E-06
   1     10    11.864    20.408    0.54E-04    0.25E-04    0.21E-06
   1     10    11.864    13.425    0.48E-04    0.22E-04    0.18E-06
 Optimization of the real space projectors (new method)

 maximal supplied QI-value         = 16.25
 optimisation between [QCUT,QGAM] = [ 11.86, 23.89] = [ 39.41,159.82] Ry 
 Optimized for a Real-space Cutoff    1.33 Angstroem

   l    n(q)    QCUT    max X(q) W(low)/X(q) W(high)/X(q)  e(spline) 
   2      9    11.864    60.317    0.21E-03    0.51E-03    0.25E-06
   2      9    11.864    55.921    0.21E-03    0.51E-03    0.26E-06
   0      9    11.864    51.690    0.22E-03    0.30E-04    0.17E-06
   0      9    11.864    30.015    0.20E-03    0.28E-04    0.15E-06
   1      9    11.864    18.849    0.76E-04    0.33E-03    0.17E-06
   1      9    11.864    14.624    0.60E-04    0.28E-03    0.15E-06
 Optimization of the real space projectors (new method)

 maximal supplied QI-value         = 34.20
 optimisation between [QCUT,QGAM] = [ 11.97, 23.94] = [ 40.13,160.53] Ry 
 Optimized for a Real-space Cutoff    1.18 Angstroem

   l    n(q)    QCUT    max X(q) W(low)/X(q) W(high)/X(q)  e(spline) 
   0      8    11.971    19.460    0.15E-03    0.31E-03    0.25E-06
   0      8    11.971    12.209    0.13E-03    0.29E-03    0.25E-06
   1      8    11.971     4.655    0.22E-03    0.24E-03    0.21E-06
  PAW_PBE Pt 04Feb2005                  :
 energy of atom  1       EATOM= -729.1176
 kinetic energy error for atom=    0.0021 (will be added to EATOM!!)
  PAW_PBE Fe 06Sep2000                  :
 energy of atom  2       EATOM= -594.3153
 kinetic energy error for atom=    0.0024 (will be added to EATOM!!)
  PAW_PBE Co 02Aug2007                  :
 energy of atom  3       EATOM= -813.3670
 kinetic energy error for atom=    0.0026 (will be added to EATOM!!)
  PAW_PBE Cu 22Jun2005                  :
 energy of atom  4       EATOM=-1390.9808
 kinetic energy error for atom=    0.0036 (will be added to EATOM!!)
  PAW_PBE Ni 02Aug2007                  :
 energy of atom  5       EATOM=-1077.6739
 kinetic energy error for atom=    0.0027 (will be added to EATOM!!)
  PAW_PBE H 15Jun2001                   :
 energy of atom  6       EATOM=  -12.4884
 kinetic energy error for atom=    0.0008 (will be added to EATOM!!)
 
 
 POSCAR: 10.66                                   
  positions in cartesian coordinates
  No initial velocities read in
 exchange correlation table for  LEXCH =        8
   RHO(1)=    0.500       N(1)  =     2000
   RHO(2)=  100.500       N(2)  =     4000
 


--------------------------------------------------------------------------------------------------------


 ion  position               nearest neighbor table
   1  0.789  0.878  0.317-  49 2.61  28 2.62  59 2.65  19 2.66  61 2.67  33 2.68  29 2.69  60 2.70
                             2 2.75  11 2.77   4 2.80  12 2.85
   2  0.045  0.881  0.316-  79 2.55  77 2.60  60 2.65  30 2.66  28 2.67  52 2.68  33 2.70  22 2.70
                             1 2.75   4 2.82   6 2.82  16 2.86
   3  0.281  0.381  0.318-  64 2.56  39 2.59  33 2.60  31 2.64  68 2.70  19 2.73  43 2.74  30 2.74
                             5 2.79  13 2.80  25 2.83  18 2.84
   4  0.874  0.963  0.422-  17 2.64   9 2.65  11 2.66   6 2.67  16 2.68  12 2.68  60 2.78   1 2.80
                             2 2.82
   5  0.123  0.462  0.426-  16 2.64  10 2.64  12 2.64   7 2.66  25 2.68  13 2.70  39 2.72  33 2.72
                             3 2.79
   6  0.124  0.964  0.425-  81 1.71   9 2.65  10 2.67   4 2.67   8 2.69  14 2.71  16 2.72   2 2.82
                            52 2.85  22 2.89
   7  0.876  0.459  0.425-  15 2.64   9 2.65  10 2.65   5 2.66  27 2.67  12 2.68  39 2.68  75 2.74
                            29 2.78
   8  0.378  0.961  0.417-  43 2.58  13 2.64  11 2.65  27 2.65  52 2.67  10 2.68  14 2.69  61 2.69
                             6 2.69
   9  0.875  0.211  0.419-   6 2.65   4 2.65   7 2.65  17 2.66  15 2.67  75 2.67  10 2.69  60 2.70
                            22 2.79
  10  0.127  0.213  0.421-  13 2.64   5 2.64  39 2.65   7 2.65   6 2.67   8 2.68   9 2.69  43 2.73
                            22 2.76
  11  0.627  0.959  0.422-   8 2.65  12 2.65   4 2.66  27 2.66  13 2.67  17 2.67   1 2.77  19 2.82
                            61 2.83
  12  0.875  0.711  0.425-   5 2.64  16 2.65  11 2.65  27 2.67   7 2.68   4 2.68  33 2.71  29 2.81
                             1 2.85
  13  0.376  0.209  0.423-  10 2.64   8 2.64  11 2.67  25 2.67  17 2.67   5 2.70  43 2.76   3 2.80
                            19 2.81
  14  0.378  0.709  0.427-  81 1.80  27 2.64  15 2.64  25 2.67   8 2.69   6 2.71  16 2.71  44 2.78
                            30 2.82  52 2.84
  15  0.626  0.462  0.421-  27 2.64  14 2.64   7 2.64   9 2.67  44 2.67  25 2.68  17 2.69  75 2.71
                            18 2.74
  16  0.124  0.709  0.424-   5 2.64  33 2.64  12 2.65  25 2.67   4 2.68  14 2.71   6 2.72  30 2.80
                             2 2.86
  17  0.626  0.210  0.421-   4 2.64   9 2.66  25 2.67  11 2.67  13 2.67  15 2.69  18 2.75  60 2.78
                            19 2.85
  18  0.550  0.375  0.316-  67 2.56  60 2.62  75 2.64  68 2.65  26 2.66  44 2.67  30 2.73  15 2.74
                            19 2.75  17 2.75   3 2.84  25 2.87
  19  0.536  0.124  0.314-  80 2.55  68 2.58  43 2.58  59 2.60   1 2.66  61 2.66   3 2.73  18 2.75
                            60 2.78  13 2.81  11 2.82  17 2.85
  20  0.549  0.122  0.042-  37 2.55  57 2.55  48 2.57  62 2.66  63 2.70  34 2.71  45 2.73  47 2.74
                            56 2.74
  21  0.120  0.460  0.128-  40 2.52  36 2.53  47 2.53  42 2.59  69 2.62  64 2.63  70 2.66  50 2.67
                            31 2.70  58 2.71  57 2.74  74 2.75
  22  0.046  0.134  0.314-  65 2.53  55 2.54  77 2.57  43 2.60  39 2.62  75 2.65   2 2.70  60 2.71
                            52 2.74  10 2.76   9 2.79   6 2.89  31 3.41
  23  0.042  0.131  0.034-  70 2.57  40 2.60  41 2.61  45 2.64  62 2.65  76 2.65  24 2.69  35 2.76
                            53 2.81
  24  0.131  0.958  0.132-  79 2.52  77 2.54  35 2.57  53 2.58  55 2.59  70 2.64  38 2.66  58 2.66
                            73 2.67  23 2.69  66 2.73  41 2.75
  25  0.376  0.460  0.424-  17 2.67  16 2.67  14 2.67  13 2.67  15 2.68   5 2.68  30 2.82   3 2.83
                            18 2.87
  26  0.456  0.545  0.219-  73 2.50  51 2.54  74 2.55  79 2.62  64 2.65  30 2.65  18 2.66  78 2.69
                            68 2.69  32 2.70  44 2.75  67 2.76
  27  0.625  0.710  0.422-  15 2.64  14 2.64   8 2.65  11 2.66  12 2.67   7 2.67  44 2.69  61 2.77
                            29 2.78
  28  0.958  0.788  0.221-  58 2.55  50 2.58  66 2.58  42 2.61   1 2.62  49 2.63  64 2.65   2 2.67
                            33 2.70  59 2.74  79 2.80  77 2.81
  29  0.797  0.622  0.319-  42 2.55  39 2.56  75 2.60  32 2.62  33 2.67  49 2.68  44 2.68   1 2.69
                            61 2.70   7 2.78  27 2.78  12 2.81
  30  0.295  0.631  0.318-  79 2.56  52 2.61  44 2.63  64 2.63  26 2.65   2 2.66  33 2.70  18 2.73
                             3 2.74  16 2.80  25 2.82  14 2.82
  31  0.203  0.280  0.225-  70 2.51  55 2.58  43 2.58  65 2.59  57 2.60   3 2.64  39 2.66  21 2.70
                            80 2.73  42 2.73  68 2.79  64 2.83  22 3.41
  32  0.707  0.549  0.221-  54 2.54  69 2.56  51 2.58  49 2.60  29 2.62  42 2.63  78 2.64  65 2.65
                            44 2.68  75 2.69  26 2.70  67 2.72
  33  0.043  0.630  0.324-   3 2.60  16 2.64  39 2.66  29 2.67   1 2.68  30 2.70  64 2.70   2 2.70
                            28 2.70  12 2.71   5 2.72  42 2.73
  34  0.796  0.862  0.044-  50 2.39  66 2.51  48 2.52  36 2.55  71 2.58  63 2.62  20 2.71  62 2.79
                            35 2.80
  35  0.057  0.865  0.039-  58 2.54  72 2.55  36 2.56  24 2.57  66 2.62  53 2.68  23 2.76  62 2.76
                            34 2.80
  36  0.044  0.632  0.039-  21 2.53  34 2.55  35 2.56  58 2.58  50 2.59  47 2.67  72 2.69  71 2.74
                            40 2.76
  37  0.628  0.224  0.129-  51 2.51  56 2.52  67 2.52  74 2.53  20 2.55  68 2.55  41 2.57  59 2.57
                            62 2.59  66 2.69  57 2.76  48 2.95
  38  0.383  0.954  0.131-  53 2.46  45 2.47  80 2.48  78 2.53  73 2.56  63 2.56  48 2.56  55 2.57
                            54 2.58  57 2.65  24 2.66  70 2.70
  39  0.038  0.383  0.324-  29 2.56   3 2.59  75 2.61  22 2.62  10 2.65  42 2.65  31 2.66  33 2.66
                             7 2.68   5 2.72  65 2.74  43 2.82
  40  0.028  0.381  0.039-  69 2.42  21 2.52  71 2.54  76 2.54  70 2.56  23 2.60  36 2.76  45 2.84
                            47 2.85
  41  0.872  0.215  0.129-  76 2.45  67 2.53  65 2.53  77 2.54  37 2.57  62 2.57  69 2.59  23 2.61
                            51 2.61  70 2.68  66 2.68  24 2.75
  42  0.956  0.544  0.224-  50 2.55  29 2.55  21 2.59  69 2.60  28 2.61  32 2.63  49 2.65  39 2.65
                            65 2.66  64 2.69  31 2.73  33 2.73
  43  0.299  0.115  0.320-  55 2.52  52 2.58   8 2.58  31 2.58  19 2.58  61 2.59  22 2.60  80 2.63
                            10 2.73   3 2.74  13 2.76  39 2.82
  44  0.542  0.629  0.321-  61 2.59  52 2.59  78 2.63  30 2.63  15 2.67  18 2.67  29 2.68  32 2.68
                            75 2.68  27 2.69  26 2.75  14 2.78
  45  0.296  0.116  0.041-  38 2.47  70 2.49  57 2.57  53 2.58  23 2.64  63 2.65  20 2.73  47 2.83
                            40 2.84
  46  0.549  0.625  0.045-  51 2.38  73 2.39  54 2.41  71 2.57  53 2.59  63 2.60  76 2.62  56 2.63
                            72 2.66
  47  0.294  0.382  0.040-  74 2.41  21 2.53  57 2.64  72 2.65  56 2.66  36 2.67  20 2.74  45 2.83
                            40 2.85
  48  0.626  0.948  0.133-  49 2.40  80 2.48  54 2.48  34 2.52  63 2.56  59 2.56  38 2.56  20 2.57
                            50 2.58  57 2.68  66 2.72  37 2.95
  49  0.709  0.793  0.220-  48 2.40  50 2.46  54 2.49  80 2.57  32 2.60   1 2.61  61 2.62  28 2.63
                            78 2.64  42 2.65  29 2.68  59 2.73
  50  0.865  0.704  0.130-  34 2.39  71 2.42  49 2.46  54 2.49  42 2.55  48 2.58  69 2.58  28 2.58
                            36 2.59  21 2.67  66 2.81  58 2.90
  51  0.627  0.460  0.128-  46 2.38  76 2.44  56 2.51  37 2.51  26 2.54  32 2.58  41 2.61  67 2.63
                            73 2.63  69 2.64  74 2.65  54 2.72
  52  0.300  0.873  0.318-  55 2.45  78 2.52  79 2.53  61 2.56  43 2.58  44 2.59  30 2.61   8 2.67
                             2 2.68  22 2.74  14 2.84   6 2.85
  53  0.307  0.869  0.042-  73 2.42  38 2.46  63 2.57  24 2.58  45 2.58  46 2.59  72 2.61  35 2.68
                            23 2.81
  54  0.627  0.715  0.129-  46 2.41  71 2.46  63 2.48  48 2.48  50 2.49  49 2.49  32 2.54  38 2.58
                            73 2.58  78 2.61  69 2.70  51 2.72
  55  0.227  0.027  0.227-  52 2.45  78 2.47  79 2.51  43 2.52  80 2.54  22 2.54  38 2.57  31 2.58
                            24 2.59  70 2.72  77 2.75  65 2.90
  56  0.544  0.381  0.036-  74 2.50  51 2.51  37 2.52  76 2.61  46 2.63  72 2.64  47 2.66  62 2.72
                            20 2.74
  57  0.379  0.204  0.133-  68 2.47  80 2.54  20 2.55  45 2.57  31 2.60  47 2.64  38 2.65  74 2.66
                            70 2.66  48 2.68  21 2.74  37 2.76
  58  0.137  0.705  0.133-  72 2.46  64 2.51  35 2.54  28 2.55  79 2.57  36 2.58  74 2.66  24 2.66
                            73 2.70  21 2.71  50 2.90
  59  0.706  0.050  0.220-  66 2.51  48 2.56  37 2.57  19 2.60  67 2.61  68 2.61  60 2.62   1 2.65
                            77 2.69  80 2.71  49 2.73  28 2.74
  60  0.795  0.128  0.316-  67 2.52  77 2.56  59 2.62  18 2.62   2 2.65  75 2.67   1 2.70   9 2.70
                            22 2.71  17 2.78   4 2.78  19 2.78
  61  0.541  0.872  0.316-  78 2.48  80 2.52  52 2.56  44 2.59  43 2.59  49 2.62  19 2.66   1 2.67
                             8 2.69  29 2.70  27 2.77  11 2.83
  62  0.797  0.123  0.036-  66 2.53  41 2.57  37 2.59  23 2.65  20 2.66  76 2.68  56 2.72  35 2.76
                            34 2.79
  63  0.546  0.870  0.037-  54 2.48  38 2.56  48 2.56  53 2.57  46 2.60  34 2.62  71 2.63  45 2.65
                            20 2.70
  64  0.210  0.542  0.224-  58 2.51   3 2.56  21 2.63  30 2.63  26 2.65  28 2.65  74 2.66  68 2.66
                            42 2.69  33 2.70  79 2.75  31 2.83
  65  0.952  0.297  0.222-  69 2.52  41 2.53  22 2.53  67 2.55  77 2.59  31 2.59  75 2.60  70 2.60
                            32 2.65  42 2.66  39 2.74  55 2.90
  66  0.872  0.964  0.130-  34 2.51  59 2.51  62 2.53  77 2.58  28 2.58  35 2.62  41 2.68  37 2.69
                            48 2.72  24 2.73  50 2.81
  67  0.717  0.289  0.224-  37 2.52  60 2.52  41 2.53  77 2.55  65 2.55  18 2.56  59 2.61  75 2.63
                            51 2.63  32 2.72  68 2.74  26 2.76
  68  0.459  0.291  0.221-  57 2.47  74 2.54  37 2.55  19 2.58  59 2.61  18 2.65  64 2.66  26 2.69
                             3 2.70  67 2.74  80 2.77  31 2.79
  69  0.875  0.457  0.129-  40 2.42  71 2.45  76 2.46  65 2.52  32 2.56  50 2.58  41 2.59  42 2.60
                            21 2.62  51 2.64  70 2.68  54 2.70
  70  0.128  0.206  0.129-  45 2.49  31 2.51  40 2.56  23 2.57  65 2.60  24 2.64  21 2.66  57 2.66
                            41 2.68  69 2.68  38 2.70  55 2.72
  71  0.792  0.622  0.041-  50 2.42  69 2.45  54 2.46  40 2.54  46 2.57  34 2.58  76 2.61  63 2.63
                            36 2.74
  72  0.298  0.629  0.044-  74 2.46  58 2.46  73 2.47  35 2.55  53 2.61  56 2.64  47 2.65  46 2.66
                            36 2.69
  73  0.386  0.713  0.130-  46 2.39  53 2.42  72 2.47  26 2.50  78 2.55  38 2.56  54 2.58  79 2.62
                            51 2.63  24 2.67  58 2.70  74 2.80
  74  0.382  0.451  0.127-  47 2.41  72 2.46  56 2.50  37 2.53  68 2.54  26 2.55  51 2.65  57 2.66
                            58 2.66  64 2.66  21 2.75  73 2.80
  75  0.796  0.379  0.320-  65 2.60  29 2.60  39 2.61  67 2.63  18 2.64  22 2.65   9 2.67  60 2.67
                            44 2.68  32 2.69  15 2.71   7 2.74
  76  0.791  0.377  0.041-  51 2.44  41 2.45  69 2.46  40 2.54  56 2.61  71 2.61  46 2.62  23 2.65
                            62 2.68
  77  0.958  0.052  0.222-  24 2.54  41 2.54  67 2.55  60 2.56  22 2.57  66 2.58  65 2.59   2 2.60
                            59 2.69  79 2.74  55 2.75  28 2.81
  78  0.460  0.796  0.225-  55 2.47  61 2.48  80 2.51  52 2.52  38 2.53  73 2.55  79 2.59  54 2.61
                            44 2.63  32 2.64  49 2.64  26 2.69
  79  0.216  0.796  0.225-  55 2.51  24 2.52  52 2.53   2 2.55  30 2.56  58 2.57  78 2.59  73 2.62
                            26 2.62  77 2.74  64 2.75  28 2.80
  80  0.464  0.029  0.222-  48 2.48  38 2.48  78 2.51  61 2.52  57 2.54  55 2.54  19 2.55  49 2.57
                            43 2.63  59 2.71  31 2.73  68 2.77
  81  0.254  0.855  0.476-   6 1.71  14 1.80
 
  LATTYP: Found a hexagonal cell.
 ALAT       =    10.6599998474
 C/A-ratio  =     2.0637898982
  
  Lattice vectors:
  
 A1 = (   5.3299999237,  -9.2318306722,   0.0000000000)
 A2 = ( -10.6599998474,   0.0000000000,   0.0000000000)
 A3 = (   0.0000000000,   0.0000000000, -22.0000000000)


Analysis of symmetry for initial positions (statically):
=====================================================================
 Subroutine PRICEL returns:
 Original cell was already a primitive cell.
 

 Routine SETGRP: Setting up the symmetry group for a 
 hexagonal supercell.


 Subroutine GETGRP returns: Found  1 space group operations
 (whereof  1 operations were pure point group operations)
 out of a pool of 24 trial point group operations.


The static configuration has the point symmetry C_1 .


Analysis of symmetry for dynamics (positions and initial velocities):
=====================================================================
 Subroutine PRICEL returns:
 Original cell was already a primitive cell.
 

 Routine SETGRP: Setting up the symmetry group for a 
 hexagonal supercell.


 Subroutine GETGRP returns: Found  1 space group operations
 (whereof  1 operations were pure point group operations)
 out of a pool of 24 trial point group operations.


The dynamic configuration has the point symmetry C_1 .


Analysis of constrained symmetry for selective dynamics:
=====================================================================
 Subroutine PRICEL returns:
 Original cell was already a primitive cell.
 

 Routine SETGRP: Setting up the symmetry group for a 
 hexagonal supercell.


 Subroutine GETGRP returns: Found  1 space group operations
 (whereof  1 operations were pure point group operations)
 out of a pool of 24 trial point group operations.


The constrained configuration has the point symmetry C_1 .


Analysis of structural, dynamic, and magnetic symmetry:
=====================================================================
 Subroutine PRICEL returns:
 Original cell was already a primitive cell.
 

 Routine SETGRP: Setting up the symmetry group for a 
 hexagonal supercell.


 Subroutine GETGRP returns: Found  1 space group operations
 (whereof  1 operations were pure point group operations)
 out of a pool of 24 trial point group operations.


The magnetic configuration has the point symmetry C_1 .


 Subroutine INISYM returns: Found  1 space group operations
 (whereof  1 operations are pure point group operations),
 and found     1 'primitive' translations

 
 
 KPOINTS: mesh auto                               

Automatic generation of k-mesh.
Space group operators:
 irot       det(A)        alpha          n_x          n_y          n_z        tau_x        tau_y        tau_z
    1     1.000000     0.000000     1.000000     0.000000     0.000000     0.000000     0.000000     0.000000
 
 Subroutine IBZKPT returns following result:
 ===========================================
 
 Found      4 irreducible k-points:
 
 Following reciprocal coordinates:
            Coordinates               Weight
  0.000000  0.000000  0.000000      1.000000
  0.500000 -0.000000  0.000000      1.000000
  0.000000  0.500000  0.000000      1.000000
  0.500000  0.500000  0.000000      1.000000
 
 Following cartesian coordinates:
            Coordinates               Weight
  0.000000  0.000000  0.000000      1.000000
  0.046904 -0.027080  0.000000      1.000000
  0.000000  0.054160  0.000000      1.000000
  0.046904  0.027080  0.000000      1.000000
 
 TETIRR: Found     12 inequivalent tetrahedra from       24
 
 Subroutine IBZKPT_HF returns following result:
 ==============================================
 
 Found      4 k-points in 1st BZ
 the following      4 k-points will be used (e.g. in the exchange kernel)
 Following reciprocal coordinates:   # in IRBZ
  0.000000  0.000000  0.000000    0.25000000   1 t-inv F
  0.500000 -0.000000  0.000000    0.25000000   2 t-inv F
  0.000000  0.500000  0.000000    0.25000000   3 t-inv F
  0.500000  0.500000  0.000000    0.25000000   4 t-inv F


--------------------------------------------------------------------------------------------------------




 Dimension of arrays:
   k-points           NKPTS =      4   k-points in BZ     NKDIM =      4   number of bands    NBANDS=    624
   number of dos      NEDOS =    301   number of ions     NIONS =     81
   non local maximal  LDIM  =      6   non local SUM 2l+1 LMDIM =     18
   total plane-waves  NPLWV = ******
   max r-space proj   IRMAX =   7657   max aug-charges    IRDMAX=  33358
   dimension x,y,z NGX =    84 NGY =   84 NGZ =  168
   dimension x,y,z NGXF=   168 NGYF=  168 NGZF=  336
   support grid    NGXF=   168 NGYF=  168 NGZF=  336
   ions per type =              32  13  10  13  12   1
   NGX,Y,Z   is equivalent  to a cutoff of  13.10, 13.10, 12.70 a.u.
   NGXF,Y,Z  is equivalent  to a cutoff of  26.20, 26.20, 25.39 a.u.

 SYSTEM =  Pt111                                   
 POSCAR =  10.66                                   

 Startparameter for this run:
   NWRITE =      2    write-flag & timer
   PREC   = accura    normal or accurate (medium, high low for compatibility)
   ISTART =      0    job   : 0-new  1-cont  2-samecut
   ICHARG =      2    charge: 1-file 2-atom 10-const
   ISPIN  =      2    spin polarized calculation?
   LNONCOLLINEAR =      F non collinear calculations
   LSORBIT =      F    spin-orbit coupling
   INIWAV =      1    electr: 0-lowe 1-rand  2-diag
   LASPH  =      F    aspherical Exc in radial PAW
   METAGGA=      F    non-selfconsistent MetaGGA calc.

 Electronic Relaxation 1
   ENCUT  =  550.0 eV  40.42 Ry    6.36 a.u.  20.38 20.38 42.07*2*pi/ulx,y,z
   ENINI  =  550.0     initial cutoff
   ENAUG  =  587.0 eV  augmentation charge cutoff
   NELM   =    200;   NELMIN=  2; NELMDL= -5     # of ELM steps 
   EDIFF  = 0.1E-04   stopping-criterion for ELM
   LREAL  =      T    real-space projection
   NLSPLINE    = F    spline interpolate recip. space projectors
   LCOMPAT=      F    compatible to vasp.4.4
   GGA_COMPAT  = T    GGA compatible to vasp.4.4-vasp.4.6
   LMAXPAW     = -100 max onsite density
   LMAXMIX     =    2 max onsite mixed and CHGCAR
   VOSKOWN=      0    Vosko Wilk Nusair interpolation
   ROPT   =   -0.00025  -0.00025  -0.00025  -0.00025
   ROPT   =   -0.00025  -0.00025
 Ionic relaxation
   EDIFFG = -.5E-01   stopping-criterion for IOM
   NSW    =   1009    number of steps for IOM
   NBLOCK =      1;   KBLOCK =   1009    inner block; outer block 
   IBRION =      5    ionic relax: 0-MD 1-quasi-New 2-CG
   NFREE  =      2    steps in history (QN), initial steepest desc. (CG)
   ISIF   =      2    stress and relaxation
   IWAVPR =     11    prediction:  0-non 1-charg 2-wave 3-comb
   ISYM   =      2    0-nonsym 1-usesym 2-fastsym
   LCORR  =      T    Harris-Foulkes like correction to forces

   POTIM  = 0.5000    time-step for ionic-motion
   TEIN   =    0.0    initial temperature
   TEBEG  =    0.0;   TEEND  =   0.0 temperature during run
   SMASS  =  -3.00    Nose mass-parameter (am)
   estimated Nose-frequenzy (Omega)   =  0.10E-29 period in steps =****** mass=  -0.260E-26a.u.
   SCALEE = 1.0000    scale energy and forces
   NPACO  =    256;   APACO  = 16.0  distance and # of slots for P.C.
   PSTRESS=    0.0 pullay stress

  Mass of Ions in am
   POMASS = 195.08 55.85 58.93 63.55 58.69  1.00
  Ionic Valenz
   ZVAL   =  10.00  8.00  9.00 11.00 10.00  1.00
  Atomic Wigner-Seitz radii
   RWIGS  =  -1.00 -1.00 -1.00 -1.00 -1.00 -1.00
  virtual crystal weights 
   VCA    =   1.00  1.00  1.00  1.00  1.00  1.00
   NELECT =     778.0000    total number of electrons
   NUPDOWN=      -1.0000    fix difference up-down

 DOS related values:
   EMIN   =  10.00;   EMAX   =-10.00  energy-range for DOS
   EFERMI =   0.00
   ISMEAR =    -5;   SIGMA  =   0.10  broadening in eV -4-tet -1-fermi 0-gaus

 Electronic relaxation 2 (details)
   IALGO  =     68    algorithm
   LDIAG  =      T    sub-space diagonalisation (order eigenvalues)
   LSUBROT=      F    optimize rotation matrix (better conditioning)
   TURBO    =      0    0=normal 1=particle mesh
   IRESTART =      0    0=no restart 2=restart with 2 vectors
   NREBOOT  =      0    no. of reboots
   NMIN     =      0    reboot dimension
   EREF     =   0.00    reference energy to select bands
   IMIX   =      4    mixing-type and parameters
     AMIX     =   0.40;   BMIX     =  1.00
     AMIX_MAG =   1.60;   BMIX_MAG =  1.00
     AMIN     =   0.10
     WC   =   100.;   INIMIX=   1;  MIXPRE=   1;  MAXMIX= -45

 Intra band minimization:
   WEIMIN = 0.0010     energy-eigenvalue tresh-hold
   EBREAK =  0.40E-08  absolut break condition
   DEPER  =   0.30     relativ break condition  

   TIME   =   0.40     timestep for ELM

  volume/ion in A,a.u.               =      26.73       180.38
  Fermi-wavevector in a.u.,A,eV,Ry     =   1.163891  2.199434 18.431011  1.354641
  Thomas-Fermi vector in A             =   2.300435
 
 Write flags
   LWAVE        =      F    write WAVECAR
   LDOWNSAMPLE  =      F    k-point downsampling of WAVECAR
   LCHARG       =      F    write CHGCAR
   LVTOT        =      F    write LOCPOT, total local potential
   LVHAR        =      F    write LOCPOT, Hartree potential only
   LELF         =      F    write electronic localiz. function (ELF)
   LORBIT       =      0    0 simple, 1 ext, 2 COOP (PROOUT), +10 PAW based schemes


 Dipole corrections
   LMONO  =      F    monopole corrections only (constant potential shift)
   LDIPOL =      F    correct potential (dipole corrections)
   IDIPOL =      0    1-x, 2-y, 3-z, 4-all directions 
   EPSILON=  1.0000000 bulk dielectric constant

 Exchange correlation treatment:
   GGA     =    --    GGA type
   LEXCH   =     8    internal setting for exchange type
   VOSKOWN=      0    Vosko Wilk Nusair interpolation
   LHFCALC =     F    Hartree Fock is set to
   LHFONE  =     F    Hartree Fock one center treatment
   AEXX    =    0.0000 exact exchange contribution

 Linear response parameters
   LEPSILON=     F    determine dielectric tensor
   LRPA    =     F    only Hartree local field effects (RPA)
   LNABLA  =     F    use nabla operator in PAW spheres
   LVEL    =     F    velocity operator in full k-point grid
   LINTERFAST=   F  fast interpolation
   KINTER  =     0    interpolate to denser k-point grid
   CSHIFT  =0.1000    complex shift for real part using Kramers Kronig
   OMEGAMAX=  -1.0    maximum frequency
   DEG_THRESHOLD= 0.2000000E-02 threshold for treating states as degnerate
   RTIME   =   -0.100 relaxation time in fs
  (WPLASMAI=    0.000 imaginary part of plasma frequency in eV, 0.658/RTIME)
   DFIELD  = 0.0000000 0.0000000 0.0000000 field for delta impulse in time
 
 Orbital magnetization related:
   ORBITALMAG=     F  switch on orbital magnetization
   LCHIMAG   =     F  perturbation theory with respect to B field
   DQ        =  0.001000  dq finite difference perturbation B field
   LLRAUG    =     F  two centre corrections for induced B field



--------------------------------------------------------------------------------------------------------


 finite differences
   using selective dynamics as specified on POSCAR
   WARNING: If single coordinates had been selected the selection of coordinates
            is made according to the corresponding   d i r e c t   coordinates!
            Don't support selection of single cartesian coordinates -- sorry ...
  !
 charge density and potential will be updated during run
 spin polarized calculation
 RMM-DIIS sequential band-by-band and
  variant of blocked Davidson during initial phase
 perform sub-space diagonalisation
    before iterative eigenvector-optimisation
 modified Broyden-mixing scheme, WC =      100.0
 initial mixing is a Kerker type mixing with AMIX =  0.4000 and BMIX =      1.0000
 Hartree-type preconditioning will be used
 using additional bands          235
 real space projection scheme for non local part
 use partial core corrections
 calculate Harris-corrections to forces 
   (improved forces if not selfconsistent)
 use gradient corrections 
 use of overlap-Matrix (Vanderbilt PP)
 Fermi weights with tetrahedron method with Bloechl corrections


--------------------------------------------------------------------------------------------------------


  energy-cutoff  :      550.00
  volume of cell :     2165.05
      direct lattice vectors                 reciprocal lattice vectors
    10.659999847  0.000000000  0.000000000     0.093808632 -0.054160439  0.000000000
     5.329999924  9.231830672  0.000000000     0.000000000  0.108320878  0.000000000
     0.000000000  0.000000000 22.000000000     0.000000000  0.000000000  0.045454545

  length of vectors
    10.659999847 10.659999847 22.000000000     0.108320878  0.108320878  0.045454545


 
 k-points in units of 2pi/SCALE and weight: mesh auto                               
   0.00000000  0.00000000  0.00000000       0.250
   0.04690432 -0.02708022  0.00000000       0.250
   0.00000000  0.05416044  0.00000000       0.250
   0.04690432  0.02708022  0.00000000       0.250
 
 k-points in reciprocal lattice and weights: mesh auto                               
   0.00000000  0.00000000  0.00000000       0.250
   0.50000000 -0.00000000  0.00000000       0.250
   0.00000000  0.50000000  0.00000000       0.250
   0.50000000  0.50000000  0.00000000       0.250
 
 position of ions in fractional coordinates (direct lattice) 
   0.78875638  0.87823429  0.31668568
   0.04528202  0.88100279  0.31586303
   0.28120564  0.38060619  0.31835224
   0.87442200  0.96269089  0.42200920
   0.12295916  0.46226736  0.42628972
   0.12442817  0.96383957  0.42471541
   0.87550585  0.45903563  0.42475847
   0.37803061  0.96052508  0.41732349
   0.87508525  0.21085183  0.41868726
   0.12669244  0.21267080  0.42064207
   0.62651523  0.95946861  0.42237464
   0.87509301  0.71057871  0.42524913
   0.37560458  0.20918048  0.42304497
   0.37823716  0.70922465  0.42737866
   0.62615972  0.46208005  0.42055807
   0.12391787  0.70918466  0.42376760
   0.62595691  0.21017221  0.42077431
   0.55016646  0.37453324  0.31641245
   0.53646495  0.12385788  0.31441594
   0.54860226  0.12207837  0.04171946
   0.12037701  0.45967589  0.12832010
   0.04646214  0.13367246  0.31434225
   0.04184264  0.13051489  0.03430237
   0.13087669  0.95764103  0.13245935
   0.37581861  0.45979826  0.42449226
   0.45643342  0.54527020  0.21884161
   0.62518928  0.71017892  0.42226367
   0.95801762  0.78783178  0.22092894
   0.79716898  0.62177515  0.31863439
   0.29486215  0.63096609  0.31846273
   0.20284781  0.27963144  0.22520819
   0.70728500  0.54925491  0.22113798
   0.04279637  0.62988451  0.32439512
   0.79601056  0.86182010  0.04358326
   0.05654378  0.86511100  0.03922008
   0.04354811  0.63172365  0.03890931
   0.62768151  0.22351632  0.12936912
   0.38251648  0.95408414  0.13073287
   0.03796308  0.38253749  0.32365542
   0.02789537  0.38111357  0.03922688
   0.87238548  0.21524336  0.12909491
   0.95623594  0.54374794  0.22376064
   0.29898239  0.11519329  0.31986440
   0.54232616  0.62884019  0.32149526
   0.29593874  0.11566849  0.04109769
   0.54915757  0.62535345  0.04512996
   0.29444361  0.38188257  0.03954700
   0.62577798  0.94799811  0.13283874
   0.70885983  0.79274789  0.22029730
   0.86523064  0.70443471  0.12965162
   0.62674088  0.45978399  0.12791088
   0.30028104  0.87294879  0.31802335
   0.30656831  0.86859519  0.04153612
   0.62656079  0.71505450  0.12903147
   0.22682305  0.02660769  0.22747048
   0.54425403  0.38139876  0.03593963
   0.37883082  0.20414358  0.13341050
   0.13702030  0.70469682  0.13275664
   0.70646649  0.04984472  0.22038410
   0.79530288  0.12831751  0.31640330
   0.54122752  0.87164575  0.31615849
   0.79690904  0.12300803  0.03589815
   0.54639677  0.86991640  0.03703501
   0.20958855  0.54192796  0.22379136
   0.95235184  0.29660741  0.22187019
   0.87203635  0.96412677  0.12966428
   0.71714527  0.28897758  0.22359669
   0.45864751  0.29146648  0.22087678
   0.87549525  0.45703326  0.12894021
   0.12808024  0.20618715  0.12934578
   0.79201094  0.62176511  0.04149761
   0.29752238  0.62870438  0.04356032
   0.38614974  0.71252577  0.12966825
   0.38234618  0.45146388  0.12688447
   0.79571003  0.37854440  0.31999935
   0.79142063  0.37689392  0.04093851
   0.95757990  0.05150493  0.22197578
   0.45971574  0.79585001  0.22481494
   0.21630755  0.79631078  0.22490491
   0.46356922  0.02936236  0.22247892
   0.25415169  0.85466837  0.47609723
 
 position of ions in cartesian coordinates  (Angst):
  13.08913162  8.10771028  6.96708499
   5.17845116  8.13326857  6.94898672
   5.02628306  3.51369185  7.00374929
  14.45248078  8.88739928  9.28420247
   3.77462963  4.26757397  9.37837374
   6.46366908  8.89800367  9.34373892
  11.77955208  4.23773919  9.34468626
   9.14940481  8.86740488  9.18111674
  10.45224887  1.94654838  9.21111978
   2.48407676  1.96334081  9.25412544
  11.79261990  8.85765179  9.29224212
  13.11587577  6.55994232  9.35548081
   5.11887671  1.93111875  9.30698926
   7.81217545  6.54744191  9.40233060
   9.13774911  4.26584476  9.25227765
   5.10091863  6.54707266  9.32288709
   7.79291840  1.94027427  9.25703485
   7.86103655  3.45762743  6.96107398
   6.37887877  1.14343501  6.91715058
   6.49877769  1.12700682  0.91782815
   3.73329140  4.24365001  2.82304227
   1.20776062  1.23404156  6.91552944
   1.14168689  1.20489139  0.75465211
   6.49937211  8.84077982  2.91410569
   6.45695103  4.24477972  9.33882978
   7.77187033  5.03384220  4.81451543
  10.44977125  6.55625151  9.28980072
  14.41161104  7.27312961  4.86043657
  11.81188270  5.74012287  7.00995657
   6.50627966  5.82497214  7.00618013
   3.65279321  2.58151015  4.95458028
  10.46718662  5.07062833  4.86503553
   3.81349373  5.81498718  7.13669266
  13.07897347  7.95617723  0.95883175
   5.21379828  7.98655826  0.86284167
   3.83130979  5.83196573  0.85600479
   7.88242681  2.06346482  2.84612068
   9.16289403  8.80794326  2.87612304
   2.44361123  3.53152136  7.12041924
   2.32869997  3.51837592  0.86299137
  10.44687620  1.98709023  2.84008810
  13.09165143  5.01978893  4.92273404
   3.80113243  1.06344492  7.03701679
   9.13291497  5.80534614  7.07289567
   3.77121995  1.06783187  0.90414915
   9.18715339  5.77315714  0.99285907
   5.17420286  3.52547522  0.87003394
  11.72362308  8.75175804  2.92245229
  11.78179184  7.31851425  4.84654063
  12.97799537  6.50322193  2.85233561
   9.13170631  4.24464793  2.81403934
   7.85381283  8.05891542  6.99651378
   7.89763048  8.01872375  0.91379463
  10.49037833  6.60126203  2.83869239
   2.55975272  0.24563770  5.00435048
   7.83460323  3.52100880  0.79067188
   5.12642169  1.88461893  2.93503107
   5.21667036  6.50564171  2.92064609
   7.79660504  0.46015799  4.84845020
   9.16186086  1.18460552  6.96087266
  10.41535702  8.04688598  6.95548675
   9.15068307  1.13558928  0.78975929
  10.46124387  8.03092093  0.81477030
   5.12268985  5.00298713  4.92341000
  11.73298794  2.73822940  4.88114420
  14.43470298  8.90065509  2.85261421
   9.18501900  2.66779213  4.91912723
   6.44269869  2.69076921  4.85928922
  11.76876646  4.21925362  2.83668457
   2.46431279  1.90348482  2.84560726
  11.75684446  5.74003023  0.91294740
   6.52258279  5.80409234  0.95832694
   7.91411848  6.57791728  2.85270146
   6.48211261  4.16783809  2.79145838
  10.49991040  3.49465779  7.03998580
  10.44538833  3.47942085  0.90064720
  10.48232283  0.47548478  4.88346718
   9.14245023  7.34715254  4.94592861
   6.55017487  7.35140632  4.94790810
   5.09814918  0.27106838  4.89453618
   7.26463935  7.89015367 10.47413897
 


--------------------------------------------------------------------------------------------------------


 k-point  1 :   0.0000 0.0000 0.0000  plane waves:   63475
 k-point  2 :   0.5000-0.0000 0.0000  plane waves:   63428
 k-point  3 :   0.0000 0.5000 0.0000  plane waves:   63428
 k-point  4 :   0.5000 0.5000 0.0000  plane waves:   63428

 maximum and minimum number of plane-waves per node :     63475    63428

 maximum number of plane-waves:     63475
 maximum index in each direction: 
   IXMAX=   20   IYMAX=   20   IZMAX=   42
   IXMIN=  -20   IYMIN=  -20   IZMIN=  -42


 serial   3D FFT for wavefunctions
 parallel 3D FFT for charge:
    minimum data exchange during FFTs selected (reduces bandwidth)


 total amount of memory used by VASP MPI-rank0   369863. kBytes
=======================================================================

   base      :      30000. kBytes
   nonlr-proj:      96560. kBytes
   fftplans  :      12162. kBytes
   grid      :     120476. kBytes
   one-center:       2519. kBytes
   wavefun   :     108146. kBytes
 
     INWAV:  cpu time    0.0000: real time    0.0000
 Broyden mixing: mesh for mixing (old mesh)
   NGX = 41   NGY = 41   NGZ = 85
  (NGX  =168   NGY  =168   NGZ  =336)
  gives a total of 142885 points

 initial charge density was supplied:
 charge density of overlapping atoms calculated
 number of electron     778.0000000 magnetization     231.0000000
 keeping initial charge density in first step


--------------------------------------------------------------------------------------------------------


 Maximum index for non-local projection operator         7412
 Maximum index for augmentation-charges         1427 (set IRDMAX)


--------------------------------------------------------------------------------------------------------


 First call to EWALD:  gamma=   0.137
 Maximum number of real-space cells 4x 4x 2
 Maximum number of reciprocal cells 2x 2x 4

    FEWALD:  cpu time    0.0046: real time    0.0046


--------------------------------------- Iteration      1(   1)  ---------------------------------------


    POTLOK:  cpu time    0.4589: real time    0.4616
    SETDIJ:  cpu time    0.0319: real time    0.0319
     EDDAV:  cpu time   60.4853: real time   60.6626
 BZINTS: Fermi energy: 17.510543;778.000000 electrons
         Band energy:7819.446169;  BLOECHL correction: -0.024103
       DOS:  cpu time    0.0231: real time    0.0233
    --------------------------------------------
      LOOP:  cpu time   60.9992: real time   61.1795

 eigenvalue-minimisations  :  9984
 total energy-change (2. order) : 0.7573676E+04  (-0.3345412E+05)
 number of electron     778.0000000 magnetization     231.0000000
 augmentation part      778.0000000 magnetization     231.0000000

 Free energy of the ion-electron system (eV)
  ---------------------------------------------------
  alpha Z        PSCENC =      2197.15539535
  Ewald energy   TEWEN  =    222631.92469702
  -Hartree energ DENC   =   -294776.10065553
  -exchange      EXHF   =         0.00000000
  -V(xc)+E(xc)   XCENC  =      1384.50450212
  PAW double counting   =     64136.80006862   -66038.70876209
  entropy T*S    EENTRO =         0.00000000
  eigenvalues    EBANDS =      7819.44616893
  atomic energy  EATOM  =     70218.65458108
  Solvation  Ediel_sol  =         0.00000000
  ---------------------------------------------------
  free energy    TOTEN  =      7573.67599550 eV

  energy without entropy =     7573.67599550  energy(sigma->0) =     7573.67599550


--------------------------------------------------------------------------------------------------------




--------------------------------------- Iteration      1(   2)  ---------------------------------------


     EDDAV:  cpu time   60.7611: real time   60.9694
 BZINTS: Fermi energy:  5.769190;778.000000 electrons
         Band energy: 889.874984;  BLOECHL correction: -0.059005
       DOS:  cpu time    0.0254: real time    0.0257
    --------------------------------------------
      LOOP:  cpu time   60.7866: real time   60.9951

 eigenvalue-minimisations  : 10080
 total energy-change (2. order) :-0.6929571E+04  (-0.6148887E+04)
 number of electron     778.0000000 magnetization     231.0000000
 augmentation part      778.0000000 magnetization     231.0000000

 Free energy of the ion-electron system (eV)
  ---------------------------------------------------
  alpha Z        PSCENC =      2197.15539535
  Ewald energy   TEWEN  =    222631.92469702
  -Hartree energ DENC   =   -294776.10065553
  -exchange      EXHF   =         0.00000000
  -V(xc)+E(xc)   XCENC  =      1384.50450212
  PAW double counting   =     64136.80006862   -66038.70876209
  entropy T*S    EENTRO =         0.00000000
  eigenvalues    EBANDS =       889.87498384
  atomic energy  EATOM  =     70218.65458108
  Solvation  Ediel_sol  =         0.00000000
  ---------------------------------------------------
  free energy    TOTEN  =       644.10481041 eV

  energy without entropy =      644.10481041  energy(sigma->0) =      644.10481041


--------------------------------------------------------------------------------------------------------




--------------------------------------- Iteration      1(   3)  ---------------------------------------


     EDDAV:  cpu time   60.9231: real time   61.0909
 BZINTS: Fermi energy:  3.434803;778.000000 electrons
         Band energy:-182.448689;  BLOECHL correction: -0.020379
       DOS:  cpu time    0.0237: real time    0.0268
    --------------------------------------------
      LOOP:  cpu time   60.9467: real time   61.1178

 eigenvalue-minimisations  : 10176
 total energy-change (2. order) :-0.1072324E+04  (-0.8955333E+03)
 number of electron     778.0000000 magnetization     231.0000000
 augmentation part      778.0000000 magnetization     231.0000000

 Free energy of the ion-electron system (eV)
  ---------------------------------------------------
  alpha Z        PSCENC =      2197.15539535
  Ewald energy   TEWEN  =    222631.92469702
  -Hartree energ DENC   =   -294776.10065553
  -exchange      EXHF   =         0.00000000
  -V(xc)+E(xc)   XCENC  =      1384.50450212
  PAW double counting   =     64136.80006862   -66038.70876209
  entropy T*S    EENTRO =         0.00000000
  eigenvalues    EBANDS =      -182.44868857
  atomic energy  EATOM  =     70218.65458108
  Solvation  Ediel_sol  =         0.00000000
  ---------------------------------------------------
  free energy    TOTEN  =      -428.21886200 eV

  energy without entropy =     -428.21886200  energy(sigma->0) =     -428.21886200


--------------------------------------------------------------------------------------------------------




--------------------------------------- Iteration      1(   4)  ---------------------------------------


     EDDAV:  cpu time   71.1356: real time   71.4445
 BZINTS: Fermi energy:  3.303626;778.000000 electrons
         Band energy:-249.541572;  BLOECHL correction: -0.011102
       DOS:  cpu time    0.0258: real time    0.0264
    --------------------------------------------
      LOOP:  cpu time   71.1614: real time   71.4709

 eigenvalue-minimisations  : 12288
 total energy-change (2. order) :-0.6709288E+02  (-0.6444866E+02)
 number of electron     778.0000000 magnetization     231.0000000
 augmentation part      778.0000000 magnetization     231.0000000

 Free energy of the ion-electron system (eV)
  ---------------------------------------------------
  alpha Z        PSCENC =      2197.15539535
  Ewald energy   TEWEN  =    222631.92469702
  -Hartree energ DENC   =   -294776.10065553
  -exchange      EXHF   =         0.00000000
  -V(xc)+E(xc)   XCENC  =      1384.50450212
  PAW double counting   =     64136.80006862   -66038.70876209
  entropy T*S    EENTRO =         0.00000000
  eigenvalues    EBANDS =      -249.54157213
  atomic energy  EATOM  =     70218.65458108
  Solvation  Ediel_sol  =         0.00000000
  ---------------------------------------------------
  free energy    TOTEN  =      -495.31174556 eV

  energy without entropy =     -495.31174556  energy(sigma->0) =     -495.31174556


--------------------------------------------------------------------------------------------------------




--------------------------------------- Iteration      1(   5)  ---------------------------------------


     EDDAV:  cpu time   70.8905: real time   72.1816
 BZINTS: Fermi energy:  3.299701;778.000000 electrons
         Band energy:-251.713424;  BLOECHL correction: -0.010192
       DOS:  cpu time    0.0237: real time    0.0244
    CHARGE:  cpu time    2.6830: real time    2.6904
    MIXING:  cpu time    0.0100: real time    0.0100
    --------------------------------------------
      LOOP:  cpu time   73.6072: real time   74.9064

 eigenvalue-minimisations  : 12096
 total energy-change (2. order) :-0.2171852E+01  (-0.2167493E+01)
 number of electron     778.0000024 magnetization     216.5569583
 augmentation part      334.9892869 magnetization     184.0690004

 Broyden mixing:
  rms(total) = 0.11732E+02    rms(broyden)= 0.11732E+02
  rms(prec ) = 0.12052E+02
  weight for this iteration     100.00

 Free energy of the ion-electron system (eV)
  ---------------------------------------------------
  alpha Z        PSCENC =      2197.15539535
  Ewald energy   TEWEN  =    222631.92469702
  -Hartree energ DENC   =   -294776.10065553
  -exchange      EXHF   =         0.00000000
  -V(xc)+E(xc)   XCENC  =      1384.50450212
  PAW double counting   =     64136.80006862   -66038.70876209
  entropy T*S    EENTRO =         0.00000000
  eigenvalues    EBANDS =      -251.71342435
  atomic energy  EATOM  =     70218.65458108
  Solvation  Ediel_sol  =         0.00000000
  ---------------------------------------------------
  free energy    TOTEN  =      -497.48359779 eV

  energy without entropy =     -497.48359779  energy(sigma->0) =     -497.48359779


--------------------------------------------------------------------------------------------------------




--------------------------------------- Iteration      1(   6)  ---------------------------------------


    POTLOK:  cpu time    0.4121: real time    0.4409
    SETDIJ:  cpu time    0.0311: real time    0.0313
    EDDIAG:  cpu time   10.0299: real time   10.0748
  RMM-DIIS:  cpu time   37.3716: real time   37.5428
    ORTHCH:  cpu time    1.6899: real time    1.6961
 BZINTS: Fermi energy:  1.561954;778.000000 electrons
         Band energy:***********;  BLOECHL correction: -0.042159
       DOS:  cpu time    0.0289: real time    0.0290
    CHARGE:  cpu time    2.6569: real time    2.6889
    MIXING:  cpu time    0.0110: real time    0.0115
    --------------------------------------------
      LOOP:  cpu time   52.2313: real time   52.5152

 eigenvalue-minimisations  : 10031
 total energy-change (2. order) :-0.1676953E+03  (-0.8426122E+02)
 number of electron     778.0000031 magnetization     212.4949672
 augmentation part      406.4021473 magnetization     179.3799336

 Broyden mixing:
  rms(total) = 0.19722E+02    rms(broyden)= 0.19722E+02
  rms(prec ) = 0.25622E+02
  weight for this iteration     100.00

 eigenvalues of (default mixing * dielectric matrix)
  average eigenvalue GAMMA=   0.2243
  0.2243

 Free energy of the ion-electron system (eV)
  ---------------------------------------------------
  alpha Z        PSCENC =      2197.15539535
  Ewald energy   TEWEN  =    222631.92469702
  -Hartree energ DENC   =   -293157.68078955
  -exchange      EXHF   =         0.00000000
  -V(xc)+E(xc)   XCENC  =      1338.17308519
  PAW double counting   =     68942.63873457   -70633.87090280
  entropy T*S    EENTRO =         0.00000000
  eigenvalues    EBANDS =     -2202.17367069
  atomic energy  EATOM  =     70218.65458108
  Solvation  Ediel_sol  =         0.00000000
  ---------------------------------------------------
  free energy    TOTEN  =      -665.17886983 eV

  energy without entropy =     -665.17886983  energy(sigma->0) =     -665.17886983


--------------------------------------------------------------------------------------------------------




--------------------------------------- Iteration      1(   7)  ---------------------------------------


    POTLOK:  cpu time    0.4135: real time    0.4160
    SETDIJ:  cpu time    0.0314: real time    0.0315
    EDDIAG:  cpu time   10.0407: real time   10.0741
  RMM-DIIS:  cpu time   37.2001: real time   37.3046
    ORTHCH:  cpu time    1.7032: real time    1.7188
 BZINTS: Fermi energy:  2.995491;778.000000 electrons
         Band energy:***********;  BLOECHL correction: -0.008688
       DOS:  cpu time    0.0270: real time    0.0271
    CHARGE:  cpu time    2.6798: real time    2.6868
    MIXING:  cpu time    0.0105: real time    0.0106
    --------------------------------------------
      LOOP:  cpu time   52.1063: real time   52.2694

 eigenvalue-minimisations  :  9998
 total energy-change (2. order) : 0.1250262E+03  (-0.1461190E+02)
 number of electron     778.0000034 magnetization     207.8667975
 augmentation part      366.2534773 magnetization     165.5774846

 Broyden mixing:
  rms(total) = 0.15625E+02    rms(broyden)= 0.15625E+02
  rms(prec ) = 0.21077E+02
  weight for this iteration     100.00

 eigenvalues of (default mixing * dielectric matrix)
  average eigenvalue GAMMA=   0.2665
  0.3663  0.1666

 Free energy of the ion-electron system (eV)
  ---------------------------------------------------
  alpha Z        PSCENC =      2197.15539535
  Ewald energy   TEWEN  =    222631.92469702
  -Hartree energ DENC   =   -293848.24540538
  -exchange      EXHF   =         0.00000000
  -V(xc)+E(xc)   XCENC  =      1358.40439995
  PAW double counting   =     69988.22409846   -71839.87550707
  entropy T*S    EENTRO =         0.00000000
  eigenvalues    EBANDS =     -1246.39489809
  atomic energy  EATOM  =     70218.65458108
  Solvation  Ediel_sol  =         0.00000000
  ---------------------------------------------------
  free energy    TOTEN  =      -540.15263868 eV

  energy without entropy =     -540.15263868  energy(sigma->0) =     -540.15263868


--------------------------------------------------------------------------------------------------------




--------------------------------------- Iteration      1(   8)  ---------------------------------------


    POTLOK:  cpu time    0.4203: real time    0.4229
    SETDIJ:  cpu time    0.0325: real time    0.0326
    EDDIAG:  cpu time   10.1116: real time   10.1404
  RMM-DIIS:  cpu time   37.1571: real time   37.3074
    ORTHCH:  cpu time    1.7234: real time    1.7349
 BZINTS: Fermi energy:  2.593105;778.000000 electrons
         Band energy:-856.934595;  BLOECHL correction: -0.005657
       DOS:  cpu time    0.0257: real time    0.0257
    CHARGE:  cpu time    2.6708: real time    2.6786
    MIXING:  cpu time    0.0116: real time    0.0118
    --------------------------------------------
      LOOP:  cpu time   52.1530: real time   52.3542

 eigenvalue-minimisations  : 10011
 total energy-change (2. order) : 0.6231111E+02  (-0.9188319E+01)
[...]
      9.132915  5.805346  7.072896            0           0           0  
      3.771220  1.067832  0.904149            0           0           0  
      9.187153  5.773157  0.992859            0           0           0  
      5.174203  3.525475  0.870034            0           0           0  
     11.723623  8.751758  2.922452            0           0           0  
     11.781792  7.318514  4.846541            0           0           0  
     12.977995  6.503222  2.852336            0           0           0  
      9.131706  4.244648  2.814039            0           0           0  
      7.853813  8.058915  6.996514            0           0           0  
      7.897630  8.018724  0.913795            0           0           0  
     10.490378  6.601262  2.838692            0           0           0  
      2.559753  0.245638  5.004350            0           0           0  
      7.834603  3.521009  0.790672            0           0           0  
      5.126422  1.884619  2.935031            0           0           0  
      5.216670  6.505642  2.920646            0           0           0  
      7.796605  0.460158  4.848450            0           0           0  
      9.161861  1.184606  6.960873            0           0           0  
     10.415357  8.046886  6.955487            0           0           0  
      9.150683  1.135589  0.789759            0           0           0  
     10.461244  8.030921  0.814770            0           0           0  
      5.122690  5.002987  4.923410            0           0           0  
     11.732988  2.738229  4.881144            0           0           0  
     14.434703  8.900655  2.852614            0           0           0  
      9.185019  2.667792  4.919127            0           0           0  
      6.442699  2.690769  4.859289            0           0           0  
     11.768766  4.219254  2.836685            0           0           0  
      2.464313  1.903485  2.845607            0           0           0  
     11.756844  5.740030  0.912947            0           0           0  
      6.522583  5.804092  0.958327            0           0           0  
      7.914118  6.577917  2.852701            0           0           0  
      6.482113  4.167838  2.791458            0           0           0  
     10.499910  3.494658  7.039986            0           0           0  
     10.445388  3.479421  0.900647            0           0           0  
     10.482323  0.475485  4.883467            0           0           0  
      9.142450  7.347153  4.945929            0           0           0  
      6.550175  7.351406  4.947908            0           0           0  
      5.098149  0.271068  4.894536            0           0           0  
      7.264639  7.890154 10.474139     0.242214   -0.166440    0.955840  
 
   2 f  =   23.370264 THz   146.839699 2PiTHz  779.548068 cm-1    96.651677 meV
             X         Y         Z           dx          dy          dz
     13.089132  8.107710  6.967085            0           0           0  
      5.178451  8.133269  6.948987            0           0           0  
      5.026283  3.513692  7.003749            0           0           0  
     14.452481  8.887399  9.284202            0           0           0  
      3.774630  4.267574  9.378374            0           0           0  
      6.463669  8.898004  9.343739            0           0           0  
     11.779552  4.237739  9.344686            0           0           0  
      9.149405  8.867405  9.181117            0           0           0  
     10.452249  1.946548  9.211120            0           0           0  
      2.484077  1.963341  9.254125            0           0           0  
     11.792620  8.857652  9.292242            0           0           0  
     13.115876  6.559942  9.355481            0           0           0  
      5.118877  1.931119  9.306989            0           0           0  
      7.812175  6.547442  9.402331            0           0           0  
      9.137749  4.265845  9.252278            0           0           0  
      5.100919  6.547073  9.322887            0           0           0  
      7.792918  1.940274  9.257035            0           0           0  
      7.861037  3.457627  6.961074            0           0           0  
      6.378879  1.143435  6.917151            0           0           0  
      6.498778  1.127007  0.917828            0           0           0  
      3.733291  4.243650  2.823042            0           0           0  
      1.207761  1.234042  6.915529            0           0           0  
      1.141687  1.204891  0.754652            0           0           0  
      6.499372  8.840780  2.914106            0           0           0  
      6.456951  4.244780  9.338830            0           0           0  
      7.771870  5.033842  4.814515            0           0           0  
     10.449771  6.556252  9.289801            0           0           0  
     14.411611  7.273130  4.860437            0           0           0  
     11.811883  5.740123  7.009957            0           0           0  
      6.506280  5.824972  7.006180            0           0           0  
      3.652793  2.581510  4.954580            0           0           0  
     10.467187  5.070628  4.865036            0           0           0  
      3.813494  5.814987  7.136693            0           0           0  
     13.078973  7.956177  0.958832            0           0           0  
      5.213798  7.986558  0.862842            0           0           0  
      3.831310  5.831966  0.856005            0           0           0  
      7.882427  2.063465  2.846121            0           0           0  
      9.162894  8.807943  2.876123            0           0           0  
      2.443611  3.531521  7.120419            0           0           0  
      2.328700  3.518376  0.862991            0           0           0  
     10.446876  1.987090  2.840088            0           0           0  
     13.091651  5.019789  4.922734            0           0           0  
      3.801132  1.063445  7.037017            0           0           0  
      9.132915  5.805346  7.072896            0           0           0  
      3.771220  1.067832  0.904149            0           0           0  
      9.187153  5.773157  0.992859            0           0           0  
      5.174203  3.525475  0.870034            0           0           0  
     11.723623  8.751758  2.922452            0           0           0  
     11.781792  7.318514  4.846541            0           0           0  
     12.977995  6.503222  2.852336            0           0           0  
      9.131706  4.244648  2.814039            0           0           0  
      7.853813  8.058915  6.996514            0           0           0  
      7.897630  8.018724  0.913795            0           0           0  
     10.490378  6.601262  2.838692            0           0           0  
      2.559753  0.245638  5.004350            0           0           0  
      7.834603  3.521009  0.790672            0           0           0  
      5.126422  1.884619  2.935031            0           0           0  
      5.216670  6.505642  2.920646            0           0           0  
      7.796605  0.460158  4.848450            0           0           0  
      9.161861  1.184606  6.960873            0           0           0  
     10.415357  8.046886  6.955487            0           0           0  
      9.150683  1.135589  0.789759            0           0           0  
     10.461244  8.030921  0.814770            0           0           0  
      5.122690  5.002987  4.923410            0           0           0  
     11.732988  2.738229  4.881144            0           0           0  
     14.434703  8.900655  2.852614            0           0           0  
      9.185019  2.667792  4.919127            0           0           0  
      6.442699  2.690769  4.859289            0           0           0  
     11.768766  4.219254  2.836685            0           0           0  
      2.464313  1.903485  2.845607            0           0           0  
     11.756844  5.740030  0.912947            0           0           0  
      6.522583  5.804092  0.958327            0           0           0  
      7.914118  6.577917  2.852701            0           0           0  
      6.482113  4.167838  2.791458            0           0           0  
     10.499910  3.494658  7.039986            0           0           0  
     10.445388  3.479421  0.900647            0           0           0  
     10.482323  0.475485  4.883467            0           0           0  
      9.142450  7.347153  4.945929            0           0           0  
      6.550175  7.351406  4.947908            0           0           0  
      5.098149  0.271068  4.894536            0           0           0  
      7.264639  7.890154 10.474139    -0.382351    0.889074    0.251703  
 
   3 f  =    8.596148 THz    54.011191 2PiTHz  286.736626 cm-1    35.550823 meV
             X         Y         Z           dx          dy          dz
     13.089132  8.107710  6.967085            0           0           0  
      5.178451  8.133269  6.948987            0           0           0  
      5.026283  3.513692  7.003749            0           0           0  
     14.452481  8.887399  9.284202            0           0           0  
      3.774630  4.267574  9.378374            0           0           0  
      6.463669  8.898004  9.343739            0           0           0  
     11.779552  4.237739  9.344686            0           0           0  
      9.149405  8.867405  9.181117            0           0           0  
     10.452249  1.946548  9.211120            0           0           0  
      2.484077  1.963341  9.254125            0           0           0  
     11.792620  8.857652  9.292242            0           0           0  
     13.115876  6.559942  9.355481            0           0           0  
      5.118877  1.931119  9.306989            0           0           0  
      7.812175  6.547442  9.402331            0           0           0  
      9.137749  4.265845  9.252278            0           0           0  
      5.100919  6.547073  9.322887            0           0           0  
      7.792918  1.940274  9.257035            0           0           0  
      7.861037  3.457627  6.961074            0           0           0  
      6.378879  1.143435  6.917151            0           0           0  
      6.498778  1.127007  0.917828            0           0           0  
      3.733291  4.243650  2.823042            0           0           0  
      1.207761  1.234042  6.915529            0           0           0  
      1.141687  1.204891  0.754652            0           0           0  
      6.499372  8.840780  2.914106            0           0           0  
      6.456951  4.244780  9.338830            0           0           0  
      7.771870  5.033842  4.814515            0           0           0  
     10.449771  6.556252  9.289801            0           0           0  
     14.411611  7.273130  4.860437            0           0           0  
     11.811883  5.740123  7.009957            0           0           0  
      6.506280  5.824972  7.006180            0           0           0  
      3.652793  2.581510  4.954580            0           0           0  
     10.467187  5.070628  4.865036            0           0           0  
      3.813494  5.814987  7.136693            0           0           0  
     13.078973  7.956177  0.958832            0           0           0  
      5.213798  7.986558  0.862842            0           0           0  
      3.831310  5.831966  0.856005            0           0           0  
      7.882427  2.063465  2.846121            0           0           0  
      9.162894  8.807943  2.876123            0           0           0  
      2.443611  3.531521  7.120419            0           0           0  
      2.328700  3.518376  0.862991            0           0           0  
     10.446876  1.987090  2.840088            0           0           0  
     13.091651  5.019789  4.922734            0           0           0  
      3.801132  1.063445  7.037017            0           0           0  
      9.132915  5.805346  7.072896            0           0           0  
      3.771220  1.067832  0.904149            0           0           0  
      9.187153  5.773157  0.992859            0           0           0  
      5.174203  3.525475  0.870034            0           0           0  
     11.723623  8.751758  2.922452            0           0           0  
     11.781792  7.318514  4.846541            0           0           0  
     12.977995  6.503222  2.852336            0           0           0  
      9.131706  4.244648  2.814039            0           0           0  
      7.853813  8.058915  6.996514            0           0           0  
      7.897630  8.018724  0.913795            0           0           0  
     10.490378  6.601262  2.838692            0           0           0  
      2.559753  0.245638  5.004350            0           0           0  
      7.834603  3.521009  0.790672            0           0           0  
      5.126422  1.884619  2.935031            0           0           0  
      5.216670  6.505642  2.920646            0           0           0  
      7.796605  0.460158  4.848450            0           0           0  
      9.161861  1.184606  6.960873            0           0           0  
     10.415357  8.046886  6.955487            0           0           0  
      9.150683  1.135589  0.789759            0           0           0  
     10.461244  8.030921  0.814770            0           0           0  
      5.122690  5.002987  4.923410            0           0           0  
     11.732988  2.738229  4.881144            0           0           0  
     14.434703  8.900655  2.852614            0           0           0  
      9.185019  2.667792  4.919127            0           0           0  
      6.442699  2.690769  4.859289            0           0           0  
     11.768766  4.219254  2.836685            0           0           0  
      2.464313  1.903485  2.845607            0           0           0  
     11.756844  5.740030  0.912947            0           0           0  
      6.522583  5.804092  0.958327            0           0           0  
      7.914118  6.577917  2.852701            0           0           0  
      6.482113  4.167838  2.791458            0           0           0  
     10.499910  3.494658  7.039986            0           0           0  
     10.445388  3.479421  0.900647            0           0           0  
     10.482323  0.475485  4.883467            0           0           0  
      9.142450  7.347153  4.945929            0           0           0  
      6.550175  7.351406  4.947908            0           0           0  
      5.098149  0.271068  4.894536            0           0           0  
      7.264639  7.890154 10.474139     0.891707    0.426432   -0.151707  
 
 Finite differences POTIM=  1.500000000000000E-002
  LATTYP: Found a hexagonal cell.
 ALAT       =    10.6599998474
 C/A-ratio  =     2.0637898982
  
  Lattice vectors:
  
 A1 = (   5.3299999237,  -9.2318306722,   0.0000000000)
 A2 = ( -10.6599998474,   0.0000000000,   0.0000000000)
 A3 = (   0.0000000000,   0.0000000000, -22.0000000000)


Analysis of symmetry for initial positions (statically):
=====================================================================
 Subroutine PRICEL returns:
 Original cell was already a primitive cell.
 

 Routine SETGRP: Setting up the symmetry group for a 
 hexagonal supercell.


 Subroutine GETGRP returns: Found  1 space group operations
 (whereof  1 operations were pure point group operations)
 out of a pool of 24 trial point group operations.


The static configuration has the point symmetry C_1 .


Analysis of symmetry for dynamics (positions and initial velocities):
=====================================================================
 Subroutine PRICEL returns:
 Original cell was already a primitive cell.
 

 Routine SETGRP: Setting up the symmetry group for a 
 hexagonal supercell.


 Subroutine GETGRP returns: Found  1 space group operations
 (whereof  1 operations were pure point group operations)
 out of a pool of 24 trial point group operations.


The dynamic configuration has the point symmetry C_1 .


Analysis of constrained symmetry for selective dynamics:
=====================================================================
 Subroutine PRICEL returns:
 Original cell was already a primitive cell.
 

 Routine SETGRP: Setting up the symmetry group for a 
 hexagonal supercell.


 Subroutine GETGRP returns: Found  1 space group operations
 (whereof  1 operations were pure point group operations)
 out of a pool of 24 trial point group operations.


The constrained configuration has the point symmetry C_1 .


Analysis of structural, dynamic, and magnetic symmetry:
=====================================================================
 Subroutine PRICEL returns:
 Original cell was already a primitive cell.
 

 Routine SETGRP: Setting up the symmetry group for a 
 hexagonal supercell.


 Subroutine GETGRP returns: Found  1 space group operations
 (whereof  1 operations were pure point group operations)
 out of a pool of 24 trial point group operations.


The magnetic configuration has the point symmetry C_1 .


 Subroutine INISYM returns: Found  1 space group operations
 (whereof  1 operations are pure point group operations),
 and found     1 'primitive' translations

 
 KPOINTS: mesh auto                               

Automatic generation of k-mesh.
Space group operators:
 irot       det(A)        alpha          n_x          n_y          n_z        tau_x        tau_y        tau_z
    1     1.000000     0.000000     1.000000     0.000000     0.000000     0.000000     0.000000     0.000000
 
 Subroutine IBZKPT returns following result:
 ===========================================
 
 Found      4 irreducible k-points:
 
 Following reciprocal coordinates:
            Coordinates               Weight
  0.000000  0.000000  0.000000      1.000000
  0.500000 -0.000000  0.000000      1.000000
  0.000000  0.500000  0.000000      1.000000
  0.500000  0.500000  0.000000      1.000000
 
 Following cartesian coordinates:
            Coordinates               Weight
  0.000000  0.000000  0.000000      1.000000
  0.046904 -0.027080  0.000000      1.000000
  0.000000  0.054160  0.000000      1.000000
  0.046904  0.027080  0.000000      1.000000
 
 TETIRR: Found     12 inequivalent tetrahedra from       24
     LOOP+:  cpu time  563.4896: real time  566.2178
    4ORBIT:  cpu time    0.0000: real time    0.0000
 BZINTS: Fermi energy:  1.930745;778.000000 electrons
         Band energy:-742.321743;  BLOECHL correction: -0.270706

 total amount of memory used by VASP MPI-rank0   369863. kBytes
=======================================================================

   base      :      30000. kBytes
   nonlr-proj:      96560. kBytes
   fftplans  :      12162. kBytes
   grid      :     120476. kBytes
   one-center:       2519. kBytes
   wavefun   :     108146. kBytes
 
  
  
 General timing and accounting informations for this job:
 ========================================================
  
                  Total CPU time used (sec):     8458.348
                            User time (sec):     8383.221
                          System time (sec):       75.127
                         Elapsed time (sec):     8560.274
  
                   Maximum memory used (kb):      688852.
                   Average memory used (kb):           0.
  
                          Minor page faults:     23237623
                          Major page faults:          113
                 Voluntary context switches:         7985
