 vasp.5.4.4.18Apr17-6-g9f103f2a35 (build Oct 25 2019 11:13:22) complex          
  
 executed on             LinuxIFC date 2022.02.04  19:51:29
 running on   48 total cores
 distrk:  each k-point on   48 cores,    1 groups
 distr:  one band on NCORES_PER_BAND=   1 cores,   48 groups


--------------------------------------------------------------------------------------------------------


 INCAR:
 POTCAR:    PAW_PBE Pt 04Feb2005                  
 POTCAR:    PAW_PBE Fe 06Sep2000                  
 POTCAR:    PAW_PBE Co 02Aug2007                  
 POTCAR:    PAW_PBE Cu 22Jun2005                  
 POTCAR:    PAW_PBE Ni 02Aug2007                  
 POTCAR:    PAW_PBE H 15Jun2001                   

 ----------------------------------------------------------------------------- 
|                                                                             |
|           W    W    AA    RRRRR   N    N  II  N    N   GGGG   !!!           |
|           W    W   A  A   R    R  NN   N  II  NN   N  G    G  !!!           |
|           W    W  A    A  R    R  N N  N  II  N N  N  G       !!!           |
|           W WW W  AAAAAA  RRRRR   N  N N  II  N  N N  G  GGG   !            |
|           WW  WW  A    A  R   R   N   NN  II  N   NN  G    G                |
|           W    W  A    A  R    R  N    N  II  N    N   GGGG   !!!           |
|                                                                             |
|      For optimal performance we recommend to set                            |
|        NCORE= 4 - approx SQRT( number of cores)                             |
|      NCORE specifies how many cores store one orbital (NPAR=cpu/NCORE).     |
|      This setting can  greatly improve the performance of VASP for DFT.     |
|      The default,   NCORE=1            might be grossly inefficient         |
|      on modern multi-core architectures or massively parallel machines.     |
|      Do your own testing !!!!                                               |
|      Unfortunately you need to use the default for GW and RPA calculations. |
|      (for HF NCORE is supported but not extensively tested yet)             |
|                                                                             |
 ----------------------------------------------------------------------------- 

 POTCAR:    PAW_PBE Pt 04Feb2005                  
   VRHFIN =Pt: s1d9                                                             
   LEXCH  = PE                                                                  
   EATOM  =   729.1176 eV,   53.5886 Ry                                         
                                                                                
   TITEL  = PAW_PBE Pt 04Feb2005                                                
   LULTRA =        F    use ultrasoft PP ?                                      
   IUNSCR =        1    unscreen: 0-lin 1-nonlin 2-no                           
   RPACOR =    2.330    partial core radius                                     
   POMASS =  195.080; ZVAL   =   10.000    mass and valenz                      
   RCORE  =    2.600    outmost cutoff radius                                   
   RWIGS  =    2.750; RWIGS  =    1.455    wigner-seitz radius (au A)           
   ENMAX  =  230.283; ENMIN  =  172.712 eV                                      
   ICORE  =        3    local potential                                         
   LCOR   =        T    correct aug charges                                     
   LPAW   =        T    paw PP                                                  
   EAUG   =  358.966                                                            
   DEXC   =    0.000                                                            
   RMAX   =    2.658    core radius for proj-oper                               
   RAUG   =    1.300    factor for augmentation sphere                          
   RDEP   =    2.761    radius for radial grids                                 
   RDEPT  =    2.203    core radius for aug-charge                              
                                                                                
   Atomic configuration                                                         
   16 entries                                                                   
     n  l   j            E        occ.                                          
     1  0  0.50    -78401.1885   2.0000                                         
     2  0  0.50    -13770.7750   2.0000                                         
     2  1  1.50    -11931.0468   6.0000                                         
     3  0  0.50     -3234.7234   2.0000                                         
     3  1  1.50     -2699.2216   6.0000                                         
     3  2  2.50     -2119.5714  10.0000                                         
     4  0  0.50      -695.1528   2.0000                                         
     4  1  1.50      -519.6034   6.0000                                         
     4  2  2.50      -306.6786  10.0000                                         
     4  3  3.50       -70.1041  14.0000                                         
     5  0  0.50      -101.7747   2.0000                                         
     5  1  1.50       -55.9873   6.0000                                         
     5  2  2.50        -6.1423   9.0000                                         
     6  0  0.50        -5.6573   1.0000                                         
     6  1  1.50        -6.8029   0.0000                                         
     5  3  2.50        -1.3606   0.0000                                         
   Description                                                                  
     l       E           TYP  RCUT    TYP  RCUT                                 
     2     -6.1423404     23  2.500                                             
     2     -7.5029230     23  2.500                                             
     0     -5.6573207     23  2.500                                             
     0      0.7416693     23  2.500                                             
     1     -2.7211652     23  2.600                                             
     1     20.4087390     23  2.600                                             
     3     -1.3605826     23  2.500                                             
  local pseudopotential read in
  partial core-charges read in
  partial kinetic energy density read in
  atomic valenz-charges read in
  non local Contribution for L=           2  read in
    real space projection operators read in
  non local Contribution for L=           2  read in
    real space projection operators read in
  non local Contribution for L=           0  read in
    real space projection operators read in
  non local Contribution for L=           0  read in
    real space projection operators read in
  non local Contribution for L=           1  read in
    real space projection operators read in
  non local Contribution for L=           1  read in
    real space projection operators read in
    PAW grid and wavefunctions read in
 
   number of l-projection  operators is LMAX  =           6
   number of lm-projection operators is LMMAX =          18
 
 POTCAR:    PAW_PBE Fe 06Sep2000                  
   VRHFIN =Fe:  d7 s1                                                           
   LEXCH  = PE                                                                  
   EATOM  =   594.3153 eV,   43.6809 Ry                                         
                                                                                
   TITEL  = PAW_PBE Fe 06Sep2000                                                
   LULTRA =        F    use ultrasoft PP ?                                      
   IUNSCR =        1    unscreen: 0-lin 1-nonlin 2-no                           
   RPACOR =    2.000    partial core radius                                     
   POMASS =   55.847; ZVAL   =    8.000    mass and valenz                      
   RCORE  =    2.300    outmost cutoff radius                                   
   RWIGS  =    2.460; RWIGS  =    1.302    wigner-seitz radius (au A)           
   ENMAX  =  267.882; ENMIN  =  200.911 eV                                      
   RCLOC  =    1.701    cutoff for local pot                                    
   LCOR   =        T    correct aug charges                                     
   LPAW   =        T    paw PP                                                  
   EAUG   =  511.368                                                            
   DEXC   =    0.000                                                            
   RMAX   =    2.356    core radius for proj-oper                               
   RAUG   =    1.300    factor for augmentation sphere                          
   RDEP   =    2.442    radius for radial grids                                 
   RDEPT  =    1.890    core radius for aug-charge                              
                                                                                
   Atomic configuration                                                         
    9 entries                                                                   
     n  l   j            E        occ.                                          
     1  0  0.50     -6993.8440   2.0000                                         
     2  0  0.50      -814.6047   2.0000                                         
     2  1  1.50      -693.3689   6.0000                                         
     3  0  0.50       -89.4732   2.0000                                         
     3  1  1.50       -55.6373   6.0000                                         
     3  2  2.50        -3.8151   7.0000                                         
     4  0  0.50        -4.2551   1.0000                                         
     4  1  1.50        -3.4015   0.0000                                         
     4  3  2.50        -1.3606   0.0000                                         
   Description                                                                  
     l       E           TYP  RCUT    TYP  RCUT                                 
     2     -3.8151135     23  2.300                                             
     2     -5.1756961     23  2.300                                             
     0     -4.2550963     23  2.300                                             
     0      7.2035603     23  2.300                                             
     1     -2.7211652     23  2.300                                             
     1     18.4316424     23  2.300                                             
  local pseudopotential read in
  partial core-charges read in
  partial kinetic energy density read in
  atomic valenz-charges read in
  non local Contribution for L=           2  read in
    real space projection operators read in
  non local Contribution for L=           2  read in
    real space projection operators read in
  non local Contribution for L=           0  read in
    real space projection operators read in
  non local Contribution for L=           0  read in
    real space projection operators read in
  non local Contribution for L=           1  read in
    real space projection operators read in
  non local Contribution for L=           1  read in
    real space projection operators read in
    PAW grid and wavefunctions read in
 
   number of l-projection  operators is LMAX  =           6
   number of lm-projection operators is LMMAX =          18
 
 POTCAR:    PAW_PBE Co 02Aug2007                  
   VRHFIN =Co: d8 s1                                                            
   LEXCH  = PE                                                                  
   EATOM  =   813.3670 eV,   59.7808 Ry                                         
                                                                                
   TITEL  = PAW_PBE Co 02Aug2007                                                
   LULTRA =        F    use ultrasoft PP ?                                      
   IUNSCR =        1    unscreen: 0-lin 1-nonlin 2-no                           
   RPACOR =    2.000    partial core radius                                     
   POMASS =   58.933; ZVAL   =    9.000    mass and valenz                      
   RCORE  =    2.300    outmost cutoff radius                                   
   RWIGS  =    2.460; RWIGS  =    1.302    wigner-seitz radius (au A)           
   ENMAX  =  267.968; ENMIN  =  200.976 eV                                      
   RCLOC  =    1.203    cutoff for local pot                                    
   LCOR   =        T    correct aug charges                                     
   LPAW   =        T    paw PP                                                  
   EAUG   =  477.818                                                            
   DEXC   =    0.000                                                            
   RMAX   =    2.360    core radius for proj-oper                               
   RAUG   =    1.300    factor for augmentation sphere                          
   RDEP   =    2.393    radius for radial grids                                 
   RDEPT  =    1.864    core radius for aug-charge                              
                                                                                
   Atomic configuration                                                         
    9 entries                                                                   
     n  l   j            E        occ.                                          
     1  0  0.50     -7587.6674   2.0000                                         
     2  0  0.50      -893.6084   2.0000                                         
     2  1  1.50      -764.5805   6.0000                                         
     3  0  0.50       -97.5973   2.0000                                         
     3  1  1.50       -60.9648   6.0000                                         
     3  2  2.50        -4.2382   8.0000                                         
     4  0  0.50        -4.3746   1.0000                                         
     4  1  1.50        -4.0817   0.0000                                         
     4  3  2.50        -1.3606   0.0000                                         
   Description                                                                  
     l       E           TYP  RCUT    TYP  RCUT                                 
     2     -4.2382362     23  2.300                                             
     2     -5.5988188     23  2.300                                             
     0     -4.3745797     23  2.300                                             
     0      5.7660125     23  2.300                                             
     1     -2.7211652     23  2.300                                             
     1     16.9860234     23  2.300                                             
  local pseudopotential read in
  partial core-charges read in
  partial kinetic energy density read in
  atomic valenz-charges read in
  non local Contribution for L=           2  read in
    real space projection operators read in
  non local Contribution for L=           2  read in
    real space projection operators read in
  non local Contribution for L=           0  read in
    real space projection operators read in
  non local Contribution for L=           0  read in
    real space projection operators read in
  non local Contribution for L=           1  read in
    real space projection operators read in
  non local Contribution for L=           1  read in
    real space projection operators read in
    PAW grid and wavefunctions read in
 
   number of l-projection  operators is LMAX  =           6
   number of lm-projection operators is LMMAX =          18
 
 POTCAR:    PAW_PBE Cu 22Jun2005                  
   VRHFIN =Cu: d10 p1                                                           
   LEXCH  = PE                                                                  
   EATOM  =  1390.9808 eV,  102.2342 Ry                                         
                                                                                
   TITEL  = PAW_PBE Cu 22Jun2005                                                
   LULTRA =        F    use ultrasoft PP ?                                      
   IUNSCR =        1    unscreen: 0-lin 1-nonlin 2-no                           
   RPACOR =    2.000    partial core radius                                     
   POMASS =   63.546; ZVAL   =   11.000    mass and valenz                      
   RCORE  =    2.300    outmost cutoff radius                                   
   RWIGS  =    2.200; RWIGS  =    1.164    wigner-seitz radius (au A)           
   ENMAX  =  295.446; ENMIN  =  221.585 eV                                      
   ICORE  =        3    local potential                                         
   LCOR   =        T    correct aug charges                                     
   LPAW   =        T    paw PP                                                  
   EAUG   =  586.980                                                            
   DEXC   =    0.000                                                            
   RMAX   =    2.344    core radius for proj-oper                               
   RAUG   =    1.300    factor for augmentation sphere                          
   RDEP   =    2.302    radius for radial grids                                 
   RDEPT  =    1.771    core radius for aug-charge                              
                                                                                
   Atomic configuration                                                         
    9 entries                                                                   
     n  l   j            E        occ.                                          
     1  0  0.50     -8850.2468   2.0000                                         
     2  0  0.50     -1062.3498   2.0000                                         
     2  1  1.50      -916.8226   6.0000                                         
     3  0  0.50      -114.6929   2.0000                                         
     3  1  1.50       -72.1325   6.0000                                         
     3  2  2.50        -5.0394  10.0000                                         
     4  0  0.50        -4.6097   1.0000                                         
     4  1  0.50        -4.0817   0.0000                                         
     4  3  2.50        -1.3606   0.0000                                         
   Description                                                                  
     l       E           TYP  RCUT    TYP  RCUT                                 
     2     -5.0393973     23  2.200                                             
     2     10.8846608     23  2.200                                             
     0     -4.6097109     23  2.200                                             
     0      8.2520465     23  2.200                                             
     1     -2.7211652     23  2.200                                             
     1     21.7055443     23  2.200                                             
     3      2.7211652     23  2.300                                             
  local pseudopotential read in
  partial core-charges read in
  partial kinetic energy density read in
  atomic valenz-charges read in
  non local Contribution for L=           2  read in
    real space projection operators read in
  non local Contribution for L=           2  read in
    real space projection operators read in
  non local Contribution for L=           0  read in
    real space projection operators read in
  non local Contribution for L=           0  read in
    real space projection operators read in
  non local Contribution for L=           1  read in
    real space projection operators read in
  non local Contribution for L=           1  read in
    real space projection operators read in
    PAW grid and wavefunctions read in
 
   number of l-projection  operators is LMAX  =           6
   number of lm-projection operators is LMMAX =          18
 
 POTCAR:    PAW_PBE Ni 02Aug2007                  
   VRHFIN =Ni:                                                                  
   LEXCH  = PE                                                                  
   EATOM  =  1077.6739 eV,   79.2068 Ry                                         
                                                                                
   TITEL  = PAW_PBE Ni 02Aug2007                                                
   LULTRA =        F    use ultrasoft PP ?                                      
   IUNSCR =        1    unscreen: 0-lin 1-nonlin 2-no                           
   RPACOR =    2.000    partial core radius                                     
   POMASS =   58.690; ZVAL   =   10.000    mass and valenz                      
   RCORE  =    2.300    outmost cutoff radius                                   
   RWIGS  =    2.430; RWIGS  =    1.286    wigner-seitz radius (au A)           
   ENMAX  =  269.532; ENMIN  =  202.149 eV                                      
   RCLOC  =    1.201    cutoff for local pot                                    
   LCOR   =        T    correct aug charges                                     
   LPAW   =        T    paw PP                                                  
   EAUG   =  544.565                                                            
   DEXC   =    0.000                                                            
   RMAX   =    2.357    core radius for proj-oper                               
   RAUG   =    1.300    factor for augmentation sphere                          
   RDEP   =    2.390    radius for radial grids                                 
   RDEPT  =    1.838    core radius for aug-charge                              
                                                                                
   Atomic configuration                                                         
    9 entries                                                                   
     n  l   j            E        occ.                                          
     1  0  0.50     -8206.4253   2.0000                                         
     2  0  0.50      -976.1748   2.0000                                         
     2  1  1.50      -839.0571   6.0000                                         
     3  0  0.50      -105.9991   2.0000                                         
     3  1  1.50       -66.4603   6.0000                                         
     3  2  2.50        -4.6458   9.0000                                         
     4  0  0.50        -4.4926   1.0000                                         
     4  1  1.50        -4.0817   0.0000                                         
     4  3  2.50        -1.3606   0.0000                                         
   Description                                                                  
     l       E           TYP  RCUT    TYP  RCUT                                 
     2     -4.6457903     23  2.300                                             
     2     -6.0063729     23  2.300                                             
     0     -4.4925590     23  2.300                                             
     0      5.0102601     23  2.300                                             
     1     -2.7211652     23  2.300                                             
     1     16.5183231     23  2.300                                             
  local pseudopotential read in
  partial core-charges read in
  partial kinetic energy density read in
  atomic valenz-charges read in
  non local Contribution for L=           2  read in
    real space projection operators read in
  non local Contribution for L=           2  read in
    real space projection operators read in
  non local Contribution for L=           0  read in
    real space projection operators read in
  non local Contribution for L=           0  read in
    real space projection operators read in
  non local Contribution for L=           1  read in
    real space projection operators read in
  non local Contribution for L=           1  read in
    real space projection operators read in
    PAW grid and wavefunctions read in
 
   number of l-projection  operators is LMAX  =           6
   number of lm-projection operators is LMMAX =          18
 
 POTCAR:    PAW_PBE H 15Jun2001                   
   VRHFIN =H: ultrasoft test                                                    
   LEXCH  = PE                                                                  
   EATOM  =    12.4884 eV,    0.9179 Ry                                         
                                                                                
   TITEL  = PAW_PBE H 15Jun2001                                                 
   LULTRA =        F    use ultrasoft PP ?                                      
   IUNSCR =        0    unscreen: 0-lin 1-nonlin 2-no                           
   RPACOR =    0.000    partial core radius                                     
   POMASS =    1.000; ZVAL   =    1.000    mass and valenz                      
   RCORE  =    1.100    outmost cutoff radius                                   
   RWIGS  =    0.700; RWIGS  =    0.370    wigner-seitz radius (au A)           
   ENMAX  =  250.000; ENMIN  =  200.000 eV                                      
   RCLOC  =    0.701    cutoff for local pot                                    
   LCOR   =        T    correct aug charges                                     
   LPAW   =        T    paw PP                                                  
   EAUG   =  400.000                                                            
   RMAX   =    1.123    core radius for proj-oper                               
   RAUG   =    1.200    factor for augmentation sphere                          
   RDEP   =    1.112    radius for radial grids                                 
   RDEPT  =    0.926    core radius for aug-charge                              
                                                                                
   Atomic configuration                                                         
    2 entries                                                                   
     n  l   j            E        occ.                                          
     1  0  0.50        -6.4927   1.0000                                         
     2  1  0.50        -3.4015   0.0000                                         
   Description                                                                  
     l       E           TYP  RCUT    TYP  RCUT                                 
     0     -6.4927494     23  1.100                                             
     0      6.8029130     23  1.100                                             
     1     -4.0817478     23  1.100                                             
  local pseudopotential read in
  atomic valenz-charges read in
  non local Contribution for L=           0  read in
    real space projection operators read in
  non local Contribution for L=           0  read in
    real space projection operators read in
  non local Contribution for L=           1  read in
    real space projection operators read in
    PAW grid and wavefunctions read in
 
   number of l-projection  operators is LMAX  =           3
   number of lm-projection operators is LMMAX =           5
 
 Optimization of the real space projectors (new method)

 maximal supplied QI-value         = 14.36
 optimisation between [QCUT,QGAM] = [ 11.92, 23.98] = [ 39.79,161.09] Ry 
 Optimized for a Real-space Cutoff    1.49 Angstroem

   l    n(q)    QCUT    max X(q) W(low)/X(q) W(high)/X(q)  e(spline) 
   2     10    11.920    66.195    0.79E-04    0.18E-03    0.24E-06
   2     10    11.920    64.643    0.81E-04    0.19E-03    0.24E-06
   0     11    11.920    95.520    0.28E-04    0.54E-04    0.18E-06
   0     11    11.920    63.403    0.27E-04    0.52E-04    0.17E-06
   1     10    11.920    19.961    0.18E-04    0.11E-03    0.23E-06
   1     10    11.920    13.289    0.25E-04    0.87E-04    0.19E-06
 Optimization of the real space projectors (new method)

 maximal supplied QI-value         = 16.25
 optimisation between [QCUT,QGAM] = [ 11.86, 23.89] = [ 39.41,159.82] Ry 
 Optimized for a Real-space Cutoff    1.49 Angstroem

   l    n(q)    QCUT    max X(q) W(low)/X(q) W(high)/X(q)  e(spline) 
   2     10    11.864    80.901    0.13E-03    0.23E-03    0.37E-06
   2     10    11.864    75.754    0.13E-03    0.23E-03    0.38E-06
   0     11    11.864    58.752    0.44E-04    0.11E-04    0.20E-06
   0     11    11.864    30.679    0.36E-04    0.10E-04    0.18E-06
   1     10    11.864    17.977    0.31E-04    0.45E-04    0.10E-06
   1     10    11.864    13.559    0.25E-04    0.37E-04    0.89E-07
 Optimization of the real space projectors (new method)

 maximal supplied QI-value         = 16.25
 optimisation between [QCUT,QGAM] = [ 11.86, 23.89] = [ 39.41,159.82] Ry 
 Optimized for a Real-space Cutoff    1.33 Angstroem

   l    n(q)    QCUT    max X(q) W(low)/X(q) W(high)/X(q)  e(spline) 
   2      9    11.864    65.824    0.22E-03    0.53E-03    0.26E-06
   2      9    11.864    61.429    0.22E-03    0.53E-03    0.26E-06
   0      9    11.864    56.174    0.21E-03    0.32E-04    0.15E-06
   0      9    11.864    31.263    0.19E-03    0.30E-04    0.14E-06
   1      9    11.864    19.828    0.63E-04    0.30E-03    0.16E-06
   1      9    11.864    15.139    0.49E-04    0.25E-03    0.13E-06
 Optimization of the real space projectors (new method)

 maximal supplied QI-value         = 16.25
 optimisation between [QCUT,QGAM] = [ 11.86, 23.89] = [ 39.41,159.82] Ry 
 Optimized for a Real-space Cutoff    1.49 Angstroem

   l    n(q)    QCUT    max X(q) W(low)/X(q) W(high)/X(q)  e(spline) 
   2     10    11.864     4.610    0.10E-03    0.20E-03    0.29E-06
   2     10    11.864     8.522    0.17E-03    0.33E-03    0.50E-06
   0     11    11.864    51.609    0.52E-04    0.55E-04    0.33E-06
   0     11    11.864    27.747    0.46E-04    0.52E-04    0.31E-06
   1     10    11.864    20.408    0.54E-04    0.25E-04    0.21E-06
   1     10    11.864    13.425    0.48E-04    0.22E-04    0.18E-06
 Optimization of the real space projectors (new method)

 maximal supplied QI-value         = 16.25
 optimisation between [QCUT,QGAM] = [ 11.86, 23.89] = [ 39.41,159.82] Ry 
 Optimized for a Real-space Cutoff    1.33 Angstroem

   l    n(q)    QCUT    max X(q) W(low)/X(q) W(high)/X(q)  e(spline) 
   2      9    11.864    60.317    0.21E-03    0.51E-03    0.25E-06
   2      9    11.864    55.921    0.21E-03    0.51E-03    0.26E-06
   0      9    11.864    51.690    0.22E-03    0.30E-04    0.17E-06
   0      9    11.864    30.015    0.20E-03    0.28E-04    0.15E-06
   1      9    11.864    18.849    0.76E-04    0.33E-03    0.17E-06
   1      9    11.864    14.624    0.60E-04    0.28E-03    0.15E-06
 Optimization of the real space projectors (new method)

 maximal supplied QI-value         = 34.20
 optimisation between [QCUT,QGAM] = [ 11.97, 23.94] = [ 40.13,160.53] Ry 
 Optimized for a Real-space Cutoff    1.18 Angstroem

   l    n(q)    QCUT    max X(q) W(low)/X(q) W(high)/X(q)  e(spline) 
   0      8    11.971    19.460    0.15E-03    0.31E-03    0.25E-06
   0      8    11.971    12.209    0.13E-03    0.29E-03    0.25E-06
   1      8    11.971     4.655    0.22E-03    0.24E-03    0.21E-06
  PAW_PBE Pt 04Feb2005                  :
 energy of atom  1       EATOM= -729.1176
 kinetic energy error for atom=    0.0021 (will be added to EATOM!!)
  PAW_PBE Fe 06Sep2000                  :
 energy of atom  2       EATOM= -594.3153
 kinetic energy error for atom=    0.0024 (will be added to EATOM!!)
  PAW_PBE Co 02Aug2007                  :
 energy of atom  3       EATOM= -813.3670
 kinetic energy error for atom=    0.0026 (will be added to EATOM!!)
  PAW_PBE Cu 22Jun2005                  :
 energy of atom  4       EATOM=-1390.9808
 kinetic energy error for atom=    0.0036 (will be added to EATOM!!)
  PAW_PBE Ni 02Aug2007                  :
 energy of atom  5       EATOM=-1077.6739
 kinetic energy error for atom=    0.0027 (will be added to EATOM!!)
  PAW_PBE H 15Jun2001                   :
 energy of atom  6       EATOM=  -12.4884
 kinetic energy error for atom=    0.0008 (will be added to EATOM!!)
 
 
 POSCAR: 10.66                                   
  positions in cartesian coordinates
  No initial velocities read in
 exchange correlation table for  LEXCH =        8
   RHO(1)=    0.500       N(1)  =     2000
   RHO(2)=  100.500       N(2)  =     4000
 


--------------------------------------------------------------------------------------------------------


 ion  position               nearest neighbor table
   1  0.787  0.878  0.316-  49 2.60  28 2.62  59 2.64  19 2.66  61 2.67  33 2.68  29 2.69  60 2.71
                             2 2.75   4 2.77  11 2.78  12 2.85
   2  0.043  0.881  0.316-  79 2.55  77 2.60  30 2.65  60 2.66  28 2.66  52 2.69  33 2.69  22 2.70
                             1 2.75   4 2.80   6 2.81  16 2.97
   3  0.280  0.380  0.318-  64 2.57  39 2.59  33 2.61  31 2.63  68 2.70  19 2.72  30 2.73  43 2.73
                             5 2.77  13 2.80  25 2.83  18 2.84
   4  0.871  0.964  0.420-  17 2.63  11 2.64   9 2.66   6 2.69  12 2.69  16 2.72  60 2.75   1 2.77
                             2 2.80
   5  0.121  0.463  0.425-  16 2.63  12 2.64   7 2.65  10 2.66  25 2.68  33 2.70  13 2.71  39 2.71
                             3 2.77
   6  0.123  0.964  0.424-  81 1.71  10 2.65   9 2.66   8 2.67   4 2.69  14 2.71  16 2.72   2 2.81
                            52 2.85  22 2.86
   7  0.875  0.459  0.425-   9 2.64  15 2.64   5 2.65  10 2.66  12 2.67  39 2.68  27 2.68  75 2.74
                            29 2.78
   8  0.375  0.960  0.419-  43 2.59  14 2.64  13 2.65  27 2.65  11 2.66   6 2.67  10 2.67  52 2.69
                            61 2.71
   9  0.872  0.213  0.419-  15 2.64   7 2.64  17 2.65   4 2.66   6 2.66  75 2.66  10 2.70  60 2.72
                            22 2.80
  10  0.126  0.212  0.421-  13 2.64   6 2.65   7 2.66  39 2.66   5 2.66   8 2.67   9 2.70  43 2.71
                            22 2.76
  11  0.625  0.959  0.422-   4 2.64  12 2.65  13 2.66   8 2.66  27 2.66  17 2.68   1 2.78  61 2.82
                            19 2.82
  12  0.873  0.710  0.424-   5 2.64  11 2.65  27 2.66  16 2.67   7 2.67   4 2.69  33 2.69  29 2.79
                             1 2.85
  13  0.375  0.208  0.423-  10 2.64   8 2.65  11 2.66  17 2.67  25 2.68   5 2.71  43 2.75   3 2.80
                            19 2.81
  14  0.378  0.711  0.421-  27 2.61   8 2.64  15 2.65  44 2.65  25 2.69   6 2.71  16 2.73  52 2.73
                            30 2.75
  15  0.626  0.461  0.421-   9 2.64   7 2.64  27 2.65  14 2.65  17 2.68  25 2.68  44 2.69  75 2.71
                            18 2.75
  16  0.125  0.709  0.429-  81 1.80   5 2.63  25 2.66  12 2.67   6 2.72   4 2.72  14 2.73  33 2.76
                            30 2.89   2 2.97
  17  0.624  0.211  0.421-   4 2.63   9 2.65  25 2.66  13 2.67  11 2.68  15 2.68  18 2.76  60 2.79
                            19 2.85
  18  0.548  0.375  0.316-  67 2.56  60 2.62  75 2.64  68 2.65  26 2.66  44 2.66  30 2.74  19 2.75
                            15 2.75  17 2.76   3 2.84  25 2.86
  19  0.535  0.124  0.314-  80 2.55  68 2.58  43 2.59  59 2.60   1 2.66  61 2.66   3 2.72  18 2.75
                            60 2.78  13 2.81  11 2.82  17 2.85
  20  0.549  0.122  0.042-  37 2.55  57 2.55  48 2.57  62 2.66  63 2.70  34 2.71  45 2.73  47 2.74
                            56 2.74
  21  0.120  0.460  0.128-  40 2.52  36 2.53  47 2.53  42 2.60  64 2.62  69 2.62  70 2.66  50 2.67
                            31 2.71  58 2.71  57 2.74  74 2.75
  22  0.045  0.134  0.315-  65 2.54  55 2.54  77 2.57  43 2.60  39 2.62  75 2.64   2 2.70  60 2.71
                            52 2.75  10 2.76   9 2.80   6 2.86  31 3.42
  23  0.042  0.131  0.034-  70 2.57  40 2.60  41 2.61  45 2.64  62 2.65  76 2.65  24 2.69  35 2.76
                            53 2.81
  24  0.131  0.958  0.132-  79 2.51  77 2.54  35 2.57  53 2.58  55 2.59  70 2.64  38 2.66  58 2.66
                            73 2.67  23 2.69  66 2.73  41 2.75
  25  0.375  0.460  0.424-  17 2.66  16 2.66   5 2.68  13 2.68  15 2.68  14 2.69  30 2.81   3 2.83
                            18 2.86
  26  0.455  0.546  0.219-  73 2.50  74 2.55  51 2.55  79 2.63  64 2.66  30 2.66  18 2.66  68 2.69
                            78 2.69  32 2.70  44 2.74  67 2.75
  27  0.623  0.711  0.423-  14 2.61  15 2.65   8 2.65  11 2.66  12 2.66   7 2.68  44 2.70  61 2.77
                            29 2.78
  28  0.956  0.789  0.221-  58 2.55  66 2.57  50 2.58  42 2.61   1 2.62  49 2.63  64 2.66   2 2.66
                            33 2.71  59 2.74  79 2.81  77 2.81
  29  0.795  0.622  0.319-  42 2.55  39 2.56  75 2.60  32 2.61  33 2.67  44 2.67  49 2.68   1 2.69
                            61 2.70   7 2.78  27 2.78  12 2.79
  30  0.290  0.630  0.318-  79 2.56  64 2.60  52 2.64   2 2.65  26 2.66  33 2.66  44 2.66   3 2.73
                            18 2.74  14 2.75  25 2.81  16 2.89
  31  0.202  0.279  0.225-  70 2.51  55 2.57  65 2.58  43 2.59  57 2.60   3 2.63  39 2.66  21 2.71
                            80 2.72  42 2.74  68 2.79  64 2.83  22 3.42
  32  0.706  0.549  0.221-  54 2.54  69 2.56  51 2.58  49 2.60  29 2.61  42 2.62  78 2.64  65 2.65
                            44 2.68  75 2.69  26 2.70  67 2.72
  33  0.041  0.630  0.324-   3 2.61  30 2.66  39 2.66  29 2.67   1 2.68   2 2.69  12 2.69  64 2.70
                             5 2.70  28 2.71  42 2.71  16 2.76
  34  0.796  0.862  0.044-  50 2.39  66 2.51  48 2.52  36 2.55  71 2.58  63 2.62  20 2.71  62 2.79
                            35 2.80
  35  0.057  0.865  0.039-  58 2.54  72 2.55  36 2.56  24 2.57  66 2.62  53 2.68  23 2.76  62 2.76
                            34 2.80
  36  0.044  0.632  0.039-  21 2.53  34 2.55  35 2.56  58 2.58  50 2.59  47 2.67  72 2.69  71 2.74
                            40 2.76
  37  0.628  0.224  0.129-  51 2.51  67 2.52  56 2.52  74 2.53  20 2.55  68 2.56  59 2.56  41 2.57
                            62 2.59  66 2.69  57 2.76  48 2.95
  38  0.383  0.954  0.131-  53 2.46  45 2.47  80 2.48  78 2.53  73 2.56  63 2.56  48 2.56  54 2.58
                            55 2.58  57 2.65  24 2.66  70 2.70
  39  0.036  0.383  0.324-  29 2.56   3 2.59  75 2.60  22 2.62  42 2.65  10 2.66  31 2.66  33 2.66
                             7 2.68   5 2.71  65 2.73  43 2.82
  40  0.028  0.381  0.039-  69 2.42  21 2.52  71 2.54  76 2.54  70 2.56  23 2.60  36 2.76  45 2.84
                            47 2.85
  41  0.872  0.215  0.129-  76 2.45  65 2.53  67 2.53  77 2.53  37 2.57  62 2.57  69 2.59  23 2.61
                            51 2.61  70 2.68  66 2.68  24 2.75
  42  0.955  0.545  0.224-  50 2.55  29 2.55  69 2.60  21 2.60  28 2.61  32 2.62  49 2.65  39 2.65
                            65 2.66  64 2.69  33 2.71  31 2.74
  43  0.297  0.115  0.321-  55 2.52  52 2.57  61 2.59  19 2.59  31 2.59   8 2.59  22 2.60  80 2.64
                            10 2.71   3 2.73  13 2.75  39 2.82
  44  0.541  0.629  0.321-  52 2.59  61 2.59  78 2.63  14 2.65  18 2.66  30 2.66  29 2.67  32 2.68
                            75 2.69  15 2.69  27 2.70  26 2.74
  45  0.296  0.116  0.041-  38 2.47  70 2.49  57 2.57  53 2.58  23 2.64  63 2.65  20 2.73  47 2.83
                            40 2.84
  46  0.549  0.625  0.045-  51 2.38  73 2.39  54 2.41  71 2.57  53 2.59  63 2.60  76 2.62  56 2.63
                            72 2.66
  47  0.294  0.382  0.040-  74 2.41  21 2.53  57 2.64  72 2.65  56 2.66  36 2.67  20 2.74  45 2.83
                            40 2.85
  48  0.626  0.948  0.133-  49 2.40  54 2.48  80 2.48  34 2.52  59 2.56  63 2.56  38 2.56  20 2.57
                            50 2.58  57 2.68  66 2.72  37 2.95
  49  0.707  0.793  0.220-  48 2.40  50 2.47  54 2.48  80 2.57   1 2.60  32 2.60  61 2.63  28 2.63
                            78 2.64  42 2.65  29 2.68  59 2.73
  50  0.865  0.704  0.130-  34 2.39  71 2.42  49 2.47  54 2.49  42 2.55  48 2.58  28 2.58  69 2.58
                            36 2.59  21 2.67  66 2.81  58 2.90
  51  0.627  0.460  0.128-  46 2.38  76 2.44  56 2.51  37 2.51  26 2.55  32 2.58  41 2.61  67 2.63
                            73 2.63  69 2.64  74 2.65  54 2.72
  52  0.299  0.873  0.317-  55 2.43  78 2.51  79 2.51  61 2.55  43 2.57  44 2.59  30 2.64   2 2.69
                             8 2.69  14 2.73  22 2.75   6 2.85
  53  0.307  0.869  0.042-  73 2.42  38 2.46  63 2.57  24 2.58  45 2.58  46 2.59  72 2.61  35 2.68
                            23 2.81
  54  0.627  0.715  0.129-  46 2.41  71 2.46  63 2.48  48 2.48  49 2.48  50 2.49  32 2.54  38 2.58
                            73 2.58  78 2.61  69 2.70  51 2.72
  55  0.225  0.028  0.228-  52 2.43  78 2.48  79 2.51  43 2.52  80 2.54  22 2.54  31 2.57  38 2.58
                            24 2.59  70 2.72  77 2.74  65 2.90
  56  0.544  0.381  0.036-  74 2.50  51 2.51  37 2.52  76 2.61  46 2.63  72 2.64  47 2.66  62 2.72
                            20 2.74
  57  0.379  0.204  0.133-  68 2.46  80 2.54  20 2.55  45 2.57  31 2.60  47 2.64  38 2.65  74 2.66
                            70 2.66  48 2.68  21 2.74  37 2.76
  58  0.137  0.705  0.133-  72 2.46  64 2.50  35 2.54  28 2.55  79 2.57  36 2.58  74 2.66  24 2.66
                            73 2.70  21 2.71  50 2.90
  59  0.705  0.051  0.220-  66 2.52  48 2.56  37 2.56  19 2.60  68 2.60  67 2.61  60 2.61   1 2.64
                            77 2.69  80 2.71  49 2.73  28 2.74
  60  0.793  0.129  0.316-  67 2.52  77 2.57  59 2.61  18 2.62   2 2.66  75 2.66  22 2.71   1 2.71
                             9 2.72   4 2.75  19 2.78  17 2.79
  61  0.539  0.873  0.317-  78 2.49  80 2.53  52 2.55  43 2.59  44 2.59  49 2.63  19 2.66   1 2.67
                            29 2.70   8 2.71  27 2.77  11 2.82
  62  0.797  0.123  0.036-  66 2.53  41 2.57  37 2.59  23 2.65  20 2.66  76 2.68  56 2.72  35 2.76
                            34 2.79
  63  0.546  0.870  0.037-  54 2.48  38 2.56  48 2.56  53 2.57  46 2.60  34 2.62  71 2.63  45 2.65
                            20 2.70
  64  0.208  0.542  0.224-  58 2.50   3 2.57  30 2.60  21 2.62  26 2.66  28 2.66  68 2.66  74 2.67
                            42 2.69  33 2.70  79 2.76  31 2.83
  65  0.951  0.297  0.222-  69 2.53  41 2.53  22 2.54  67 2.55  77 2.58  31 2.58  75 2.60  70 2.61
                            32 2.65  42 2.66  39 2.73  55 2.90
  66  0.872  0.964  0.130-  34 2.51  59 2.52  62 2.53  28 2.57  77 2.58  35 2.62  41 2.68  37 2.69
                            48 2.72  24 2.73  50 2.81
  67  0.716  0.290  0.224-  37 2.52  60 2.52  41 2.53  77 2.55  65 2.55  18 2.56  59 2.61  51 2.63
                            75 2.63  32 2.72  68 2.74  26 2.75
  68  0.457  0.292  0.221-  57 2.46  74 2.54  37 2.56  19 2.58  59 2.60  18 2.65  64 2.66  26 2.69
                             3 2.70  67 2.74  80 2.78  31 2.79
  69  0.875  0.457  0.129-  40 2.42  71 2.45  76 2.46  65 2.53  32 2.56  50 2.58  41 2.59  42 2.60
                            21 2.62  51 2.64  70 2.68  54 2.70
  70  0.128  0.206  0.129-  45 2.49  31 2.51  40 2.56  23 2.57  65 2.61  24 2.64  21 2.66  57 2.66
                            41 2.68  69 2.68  38 2.70  55 2.72
  71  0.792  0.622  0.041-  50 2.42  69 2.45  54 2.46  40 2.54  46 2.57  34 2.58  76 2.61  63 2.63
                            36 2.74
  72  0.298  0.629  0.044-  74 2.46  58 2.46  73 2.47  35 2.55  53 2.61  56 2.64  47 2.65  46 2.66
                            36 2.69
  73  0.386  0.713  0.130-  46 2.39  53 2.42  72 2.47  26 2.50  78 2.54  38 2.56  54 2.58  79 2.62
                            51 2.63  24 2.67  58 2.70  74 2.80
  74  0.382  0.451  0.127-  47 2.41  72 2.46  56 2.50  37 2.53  68 2.54  26 2.55  51 2.65  57 2.66
                            58 2.66  64 2.67  21 2.75  73 2.80
  75  0.794  0.379  0.320-  29 2.60  39 2.60  65 2.60  67 2.63  18 2.64  22 2.64  60 2.66   9 2.66
                            44 2.69  32 2.69  15 2.71   7 2.74
  76  0.791  0.377  0.041-  51 2.44  41 2.45  69 2.46  40 2.54  56 2.61  71 2.61  46 2.62  23 2.65
                            62 2.68
  77  0.956  0.053  0.222-  41 2.53  24 2.54  67 2.55  60 2.57  22 2.57  66 2.58  65 2.58   2 2.60
                            59 2.69  79 2.74  55 2.74  28 2.81
  78  0.458  0.796  0.225-  55 2.48  61 2.49  80 2.50  52 2.51  38 2.53  73 2.54  79 2.59  54 2.61
                            44 2.63  49 2.64  32 2.64  26 2.69
  79  0.215  0.797  0.225-  55 2.51  24 2.51  52 2.51   2 2.55  30 2.56  58 2.57  78 2.59  73 2.62
                            26 2.63  77 2.74  64 2.76  28 2.81
  80  0.462  0.029  0.223-  38 2.48  48 2.48  78 2.50  61 2.53  57 2.54  55 2.54  19 2.55  49 2.57
                            43 2.64  59 2.71  31 2.72  68 2.78
  81  0.126  0.846  0.477-   6 1.71  16 1.80
 
  LATTYP: Found a hexagonal cell.
 ALAT       =    10.6599998474
 C/A-ratio  =     2.0637898982
  
  Lattice vectors:
  
 A1 = (   5.3299999237,  -9.2318306722,   0.0000000000)
 A2 = ( -10.6599998474,   0.0000000000,   0.0000000000)
 A3 = (   0.0000000000,   0.0000000000, -22.0000000000)


Analysis of symmetry for initial positions (statically):
=====================================================================
 Subroutine PRICEL returns:
 Original cell was already a primitive cell.
 

 Routine SETGRP: Setting up the symmetry group for a 
 hexagonal supercell.


 Subroutine GETGRP returns: Found  1 space group operations
 (whereof  1 operations were pure point group operations)
 out of a pool of 24 trial point group operations.


The static configuration has the point symmetry C_1 .


Analysis of symmetry for dynamics (positions and initial velocities):
=====================================================================
 Subroutine PRICEL returns:
 Original cell was already a primitive cell.
 

 Routine SETGRP: Setting up the symmetry group for a 
 hexagonal supercell.


 Subroutine GETGRP returns: Found  1 space group operations
 (whereof  1 operations were pure point group operations)
 out of a pool of 24 trial point group operations.


The dynamic configuration has the point symmetry C_1 .


Analysis of constrained symmetry for selective dynamics:
=====================================================================
 Subroutine PRICEL returns:
 Original cell was already a primitive cell.
 

 Routine SETGRP: Setting up the symmetry group for a 
 hexagonal supercell.


 Subroutine GETGRP returns: Found  1 space group operations
 (whereof  1 operations were pure point group operations)
 out of a pool of 24 trial point group operations.


The constrained configuration has the point symmetry C_1 .


Analysis of structural, dynamic, and magnetic symmetry:
=====================================================================
 Subroutine PRICEL returns:
 Original cell was already a primitive cell.
 

 Routine SETGRP: Setting up the symmetry group for a 
 hexagonal supercell.


 Subroutine GETGRP returns: Found  1 space group operations
 (whereof  1 operations were pure point group operations)
 out of a pool of 24 trial point group operations.


The magnetic configuration has the point symmetry C_1 .


 Subroutine INISYM returns: Found  1 space group operations
 (whereof  1 operations are pure point group operations),
 and found     1 'primitive' translations

 
 
 KPOINTS: mesh auto                               

Automatic generation of k-mesh.
Space group operators:
 irot       det(A)        alpha          n_x          n_y          n_z        tau_x        tau_y        tau_z
    1     1.000000     0.000000     1.000000     0.000000     0.000000     0.000000     0.000000     0.000000
 
 Subroutine IBZKPT returns following result:
 ===========================================
 
 Found      4 irreducible k-points:
 
 Following reciprocal coordinates:
            Coordinates               Weight
  0.000000  0.000000  0.000000      1.000000
  0.500000 -0.000000  0.000000      1.000000
  0.000000  0.500000  0.000000      1.000000
  0.500000  0.500000  0.000000      1.000000
 
 Following cartesian coordinates:
            Coordinates               Weight
  0.000000  0.000000  0.000000      1.000000
  0.046904 -0.027080  0.000000      1.000000
  0.000000  0.054160  0.000000      1.000000
  0.046904  0.027080  0.000000      1.000000
 
 TETIRR: Found     12 inequivalent tetrahedra from       24
 
 Subroutine IBZKPT_HF returns following result:
 ==============================================
 
 Found      4 k-points in 1st BZ
 the following      4 k-points will be used (e.g. in the exchange kernel)
 Following reciprocal coordinates:   # in IRBZ
  0.000000  0.000000  0.000000    0.25000000   1 t-inv F
  0.500000 -0.000000  0.000000    0.25000000   2 t-inv F
  0.000000  0.500000  0.000000    0.25000000   3 t-inv F
  0.500000  0.500000  0.000000    0.25000000   4 t-inv F


--------------------------------------------------------------------------------------------------------




 Dimension of arrays:
   k-points           NKPTS =      4   k-points in BZ     NKDIM =      4   number of bands    NBANDS=    624
   number of dos      NEDOS =    301   number of ions     NIONS =     81
   non local maximal  LDIM  =      6   non local SUM 2l+1 LMDIM =     18
   total plane-waves  NPLWV = ******
   max r-space proj   IRMAX =   7657   max aug-charges    IRDMAX=  33358
   dimension x,y,z NGX =    84 NGY =   84 NGZ =  168
   dimension x,y,z NGXF=   168 NGYF=  168 NGZF=  336
   support grid    NGXF=   168 NGYF=  168 NGZF=  336
   ions per type =              32  13  10  13  12   1
   NGX,Y,Z   is equivalent  to a cutoff of  13.10, 13.10, 12.70 a.u.
   NGXF,Y,Z  is equivalent  to a cutoff of  26.20, 26.20, 25.39 a.u.

 SYSTEM =  Pt111                                   
 POSCAR =  10.66                                   

 Startparameter for this run:
   NWRITE =      2    write-flag & timer
   PREC   = accura    normal or accurate (medium, high low for compatibility)
   ISTART =      0    job   : 0-new  1-cont  2-samecut
   ICHARG =      2    charge: 1-file 2-atom 10-const
   ISPIN  =      2    spin polarized calculation?
   LNONCOLLINEAR =      F non collinear calculations
   LSORBIT =      F    spin-orbit coupling
   INIWAV =      1    electr: 0-lowe 1-rand  2-diag
   LASPH  =      F    aspherical Exc in radial PAW
   METAGGA=      F    non-selfconsistent MetaGGA calc.

 Electronic Relaxation 1
   ENCUT  =  550.0 eV  40.42 Ry    6.36 a.u.  20.38 20.38 42.07*2*pi/ulx,y,z
   ENINI  =  550.0     initial cutoff
   ENAUG  =  587.0 eV  augmentation charge cutoff
   NELM   =    200;   NELMIN=  2; NELMDL= -5     # of ELM steps 
   EDIFF  = 0.1E-04   stopping-criterion for ELM
   LREAL  =      T    real-space projection
   NLSPLINE    = F    spline interpolate recip. space projectors
   LCOMPAT=      F    compatible to vasp.4.4
   GGA_COMPAT  = T    GGA compatible to vasp.4.4-vasp.4.6
   LMAXPAW     = -100 max onsite density
   LMAXMIX     =    2 max onsite mixed and CHGCAR
   VOSKOWN=      0    Vosko Wilk Nusair interpolation
   ROPT   =   -0.00025  -0.00025  -0.00025  -0.00025
   ROPT   =   -0.00025  -0.00025
 Ionic relaxation
   EDIFFG = -.5E-01   stopping-criterion for IOM
   NSW    =   1009    number of steps for IOM
   NBLOCK =      1;   KBLOCK =   1009    inner block; outer block 
   IBRION =      5    ionic relax: 0-MD 1-quasi-New 2-CG
   NFREE  =      2    steps in history (QN), initial steepest desc. (CG)
   ISIF   =      2    stress and relaxation
   IWAVPR =     11    prediction:  0-non 1-charg 2-wave 3-comb
   ISYM   =      2    0-nonsym 1-usesym 2-fastsym
   LCORR  =      T    Harris-Foulkes like correction to forces

   POTIM  = 0.5000    time-step for ionic-motion
   TEIN   =    0.0    initial temperature
   TEBEG  =    0.0;   TEEND  =   0.0 temperature during run
   SMASS  =  -3.00    Nose mass-parameter (am)
   estimated Nose-frequenzy (Omega)   =  0.10E-29 period in steps =****** mass=  -0.260E-26a.u.
   SCALEE = 1.0000    scale energy and forces
   NPACO  =    256;   APACO  = 16.0  distance and # of slots for P.C.
   PSTRESS=    0.0 pullay stress

  Mass of Ions in am
   POMASS = 195.08 55.85 58.93 63.55 58.69  1.00
  Ionic Valenz
   ZVAL   =  10.00  8.00  9.00 11.00 10.00  1.00
  Atomic Wigner-Seitz radii
   RWIGS  =  -1.00 -1.00 -1.00 -1.00 -1.00 -1.00
  virtual crystal weights 
   VCA    =   1.00  1.00  1.00  1.00  1.00  1.00
   NELECT =     778.0000    total number of electrons
   NUPDOWN=      -1.0000    fix difference up-down

 DOS related values:
   EMIN   =  10.00;   EMAX   =-10.00  energy-range for DOS
   EFERMI =   0.00
   ISMEAR =    -5;   SIGMA  =   0.10  broadening in eV -4-tet -1-fermi 0-gaus

 Electronic relaxation 2 (details)
   IALGO  =     68    algorithm
   LDIAG  =      T    sub-space diagonalisation (order eigenvalues)
   LSUBROT=      F    optimize rotation matrix (better conditioning)
   TURBO    =      0    0=normal 1=particle mesh
   IRESTART =      0    0=no restart 2=restart with 2 vectors
   NREBOOT  =      0    no. of reboots
   NMIN     =      0    reboot dimension
   EREF     =   0.00    reference energy to select bands
   IMIX   =      4    mixing-type and parameters
     AMIX     =   0.40;   BMIX     =  1.00
     AMIX_MAG =   1.60;   BMIX_MAG =  1.00
     AMIN     =   0.10
     WC   =   100.;   INIMIX=   1;  MIXPRE=   1;  MAXMIX= -45

 Intra band minimization:
   WEIMIN = 0.0010     energy-eigenvalue tresh-hold
   EBREAK =  0.40E-08  absolut break condition
   DEPER  =   0.30     relativ break condition  

   TIME   =   0.40     timestep for ELM

  volume/ion in A,a.u.               =      26.73       180.38
  Fermi-wavevector in a.u.,A,eV,Ry     =   1.163891  2.199434 18.431011  1.354641
  Thomas-Fermi vector in A             =   2.300435
 
 Write flags
   LWAVE        =      F    write WAVECAR
   LDOWNSAMPLE  =      F    k-point downsampling of WAVECAR
   LCHARG       =      F    write CHGCAR
   LVTOT        =      F    write LOCPOT, total local potential
   LVHAR        =      F    write LOCPOT, Hartree potential only
   LELF         =      F    write electronic localiz. function (ELF)
   LORBIT       =      0    0 simple, 1 ext, 2 COOP (PROOUT), +10 PAW based schemes


 Dipole corrections
   LMONO  =      F    monopole corrections only (constant potential shift)
   LDIPOL =      F    correct potential (dipole corrections)
   IDIPOL =      0    1-x, 2-y, 3-z, 4-all directions 
   EPSILON=  1.0000000 bulk dielectric constant

 Exchange correlation treatment:
   GGA     =    --    GGA type
   LEXCH   =     8    internal setting for exchange type
   VOSKOWN=      0    Vosko Wilk Nusair interpolation
   LHFCALC =     F    Hartree Fock is set to
   LHFONE  =     F    Hartree Fock one center treatment
   AEXX    =    0.0000 exact exchange contribution

 Linear response parameters
   LEPSILON=     F    determine dielectric tensor
   LRPA    =     F    only Hartree local field effects (RPA)
   LNABLA  =     F    use nabla operator in PAW spheres
   LVEL    =     F    velocity operator in full k-point grid
   LINTERFAST=   F  fast interpolation
   KINTER  =     0    interpolate to denser k-point grid
   CSHIFT  =0.1000    complex shift for real part using Kramers Kronig
   OMEGAMAX=  -1.0    maximum frequency
   DEG_THRESHOLD= 0.2000000E-02 threshold for treating states as degnerate
   RTIME   =   -0.100 relaxation time in fs
  (WPLASMAI=    0.000 imaginary part of plasma frequency in eV, 0.658/RTIME)
   DFIELD  = 0.0000000 0.0000000 0.0000000 field for delta impulse in time
 
 Orbital magnetization related:
   ORBITALMAG=     F  switch on orbital magnetization
   LCHIMAG   =     F  perturbation theory with respect to B field
   DQ        =  0.001000  dq finite difference perturbation B field
   LLRAUG    =     F  two centre corrections for induced B field



--------------------------------------------------------------------------------------------------------


 finite differences
   using selective dynamics as specified on POSCAR
   WARNING: If single coordinates had been selected the selection of coordinates
            is made according to the corresponding   d i r e c t   coordinates!
            Don't support selection of single cartesian coordinates -- sorry ...
  !
 charge density and potential will be updated during run
 spin polarized calculation
 RMM-DIIS sequential band-by-band and
  variant of blocked Davidson during initial phase
 perform sub-space diagonalisation
    before iterative eigenvector-optimisation
 modified Broyden-mixing scheme, WC =      100.0
 initial mixing is a Kerker type mixing with AMIX =  0.4000 and BMIX =      1.0000
 Hartree-type preconditioning will be used
 using additional bands          235
 real space projection scheme for non local part
 use partial core corrections
 calculate Harris-corrections to forces 
   (improved forces if not selfconsistent)
 use gradient corrections 
 use of overlap-Matrix (Vanderbilt PP)
 Fermi weights with tetrahedron method with Bloechl corrections


--------------------------------------------------------------------------------------------------------


  energy-cutoff  :      550.00
  volume of cell :     2165.05
      direct lattice vectors                 reciprocal lattice vectors
    10.659999847  0.000000000  0.000000000     0.093808632 -0.054160439  0.000000000
     5.329999924  9.231830672  0.000000000     0.000000000  0.108320878  0.000000000
     0.000000000  0.000000000 22.000000000     0.000000000  0.000000000  0.045454545

  length of vectors
    10.659999847 10.659999847 22.000000000     0.108320878  0.108320878  0.045454545


 
 k-points in units of 2pi/SCALE and weight: mesh auto                               
   0.00000000  0.00000000  0.00000000       0.250
   0.04690432 -0.02708022  0.00000000       0.250
   0.00000000  0.05416044  0.00000000       0.250
   0.04690432  0.02708022  0.00000000       0.250
 
 k-points in reciprocal lattice and weights: mesh auto                               
   0.00000000  0.00000000  0.00000000       0.250
   0.50000000 -0.00000000  0.00000000       0.250
   0.00000000  0.50000000  0.00000000       0.250
   0.50000000  0.50000000  0.00000000       0.250
 
 position of ions in fractional coordinates (direct lattice) 
   0.78673934  0.87826286  0.31601024
   0.04346489  0.88069245  0.31565780
   0.27988974  0.37986347  0.31834733
   0.87058262  0.96394803  0.41999856
   0.12140924  0.46335920  0.42519329
   0.12278626  0.96425748  0.42355213
   0.87494003  0.45861646  0.42466322
   0.37530761  0.95966874  0.41866747
   0.87193382  0.21263945  0.41923461
   0.12590880  0.21159436  0.42061639
   0.62485106  0.95937029  0.42230641
   0.87333474  0.71016014  0.42441507
   0.37491526  0.20823141  0.42309537
   0.37839462  0.71068315  0.42057819
   0.62597045  0.46102912  0.42111642
   0.12450087  0.70852246  0.42941123
   0.62404267  0.21075309  0.42108356
   0.54836409  0.37549437  0.31634259
   0.53461339  0.12446099  0.31447229
   0.54860226  0.12207837  0.04171946
   0.12037701  0.45967589  0.12832010
   0.04476572  0.13359115  0.31461102
   0.04184264  0.13051489  0.03430237
   0.13087669  0.95764103  0.13245935
   0.37471630  0.46002072  0.42385433
   0.45544765  0.54558170  0.21871716
   0.62317428  0.71053424  0.42277645
   0.95643022  0.78883030  0.22063800
   0.79471580  0.62194773  0.31870073
   0.29000938  0.63046519  0.31779263
   0.20210942  0.27946603  0.22525081
   0.70638609  0.54941264  0.22096151
   0.04076193  0.63010111  0.32411256
   0.79601056  0.86182010  0.04358326
   0.05654378  0.86511100  0.03922008
   0.04354811  0.63172365  0.03890931
   0.62768151  0.22351632  0.12936912
   0.38251648  0.95408414  0.13073287
   0.03587649  0.38265267  0.32351023
   0.02789537  0.38111357  0.03922688
   0.87238548  0.21524336  0.12909491
   0.95489858  0.54454128  0.22403723
   0.29696528  0.11538618  0.32054615
   0.54054192  0.62894890  0.32109628
   0.29593874  0.11566849  0.04109769
   0.54915757  0.62535345  0.04512996
   0.29444361  0.38188257  0.03954700
   0.62577798  0.94799811  0.13283874
   0.70730486  0.79295785  0.22011017
   0.86523064  0.70443471  0.12965162
   0.62674088  0.45978399  0.12791088
   0.29934317  0.87307587  0.31714405
   0.30656831  0.86859519  0.04153612
   0.62656079  0.71505450  0.12903147
   0.22502178  0.02765593  0.22758059
   0.54425403  0.38139876  0.03593963
   0.37883082  0.20414358  0.13341050
   0.13702030  0.70469682  0.13275664
   0.70466162  0.05082250  0.22031406
   0.79309183  0.12936974  0.31614414
   0.53894532  0.87262639  0.31664670
   0.79690904  0.12300803  0.03589815
   0.54639677  0.86991640  0.03703501
   0.20823500  0.54201774  0.22356490
   0.95147365  0.29694783  0.22202388
   0.87203635  0.96412677  0.12966428
   0.71590079  0.28974299  0.22354710
   0.45742378  0.29209358  0.22086431
   0.87549525  0.45703326  0.12894021
   0.12808024  0.20618715  0.12934578
   0.79201094  0.62176511  0.04149761
   0.29752238  0.62870438  0.04356032
   0.38614974  0.71252577  0.12966825
   0.38234618  0.45146388  0.12688447
   0.79412060  0.37855605  0.32016003
   0.79142063  0.37689392  0.04093851
   0.95630934  0.05261633  0.22178905
   0.45844826  0.79649618  0.22465661
   0.21515853  0.79736133  0.22474341
   0.46225310  0.02941302  0.22251578
   0.12582552  0.84593670  0.47667549
 
 position of ions in cartesian coordinates  (Angst):
  13.06778221  8.10797399  6.95222535
   5.15742646  8.13040359  6.94447152
   5.00829691  3.50683526  7.00364135
  14.41825353  8.89900503  9.23996838
   3.76392700  4.27765370  9.35425228
   6.44839380  8.90186180  9.31814678
  11.77128633  4.23386951  9.34259079
   9.11581332  8.85949929  9.21068434
  10.42818266  1.96305144  9.22316134
   2.46998571  1.95340326  9.25356047
  11.77435585  8.85674410  9.29074105
  13.09490169  6.55607817  9.33713161
   5.10647002  1.92235709  9.30809811
   7.82162774  6.56090652  9.25272013
   9.13013011  4.25614281  9.26456122
   5.10360394  6.54095938  9.44704706
   7.77560868  1.94563680  9.26383834
   7.84694605  3.46650047  6.95953691
   6.36235571  1.14900281  6.91839048
   6.49877769  1.12700682  0.91782815
   3.73329140  4.24365001  2.82304227
   1.18924336  1.23329087  6.92144244
   1.14168689  1.20489139  0.75465211
   6.49937211  8.84077982  2.91410569
   6.44638608  4.24683337  9.32479518
   7.76302235  5.03671788  4.81177757
  10.43018522  6.55953180  9.30108192
  14.40001150  7.28234780  4.85403605
  11.78665170  5.74171613  7.01141596
   6.45187941  5.82034792  6.99143793
   3.64404035  2.57998306  4.95551781
  10.45844500  5.07208448  4.86115323
   3.79296099  5.81698674  7.13047623
  13.07897347  7.95617723  0.95883175
   5.21379828  7.98655826  0.86284167
   3.83130979  5.83196573  0.85600479
   7.88242681  2.06346482  2.84612068
   9.16289403  8.80794326  2.87612304
   2.42198204  3.53258462  7.11722508
   2.32869997  3.51837592  0.86299137
  10.44687620  1.98709023  2.84008810
  13.08162377  5.02711293  4.92881902
   3.78065814  1.06522566  7.05201533
   9.11447433  5.80634972  7.06411814
   3.77121995  1.06783187  0.90414915
   9.18715339  5.77315714  0.99285907
   5.17420286  3.52547522  0.87003394
  11.72362308  8.75175804  2.92245229
  11.76633502  7.32045261  4.84242380
  12.97799537  6.50322193  2.85233561
   9.13170631  4.24464793  2.81403934
   7.84449242  8.06008860  6.97716904
   7.89763048  8.01872375  0.91379463
  10.49037833  6.60126203  2.83869239
   2.54613829  0.25531490  5.00677295
   7.83460323  3.52100880  0.79067188
   5.12642169  1.88461893  2.93503107
   5.21667036  6.50564171  2.92064609
   7.78257666  0.46918467  4.84690935
   9.14389946  1.19431954  6.95517105
  10.39625562  8.05593908  6.96622747
   9.15068307  1.13558928  0.78975929
  10.46124387  8.03092093  0.81477030
   5.10873956  5.00381604  4.91842781
  11.72544084  2.74137208  4.88452529
  14.43470298  8.90065509  2.85261421
   9.17583247  2.67485823  4.91803631
   6.43299620  2.69655851  4.85901492
  11.76876646  4.21925362  2.83668457
   2.46431279  1.90348482  2.84560726
  11.75684446  5.74003023  0.91294740
   6.52258279  5.80409234  0.95832694
   7.91411848  6.57791728  2.85270146
   6.48211261  4.16783809  2.79145838
  10.48302919  3.49476534  7.04352062
  10.44538833  3.47942085  0.90064720
  10.47470250  0.48574506  4.87935918
   9.13238294  7.35311787  4.94244540
   6.54352571  7.36110475  4.94435504
   5.08438940  0.27153602  4.89534721
   5.85014254  7.80954439 10.48686077
 


--------------------------------------------------------------------------------------------------------


 k-point  1 :   0.0000 0.0000 0.0000  plane waves:   63475
 k-point  2 :   0.5000-0.0000 0.0000  plane waves:   63428
 k-point  3 :   0.0000 0.5000 0.0000  plane waves:   63428
 k-point  4 :   0.5000 0.5000 0.0000  plane waves:   63428

 maximum and minimum number of plane-waves per node :     63475    63428

 maximum number of plane-waves:     63475
 maximum index in each direction: 
   IXMAX=   20   IYMAX=   20   IZMAX=   42
   IXMIN=  -20   IYMIN=  -20   IZMIN=  -42


 serial   3D FFT for wavefunctions
 parallel 3D FFT for charge:
    minimum data exchange during FFTs selected (reduces bandwidth)


 total amount of memory used by VASP MPI-rank0   369873. kBytes
=======================================================================

   base      :      30000. kBytes
   nonlr-proj:      96570. kBytes
   fftplans  :      12162. kBytes
   grid      :     120476. kBytes
   one-center:       2519. kBytes
   wavefun   :     108146. kBytes
 
     INWAV:  cpu time    0.0001: real time    0.0005
 Broyden mixing: mesh for mixing (old mesh)
   NGX = 41   NGY = 41   NGZ = 85
  (NGX  =168   NGY  =168   NGZ  =336)
  gives a total of 142885 points

 initial charge density was supplied:
 charge density of overlapping atoms calculated
 number of electron     778.0000000 magnetization     231.0000000
 keeping initial charge density in first step


--------------------------------------------------------------------------------------------------------


 Maximum index for non-local projection operator         7415
 Maximum index for augmentation-charges         1443 (set IRDMAX)


--------------------------------------------------------------------------------------------------------


 First call to EWALD:  gamma=   0.137
 Maximum number of real-space cells 4x 4x 2
 Maximum number of reciprocal cells 2x 2x 4

    FEWALD:  cpu time    0.0042: real time    0.0042


--------------------------------------- Iteration      1(   1)  ---------------------------------------


    POTLOK:  cpu time    0.4724: real time    0.5631
    SETDIJ:  cpu time    0.0323: real time    0.0326
     EDDAV:  cpu time   59.5401: real time   59.8629
 BZINTS: Fermi energy: 17.502842;778.000000 electrons
         Band energy:7816.964377;  BLOECHL correction: -0.012744
       DOS:  cpu time    0.0220: real time    0.0396
    --------------------------------------------
      LOOP:  cpu time   60.0668: real time   60.4983

 eigenvalue-minimisations  :  9984
 total energy-change (2. order) : 0.7573101E+04  (-0.3345541E+05)
 number of electron     778.0000000 magnetization     231.0000000
 augmentation part      778.0000000 magnetization     231.0000000

 Free energy of the ion-electron system (eV)
  ---------------------------------------------------
  alpha Z        PSCENC =      2197.15539535
  Ewald energy   TEWEN  =    222928.16728233
  -Hartree energ DENC   =   -295070.57823049
  -exchange      EXHF   =         0.00000000
  -V(xc)+E(xc)   XCENC  =      1384.64597792
  PAW double counting   =     64136.80006862   -66038.70876209
  entropy T*S    EENTRO =         0.00000000
  eigenvalues    EBANDS =      7816.96437696
  atomic energy  EATOM  =     70218.65458108
  Solvation  Ediel_sol  =         0.00000000
  ---------------------------------------------------
  free energy    TOTEN  =      7573.10068968 eV

  energy without entropy =     7573.10068968  energy(sigma->0) =     7573.10068968


--------------------------------------------------------------------------------------------------------




--------------------------------------- Iteration      1(   2)  ---------------------------------------


     EDDAV:  cpu time   60.2014: real time   60.4942
 BZINTS: Fermi energy:  5.755784;778.000000 electrons
         Band energy: 884.172873;  BLOECHL correction: -0.069917
       DOS:  cpu time    0.0223: real time    0.0230
    --------------------------------------------
      LOOP:  cpu time   60.2237: real time   60.5172

 eigenvalue-minimisations  : 10128
 total energy-change (2. order) :-0.6932792E+04  (-0.6151087E+04)
 number of electron     778.0000000 magnetization     231.0000000
 augmentation part      778.0000000 magnetization     231.0000000

 Free energy of the ion-electron system (eV)
  ---------------------------------------------------
  alpha Z        PSCENC =      2197.15539535
  Ewald energy   TEWEN  =    222928.16728233
  -Hartree energ DENC   =   -295070.57823049
  -exchange      EXHF   =         0.00000000
  -V(xc)+E(xc)   XCENC  =      1384.64597792
  PAW double counting   =     64136.80006862   -66038.70876209
  entropy T*S    EENTRO =         0.00000000
  eigenvalues    EBANDS =       884.17287340
  atomic energy  EATOM  =     70218.65458108
  Solvation  Ediel_sol  =         0.00000000
  ---------------------------------------------------
  free energy    TOTEN  =       640.30918612 eV

  energy without entropy =      640.30918612  energy(sigma->0) =      640.30918612


--------------------------------------------------------------------------------------------------------




--------------------------------------- Iteration      1(   3)  ---------------------------------------


     EDDAV:  cpu time   60.5904: real time   60.8133
 BZINTS: Fermi energy:  3.430700;778.000000 electrons
         Band energy:-185.216693;  BLOECHL correction: -0.046664
       DOS:  cpu time    0.0436: real time    0.3856
    --------------------------------------------
      LOOP:  cpu time   60.6339: real time   61.1990

 eigenvalue-minimisations  : 10224
 total energy-change (2. order) :-0.1069390E+04  (-0.8934694E+03)
 number of electron     778.0000000 magnetization     231.0000000
 augmentation part      778.0000000 magnetization     231.0000000

 Free energy of the ion-electron system (eV)
  ---------------------------------------------------
  alpha Z        PSCENC =      2197.15539535
  Ewald energy   TEWEN  =    222928.16728233
  -Hartree energ DENC   =   -295070.57823049
  -exchange      EXHF   =         0.00000000
  -V(xc)+E(xc)   XCENC  =      1384.64597792
  PAW double counting   =     64136.80006862   -66038.70876209
  entropy T*S    EENTRO =         0.00000000
  eigenvalues    EBANDS =      -185.21669276
  atomic energy  EATOM  =     70218.65458108
  Solvation  Ediel_sol  =         0.00000000
  ---------------------------------------------------
  free energy    TOTEN  =      -429.08038004 eV

  energy without entropy =     -429.08038004  energy(sigma->0) =     -429.08038004


--------------------------------------------------------------------------------------------------------




--------------------------------------- Iteration      1(   4)  ---------------------------------------


     EDDAV:  cpu time   69.0581: real time   69.3139
 BZINTS: Fermi energy:  3.298722;778.000000 electrons
         Band energy:-251.345122;  BLOECHL correction: -0.013730
       DOS:  cpu time    0.0226: real time    0.0234
    --------------------------------------------
      LOOP:  cpu time   69.0807: real time   69.3374

 eigenvalue-minimisations  : 12048
 total energy-change (2. order) :-0.6612843E+02  (-0.6370617E+02)
 number of electron     778.0000000 magnetization     231.0000000
 augmentation part      778.0000000 magnetization     231.0000000

 Free energy of the ion-electron system (eV)
  ---------------------------------------------------
  alpha Z        PSCENC =      2197.15539535
  Ewald energy   TEWEN  =    222928.16728233
  -Hartree energ DENC   =   -295070.57823049
  -exchange      EXHF   =         0.00000000
  -V(xc)+E(xc)   XCENC  =      1384.64597792
  PAW double counting   =     64136.80006862   -66038.70876209
  entropy T*S    EENTRO =         0.00000000
  eigenvalues    EBANDS =      -251.34512243
  atomic energy  EATOM  =     70218.65458108
  Solvation  Ediel_sol  =         0.00000000
  ---------------------------------------------------
  free energy    TOTEN  =      -495.20880971 eV

  energy without entropy =     -495.20880971  energy(sigma->0) =     -495.20880971


--------------------------------------------------------------------------------------------------------




--------------------------------------- Iteration      1(   5)  ---------------------------------------


     EDDAV:  cpu time   69.4482: real time   69.7304
 BZINTS: Fermi energy:  3.294855;778.000000 electrons
         Band energy:-253.526844;  BLOECHL correction: -0.013075
       DOS:  cpu time    0.0257: real time    0.0265
    CHARGE:  cpu time    2.6869: real time    2.6942
    MIXING:  cpu time    0.0106: real time    0.0107
    --------------------------------------------
      LOOP:  cpu time   72.1714: real time   72.4619

 eigenvalue-minimisations  : 12144
 total energy-change (2. order) :-0.2181721E+01  (-0.2177187E+01)
 number of electron     778.0000028 magnetization     216.5806045
 augmentation part      334.9609030 magnetization     183.9741966

 Broyden mixing:
  rms(total) = 0.11747E+02    rms(broyden)= 0.11747E+02
  rms(prec ) = 0.12067E+02
  weight for this iteration     100.00

 Free energy of the ion-electron system (eV)
  ---------------------------------------------------
  alpha Z        PSCENC =      2197.15539535
  Ewald energy   TEWEN  =    222928.16728233
  -Hartree energ DENC   =   -295070.57823049
  -exchange      EXHF   =         0.00000000
  -V(xc)+E(xc)   XCENC  =      1384.64597792
  PAW double counting   =     64136.80006862   -66038.70876209
  entropy T*S    EENTRO =         0.00000000
  eigenvalues    EBANDS =      -253.52684379
  atomic energy  EATOM  =     70218.65458108
  Solvation  Ediel_sol  =         0.00000000
  ---------------------------------------------------
  free energy    TOTEN  =      -497.39053107 eV

  energy without entropy =     -497.39053107  energy(sigma->0) =     -497.39053107


--------------------------------------------------------------------------------------------------------




--------------------------------------- Iteration      1(   6)  ---------------------------------------


    POTLOK:  cpu time    0.4061: real time    0.4202
    SETDIJ:  cpu time    0.0317: real time    0.0319
    EDDIAG:  cpu time   10.0516: real time   10.0887
  RMM-DIIS:  cpu time   37.7768: real time   37.9338
    ORTHCH:  cpu time    1.6556: real time    1.6599
 BZINTS: Fermi energy:  1.569511;778.000000 electrons
         Band energy:***********;  BLOECHL correction: -0.033193
       DOS:  cpu time    0.0265: real time    0.0266
    CHARGE:  cpu time    2.6721: real time    2.6794
    MIXING:  cpu time    0.0104: real time    0.0111
    --------------------------------------------
      LOOP:  cpu time   52.6309: real time   52.8515

 eigenvalue-minimisations  : 10043
 total energy-change (2. order) :-0.1692372E+03  (-0.8423019E+02)
 number of electron     778.0000036 magnetization     212.5092960
 augmentation part      406.3750786 magnetization     179.5500906

 Broyden mixing:
  rms(total) = 0.19728E+02    rms(broyden)= 0.19728E+02
  rms(prec ) = 0.25648E+02
  weight for this iteration     100.00

 eigenvalues of (default mixing * dielectric matrix)
  average eigenvalue GAMMA=   0.2243
  0.2243

 Free energy of the ion-electron system (eV)
  ---------------------------------------------------
  alpha Z        PSCENC =      2197.15539535
  Ewald energy   TEWEN  =    222928.16728233
  -Hartree energ DENC   =   -293453.00914449
  -exchange      EXHF   =         0.00000000
  -V(xc)+E(xc)   XCENC  =      1338.12858063
  PAW double counting   =     68946.35694488   -70637.40696889
  entropy T*S    EENTRO =         0.00000000
  eigenvalues    EBANDS =     -2204.67441886
  atomic energy  EATOM  =     70218.65458108
  Solvation  Ediel_sol  =         0.00000000
  ---------------------------------------------------
  free energy    TOTEN  =      -666.62774799 eV

  energy without entropy =     -666.62774799  energy(sigma->0) =     -666.62774799


--------------------------------------------------------------------------------------------------------




--------------------------------------- Iteration      1(   7)  ---------------------------------------


    POTLOK:  cpu time    0.4221: real time    0.4759
    SETDIJ:  cpu time    0.0317: real time    0.0318
    EDDIAG:  cpu time   10.0783: real time   10.1056
  RMM-DIIS:  cpu time   37.7217: real time   37.8232
    ORTHCH:  cpu time    1.6731: real time    1.6799
 BZINTS: Fermi energy:  2.994426;778.000000 electrons
         Band energy:***********;  BLOECHL correction: -0.008406
       DOS:  cpu time    0.0246: real time    0.0247
    CHARGE:  cpu time    2.6753: real time    2.6824
    MIXING:  cpu time    0.0102: real time    0.0102
    --------------------------------------------
      LOOP:  cpu time   52.6369: real time   52.8336

 eigenvalue-minimisations  :  9999
 total energy-change (2. order) : 0.1265300E+03  (-0.1465757E+02)
 number of electron     778.0000039 magnetization     207.8648268
 augmentation part      366.2454566 magnetization     165.5227023

 Broyden mixing:
  rms(total) = 0.15636E+02    rms(broyden)= 0.15636E+02
  rms(prec ) = 0.21080E+02
  weight for this iteration     100.00

 eigenvalues of (default mixing * dielectric matrix)
  average eigenvalue GAMMA=   0.2666
  0.3669  0.1663

 Free energy of the ion-electron system (eV)
  ---------------------------------------------------
  alpha Z        PSCENC =      2197.15539535
  Ewald energy   TEWEN  =    222928.16728233
  -Hartree energ DENC   =   -294142.97717602
  -exchange      EXHF   =         0.00000000
  -V(xc)+E(xc)   XCENC  =      1358.44578381
  PAW double counting   =     69992.59120508   -71844.39398897
  entropy T*S    EENTRO =         0.00000000
  eigenvalues    EBANDS =     -1247.74083512
  atomic energy  EATOM  =     70218.65458108
  Solvation  Ediel_sol  =         0.00000000
  ---------------------------------------------------
  free energy    TOTEN  =      -540.09775246 eV

  energy without entropy =     -540.09775246  energy(sigma->0) =     -540.09775246


--------------------------------------------------------------------------------------------------------




--------------------------------------- Iteration      1(   8)  ---------------------------------------


    POTLOK:  cpu time    0.4047: real time    0.4161
    SETDIJ:  cpu time    0.0316: real time    0.0316
    EDDIAG:  cpu time   10.0576: real time   10.0898
  RMM-DIIS:  cpu time   37.7180: real time   37.8196
    ORTHCH:  cpu time    1.6437: real time    1.6851
 BZINTS: Fermi energy:  2.599534;778.000000 electrons
         Band energy:-858.104161;  BLOECHL correction: -0.003335
       DOS:  cpu time    0.0238: real time    0.0238
    CHARGE:  cpu time    2.6651: real time    2.6721
    MIXING:  cpu time    0.0114: real time    0.0117
    --------------------------------------------
      LOOP:  cpu time   52.5559: real time   52.7498

 eigenvalue-minimisations  : 10008
 total energy-change (2. order) : 0.6194883E+02  (-0.9243095E+01)
[...]
      9.114474  5.806350  7.064118            0           0           0  
      3.771220  1.067832  0.904149            0           0           0  
      9.187153  5.773157  0.992859            0           0           0  
      5.174203  3.525475  0.870034            0           0           0  
     11.723623  8.751758  2.922452            0           0           0  
     11.766335  7.320453  4.842424            0           0           0  
     12.977995  6.503222  2.852336            0           0           0  
      9.131706  4.244648  2.814039            0           0           0  
      7.844492  8.060089  6.977169            0           0           0  
      7.897630  8.018724  0.913795            0           0           0  
     10.490378  6.601262  2.838692            0           0           0  
      2.546138  0.255315  5.006773            0           0           0  
      7.834603  3.521009  0.790672            0           0           0  
      5.126422  1.884619  2.935031            0           0           0  
      5.216670  6.505642  2.920646            0           0           0  
      7.782577  0.469185  4.846909            0           0           0  
      9.143899  1.194320  6.955171            0           0           0  
     10.396256  8.055939  6.966227            0           0           0  
      9.150683  1.135589  0.789759            0           0           0  
     10.461244  8.030921  0.814770            0           0           0  
      5.108740  5.003816  4.918428            0           0           0  
     11.725441  2.741372  4.884525            0           0           0  
     14.434703  8.900655  2.852614            0           0           0  
      9.175832  2.674858  4.918036            0           0           0  
      6.432996  2.696559  4.859015            0           0           0  
     11.768766  4.219254  2.836685            0           0           0  
      2.464313  1.903485  2.845607            0           0           0  
     11.756844  5.740030  0.912947            0           0           0  
      6.522583  5.804092  0.958327            0           0           0  
      7.914118  6.577917  2.852701            0           0           0  
      6.482113  4.167838  2.791458            0           0           0  
     10.483029  3.494765  7.043521            0           0           0  
     10.445388  3.479421  0.900647            0           0           0  
     10.474703  0.485745  4.879359            0           0           0  
      9.132383  7.353118  4.942445            0           0           0  
      6.543526  7.361105  4.944355            0           0           0  
      5.084389  0.271536  4.895347            0           0           0  
      5.850143  7.809544 10.486861    -0.119234   -0.248157    0.961354  
 
   2 f  =   24.475245 THz   153.782499 2PiTHz  816.406265 cm-1   101.221513 meV
             X         Y         Z           dx          dy          dz
     13.067782  8.107974  6.952225            0           0           0  
      5.157426  8.130404  6.944472            0           0           0  
      5.008297  3.506835  7.003641            0           0           0  
     14.418254  8.899005  9.239968            0           0           0  
      3.763927  4.277654  9.354252            0           0           0  
      6.448394  8.901862  9.318147            0           0           0  
     11.771286  4.233870  9.342591            0           0           0  
      9.115813  8.859499  9.210684            0           0           0  
     10.428183  1.963051  9.223161            0           0           0  
      2.469986  1.953403  9.253560            0           0           0  
     11.774356  8.856744  9.290741            0           0           0  
     13.094902  6.556078  9.337132            0           0           0  
      5.106470  1.922357  9.308098            0           0           0  
      7.821628  6.560907  9.252720            0           0           0  
      9.130130  4.256143  9.264561            0           0           0  
      5.103604  6.540959  9.447047            0           0           0  
      7.775609  1.945637  9.263838            0           0           0  
      7.846946  3.466500  6.959537            0           0           0  
      6.362356  1.149003  6.918390            0           0           0  
      6.498778  1.127007  0.917828            0           0           0  
      3.733291  4.243650  2.823042            0           0           0  
      1.189243  1.233291  6.921442            0           0           0  
      1.141687  1.204891  0.754652            0           0           0  
      6.499372  8.840780  2.914106            0           0           0  
      6.446386  4.246833  9.324795            0           0           0  
      7.763022  5.036718  4.811778            0           0           0  
     10.430185  6.559532  9.301082            0           0           0  
     14.400011  7.282348  4.854036            0           0           0  
     11.786652  5.741716  7.011416            0           0           0  
      6.451879  5.820348  6.991438            0           0           0  
      3.644040  2.579983  4.955518            0           0           0  
     10.458445  5.072084  4.861153            0           0           0  
      3.792961  5.816987  7.130476            0           0           0  
     13.078973  7.956177  0.958832            0           0           0  
      5.213798  7.986558  0.862842            0           0           0  
      3.831310  5.831966  0.856005            0           0           0  
      7.882427  2.063465  2.846121            0           0           0  
      9.162894  8.807943  2.876123            0           0           0  
      2.421982  3.532585  7.117225            0           0           0  
      2.328700  3.518376  0.862991            0           0           0  
     10.446876  1.987090  2.840088            0           0           0  
     13.081624  5.027113  4.928819            0           0           0  
      3.780658  1.065226  7.052015            0           0           0  
      9.114474  5.806350  7.064118            0           0           0  
      3.771220  1.067832  0.904149            0           0           0  
      9.187153  5.773157  0.992859            0           0           0  
      5.174203  3.525475  0.870034            0           0           0  
     11.723623  8.751758  2.922452            0           0           0  
     11.766335  7.320453  4.842424            0           0           0  
     12.977995  6.503222  2.852336            0           0           0  
      9.131706  4.244648  2.814039            0           0           0  
      7.844492  8.060089  6.977169            0           0           0  
      7.897630  8.018724  0.913795            0           0           0  
     10.490378  6.601262  2.838692            0           0           0  
      2.546138  0.255315  5.006773            0           0           0  
      7.834603  3.521009  0.790672            0           0           0  
      5.126422  1.884619  2.935031            0           0           0  
      5.216670  6.505642  2.920646            0           0           0  
      7.782577  0.469185  4.846909            0           0           0  
      9.143899  1.194320  6.955171            0           0           0  
     10.396256  8.055939  6.966227            0           0           0  
      9.150683  1.135589  0.789759            0           0           0  
     10.461244  8.030921  0.814770            0           0           0  
      5.108740  5.003816  4.918428            0           0           0  
     11.725441  2.741372  4.884525            0           0           0  
     14.434703  8.900655  2.852614            0           0           0  
      9.175832  2.674858  4.918036            0           0           0  
      6.432996  2.696559  4.859015            0           0           0  
     11.768766  4.219254  2.836685            0           0           0  
      2.464313  1.903485  2.845607            0           0           0  
     11.756844  5.740030  0.912947            0           0           0  
      6.522583  5.804092  0.958327            0           0           0  
      7.914118  6.577917  2.852701            0           0           0  
      6.482113  4.167838  2.791458            0           0           0  
     10.483029  3.494765  7.043521            0           0           0  
     10.445388  3.479421  0.900647            0           0           0  
     10.474703  0.485745  4.879359            0           0           0  
      9.132383  7.353118  4.942445            0           0           0  
      6.543526  7.361105  4.944355            0           0           0  
      5.084389  0.271536  4.895347            0           0           0  
      5.850143  7.809544 10.486861     0.426136    0.861753    0.275299  
 
   3 f  =    7.325035 THz    46.024553 2PiTHz  244.336865 cm-1    30.293921 meV
             X         Y         Z           dx          dy          dz
     13.067782  8.107974  6.952225            0           0           0  
      5.157426  8.130404  6.944472            0           0           0  
      5.008297  3.506835  7.003641            0           0           0  
     14.418254  8.899005  9.239968            0           0           0  
      3.763927  4.277654  9.354252            0           0           0  
      6.448394  8.901862  9.318147            0           0           0  
     11.771286  4.233870  9.342591            0           0           0  
      9.115813  8.859499  9.210684            0           0           0  
     10.428183  1.963051  9.223161            0           0           0  
      2.469986  1.953403  9.253560            0           0           0  
     11.774356  8.856744  9.290741            0           0           0  
     13.094902  6.556078  9.337132            0           0           0  
      5.106470  1.922357  9.308098            0           0           0  
      7.821628  6.560907  9.252720            0           0           0  
      9.130130  4.256143  9.264561            0           0           0  
      5.103604  6.540959  9.447047            0           0           0  
      7.775609  1.945637  9.263838            0           0           0  
      7.846946  3.466500  6.959537            0           0           0  
      6.362356  1.149003  6.918390            0           0           0  
      6.498778  1.127007  0.917828            0           0           0  
      3.733291  4.243650  2.823042            0           0           0  
      1.189243  1.233291  6.921442            0           0           0  
      1.141687  1.204891  0.754652            0           0           0  
      6.499372  8.840780  2.914106            0           0           0  
      6.446386  4.246833  9.324795            0           0           0  
      7.763022  5.036718  4.811778            0           0           0  
     10.430185  6.559532  9.301082            0           0           0  
     14.400011  7.282348  4.854036            0           0           0  
     11.786652  5.741716  7.011416            0           0           0  
      6.451879  5.820348  6.991438            0           0           0  
      3.644040  2.579983  4.955518            0           0           0  
     10.458445  5.072084  4.861153            0           0           0  
      3.792961  5.816987  7.130476            0           0           0  
     13.078973  7.956177  0.958832            0           0           0  
      5.213798  7.986558  0.862842            0           0           0  
      3.831310  5.831966  0.856005            0           0           0  
      7.882427  2.063465  2.846121            0           0           0  
      9.162894  8.807943  2.876123            0           0           0  
      2.421982  3.532585  7.117225            0           0           0  
      2.328700  3.518376  0.862991            0           0           0  
     10.446876  1.987090  2.840088            0           0           0  
     13.081624  5.027113  4.928819            0           0           0  
      3.780658  1.065226  7.052015            0           0           0  
      9.114474  5.806350  7.064118            0           0           0  
      3.771220  1.067832  0.904149            0           0           0  
      9.187153  5.773157  0.992859            0           0           0  
      5.174203  3.525475  0.870034            0           0           0  
     11.723623  8.751758  2.922452            0           0           0  
     11.766335  7.320453  4.842424            0           0           0  
     12.977995  6.503222  2.852336            0           0           0  
      9.131706  4.244648  2.814039            0           0           0  
      7.844492  8.060089  6.977169            0           0           0  
      7.897630  8.018724  0.913795            0           0           0  
     10.490378  6.601262  2.838692            0           0           0  
      2.546138  0.255315  5.006773            0           0           0  
      7.834603  3.521009  0.790672            0           0           0  
      5.126422  1.884619  2.935031            0           0           0  
      5.216670  6.505642  2.920646            0           0           0  
      7.782577  0.469185  4.846909            0           0           0  
      9.143899  1.194320  6.955171            0           0           0  
     10.396256  8.055939  6.966227            0           0           0  
      9.150683  1.135589  0.789759            0           0           0  
     10.461244  8.030921  0.814770            0           0           0  
      5.108740  5.003816  4.918428            0           0           0  
     11.725441  2.741372  4.884525            0           0           0  
     14.434703  8.900655  2.852614            0           0           0  
      9.175832  2.674858  4.918036            0           0           0  
      6.432996  2.696559  4.859015            0           0           0  
     11.768766  4.219254  2.836685            0           0           0  
      2.464313  1.903485  2.845607            0           0           0  
     11.756844  5.740030  0.912947            0           0           0  
      6.522583  5.804092  0.958327            0           0           0  
      7.914118  6.577917  2.852701            0           0           0  
      6.482113  4.167838  2.791458            0           0           0  
     10.483029  3.494765  7.043521            0           0           0  
     10.445388  3.479421  0.900647            0           0           0  
     10.474703  0.485745  4.879359            0           0           0  
      9.132383  7.353118  4.942445            0           0           0  
      6.543526  7.361105  4.944355            0           0           0  
      5.084389  0.271536  4.895347            0           0           0  
      5.850143  7.809544 10.486861     0.896767   -0.442493   -0.002999  
 
 Finite differences POTIM=  1.500000000000000E-002
  LATTYP: Found a hexagonal cell.
 ALAT       =    10.6599998474
 C/A-ratio  =     2.0637898982
  
  Lattice vectors:
  
 A1 = (   5.3299999237,  -9.2318306722,   0.0000000000)
 A2 = ( -10.6599998474,   0.0000000000,   0.0000000000)
 A3 = (   0.0000000000,   0.0000000000, -22.0000000000)


Analysis of symmetry for initial positions (statically):
=====================================================================
 Subroutine PRICEL returns:
 Original cell was already a primitive cell.
 

 Routine SETGRP: Setting up the symmetry group for a 
 hexagonal supercell.


 Subroutine GETGRP returns: Found  1 space group operations
 (whereof  1 operations were pure point group operations)
 out of a pool of 24 trial point group operations.


The static configuration has the point symmetry C_1 .


Analysis of symmetry for dynamics (positions and initial velocities):
=====================================================================
 Subroutine PRICEL returns:
 Original cell was already a primitive cell.
 

 Routine SETGRP: Setting up the symmetry group for a 
 hexagonal supercell.


 Subroutine GETGRP returns: Found  1 space group operations
 (whereof  1 operations were pure point group operations)
 out of a pool of 24 trial point group operations.


The dynamic configuration has the point symmetry C_1 .


Analysis of constrained symmetry for selective dynamics:
=====================================================================
 Subroutine PRICEL returns:
 Original cell was already a primitive cell.
 

 Routine SETGRP: Setting up the symmetry group for a 
 hexagonal supercell.


 Subroutine GETGRP returns: Found  1 space group operations
 (whereof  1 operations were pure point group operations)
 out of a pool of 24 trial point group operations.


The constrained configuration has the point symmetry C_1 .


Analysis of structural, dynamic, and magnetic symmetry:
=====================================================================
 Subroutine PRICEL returns:
 Original cell was already a primitive cell.
 

 Routine SETGRP: Setting up the symmetry group for a 
 hexagonal supercell.


 Subroutine GETGRP returns: Found  1 space group operations
 (whereof  1 operations were pure point group operations)
 out of a pool of 24 trial point group operations.


The magnetic configuration has the point symmetry C_1 .


 Subroutine INISYM returns: Found  1 space group operations
 (whereof  1 operations are pure point group operations),
 and found     1 'primitive' translations

 
 KPOINTS: mesh auto                               

Automatic generation of k-mesh.
Space group operators:
 irot       det(A)        alpha          n_x          n_y          n_z        tau_x        tau_y        tau_z
    1     1.000000     0.000000     1.000000     0.000000     0.000000     0.000000     0.000000     0.000000
 
 Subroutine IBZKPT returns following result:
 ===========================================
 
 Found      4 irreducible k-points:
 
 Following reciprocal coordinates:
            Coordinates               Weight
  0.000000  0.000000  0.000000      1.000000
  0.500000 -0.000000  0.000000      1.000000
  0.000000  0.500000  0.000000      1.000000
  0.500000  0.500000  0.000000      1.000000
 
 Following cartesian coordinates:
            Coordinates               Weight
  0.000000  0.000000  0.000000      1.000000
  0.046904 -0.027080  0.000000      1.000000
  0.000000  0.054160  0.000000      1.000000
  0.046904  0.027080  0.000000      1.000000
 
 TETIRR: Found     12 inequivalent tetrahedra from       24
     LOOP+:  cpu time  794.0564: real time  798.4601
    4ORBIT:  cpu time    0.0000: real time    0.0000
 BZINTS: Fermi energy:  1.934807;778.000000 electrons
         Band energy:-744.533737;  BLOECHL correction: -0.279471

 total amount of memory used by VASP MPI-rank0   369873. kBytes
=======================================================================

   base      :      30000. kBytes
   nonlr-proj:      96570. kBytes
   fftplans  :      12162. kBytes
   grid      :     120476. kBytes
   one-center:       2519. kBytes
   wavefun   :     108146. kBytes
 
  
  
 General timing and accounting informations for this job:
 ========================================================
  
                  Total CPU time used (sec):     8829.312
                            User time (sec):     8793.603
                          System time (sec):       35.710
                         Elapsed time (sec):     8878.694
  
                   Maximum memory used (kb):      707748.
                   Average memory used (kb):           0.
  
                          Minor page faults:      3291326
                          Major page faults:          167
                 Voluntary context switches:         6516
