 vasp.5.4.4.18Apr17-6-g9f103f2a35 (build Oct 25 2019 11:13:22) complex          
  
 executed on             LinuxIFC date 2021.10.30  01:39:27
 running on   48 total cores
 distrk:  each k-point on   48 cores,    1 groups
 distr:  one band on NCORES_PER_BAND=   4 cores,   12 groups


--------------------------------------------------------------------------------------------------------


 INCAR:
 POTCAR:    PAW_PBE Pt 04Feb2005                  
 POTCAR:    PAW_PBE Fe 06Sep2000                  
 POTCAR:    PAW_PBE Co 02Aug2007                  
 POTCAR:    PAW_PBE Cu 22Jun2005                  
 POTCAR:    PAW_PBE Ni 02Aug2007                  
 POTCAR:    PAW_PBE H 15Jun2001                   
 POTCAR:    PAW_PBE Pt 04Feb2005                  
   VRHFIN =Pt: s1d9                                                             
   LEXCH  = PE                                                                  
   EATOM  =   729.1176 eV,   53.5886 Ry                                         
                                                                                
   TITEL  = PAW_PBE Pt 04Feb2005                                                
   LULTRA =        F    use ultrasoft PP ?                                      
   IUNSCR =        1    unscreen: 0-lin 1-nonlin 2-no                           
   RPACOR =    2.330    partial core radius                                     
   POMASS =  195.080; ZVAL   =   10.000    mass and valenz                      
   RCORE  =    2.600    outmost cutoff radius                                   
   RWIGS  =    2.750; RWIGS  =    1.455    wigner-seitz radius (au A)           
   ENMAX  =  230.283; ENMIN  =  172.712 eV                                      
   ICORE  =        3    local potential                                         
   LCOR   =        T    correct aug charges                                     
   LPAW   =        T    paw PP                                                  
   EAUG   =  358.966                                                            
   DEXC   =    0.000                                                            
   RMAX   =    2.658    core radius for proj-oper                               
   RAUG   =    1.300    factor for augmentation sphere                          
   RDEP   =    2.761    radius for radial grids                                 
   RDEPT  =    2.203    core radius for aug-charge                              
                                                                                
   Atomic configuration                                                         
   16 entries                                                                   
     n  l   j            E        occ.                                          
     1  0  0.50    -78401.1885   2.0000                                         
     2  0  0.50    -13770.7750   2.0000                                         
     2  1  1.50    -11931.0468   6.0000                                         
     3  0  0.50     -3234.7234   2.0000                                         
     3  1  1.50     -2699.2216   6.0000                                         
     3  2  2.50     -2119.5714  10.0000                                         
     4  0  0.50      -695.1528   2.0000                                         
     4  1  1.50      -519.6034   6.0000                                         
     4  2  2.50      -306.6786  10.0000                                         
     4  3  3.50       -70.1041  14.0000                                         
     5  0  0.50      -101.7747   2.0000                                         
     5  1  1.50       -55.9873   6.0000                                         
     5  2  2.50        -6.1423   9.0000                                         
     6  0  0.50        -5.6573   1.0000                                         
     6  1  1.50        -6.8029   0.0000                                         
     5  3  2.50        -1.3606   0.0000                                         
   Description                                                                  
     l       E           TYP  RCUT    TYP  RCUT                                 
     2     -6.1423404     23  2.500                                             
     2     -7.5029230     23  2.500                                             
     0     -5.6573207     23  2.500                                             
     0      0.7416693     23  2.500                                             
     1     -2.7211652     23  2.600                                             
     1     20.4087390     23  2.600                                             
     3     -1.3605826     23  2.500                                             
  local pseudopotential read in
  partial core-charges read in
  partial kinetic energy density read in
  atomic valenz-charges read in
  non local Contribution for L=           2  read in
    real space projection operators read in
  non local Contribution for L=           2  read in
    real space projection operators read in
  non local Contribution for L=           0  read in
    real space projection operators read in
  non local Contribution for L=           0  read in
    real space projection operators read in
  non local Contribution for L=           1  read in
    real space projection operators read in
  non local Contribution for L=           1  read in
    real space projection operators read in
    PAW grid and wavefunctions read in
 
   number of l-projection  operators is LMAX  =           6
   number of lm-projection operators is LMMAX =          18
 
 POTCAR:    PAW_PBE Fe 06Sep2000                  
   VRHFIN =Fe:  d7 s1                                                           
   LEXCH  = PE                                                                  
   EATOM  =   594.3153 eV,   43.6809 Ry                                         
                                                                                
   TITEL  = PAW_PBE Fe 06Sep2000                                                
   LULTRA =        F    use ultrasoft PP ?                                      
   IUNSCR =        1    unscreen: 0-lin 1-nonlin 2-no                           
   RPACOR =    2.000    partial core radius                                     
   POMASS =   55.847; ZVAL   =    8.000    mass and valenz                      
   RCORE  =    2.300    outmost cutoff radius                                   
   RWIGS  =    2.460; RWIGS  =    1.302    wigner-seitz radius (au A)           
   ENMAX  =  267.882; ENMIN  =  200.911 eV                                      
   RCLOC  =    1.701    cutoff for local pot                                    
   LCOR   =        T    correct aug charges                                     
   LPAW   =        T    paw PP                                                  
   EAUG   =  511.368                                                            
   DEXC   =    0.000                                                            
   RMAX   =    2.356    core radius for proj-oper                               
   RAUG   =    1.300    factor for augmentation sphere                          
   RDEP   =    2.442    radius for radial grids                                 
   RDEPT  =    1.890    core radius for aug-charge                              
                                                                                
   Atomic configuration                                                         
    9 entries                                                                   
     n  l   j            E        occ.                                          
     1  0  0.50     -6993.8440   2.0000                                         
     2  0  0.50      -814.6047   2.0000                                         
     2  1  1.50      -693.3689   6.0000                                         
     3  0  0.50       -89.4732   2.0000                                         
     3  1  1.50       -55.6373   6.0000                                         
     3  2  2.50        -3.8151   7.0000                                         
     4  0  0.50        -4.2551   1.0000                                         
     4  1  1.50        -3.4015   0.0000                                         
     4  3  2.50        -1.3606   0.0000                                         
   Description                                                                  
     l       E           TYP  RCUT    TYP  RCUT                                 
     2     -3.8151135     23  2.300                                             
     2     -5.1756961     23  2.300                                             
     0     -4.2550963     23  2.300                                             
     0      7.2035603     23  2.300                                             
     1     -2.7211652     23  2.300                                             
     1     18.4316424     23  2.300                                             
  local pseudopotential read in
  partial core-charges read in
  partial kinetic energy density read in
  atomic valenz-charges read in
  non local Contribution for L=           2  read in
    real space projection operators read in
  non local Contribution for L=           2  read in
    real space projection operators read in
  non local Contribution for L=           0  read in
    real space projection operators read in
  non local Contribution for L=           0  read in
    real space projection operators read in
  non local Contribution for L=           1  read in
    real space projection operators read in
  non local Contribution for L=           1  read in
    real space projection operators read in
    PAW grid and wavefunctions read in
 
   number of l-projection  operators is LMAX  =           6
   number of lm-projection operators is LMMAX =          18
 
 POTCAR:    PAW_PBE Co 02Aug2007                  
   VRHFIN =Co: d8 s1                                                            
   LEXCH  = PE                                                                  
   EATOM  =   813.3670 eV,   59.7808 Ry                                         
                                                                                
   TITEL  = PAW_PBE Co 02Aug2007                                                
   LULTRA =        F    use ultrasoft PP ?                                      
   IUNSCR =        1    unscreen: 0-lin 1-nonlin 2-no                           
   RPACOR =    2.000    partial core radius                                     
   POMASS =   58.933; ZVAL   =    9.000    mass and valenz                      
   RCORE  =    2.300    outmost cutoff radius                                   
   RWIGS  =    2.460; RWIGS  =    1.302    wigner-seitz radius (au A)           
   ENMAX  =  267.968; ENMIN  =  200.976 eV                                      
   RCLOC  =    1.203    cutoff for local pot                                    
   LCOR   =        T    correct aug charges                                     
   LPAW   =        T    paw PP                                                  
   EAUG   =  477.818                                                            
   DEXC   =    0.000                                                            
   RMAX   =    2.360    core radius for proj-oper                               
   RAUG   =    1.300    factor for augmentation sphere                          
   RDEP   =    2.393    radius for radial grids                                 
   RDEPT  =    1.864    core radius for aug-charge                              
                                                                                
   Atomic configuration                                                         
    9 entries                                                                   
     n  l   j            E        occ.                                          
     1  0  0.50     -7587.6674   2.0000                                         
     2  0  0.50      -893.6084   2.0000                                         
     2  1  1.50      -764.5805   6.0000                                         
     3  0  0.50       -97.5973   2.0000                                         
     3  1  1.50       -60.9648   6.0000                                         
     3  2  2.50        -4.2382   8.0000                                         
     4  0  0.50        -4.3746   1.0000                                         
     4  1  1.50        -4.0817   0.0000                                         
     4  3  2.50        -1.3606   0.0000                                         
   Description                                                                  
     l       E           TYP  RCUT    TYP  RCUT                                 
     2     -4.2382362     23  2.300                                             
     2     -5.5988188     23  2.300                                             
     0     -4.3745797     23  2.300                                             
     0      5.7660125     23  2.300                                             
     1     -2.7211652     23  2.300                                             
     1     16.9860234     23  2.300                                             
  local pseudopotential read in
  partial core-charges read in
  partial kinetic energy density read in
  atomic valenz-charges read in
  non local Contribution for L=           2  read in
    real space projection operators read in
  non local Contribution for L=           2  read in
    real space projection operators read in
  non local Contribution for L=           0  read in
    real space projection operators read in
  non local Contribution for L=           0  read in
    real space projection operators read in
  non local Contribution for L=           1  read in
    real space projection operators read in
  non local Contribution for L=           1  read in
    real space projection operators read in
    PAW grid and wavefunctions read in
 
   number of l-projection  operators is LMAX  =           6
   number of lm-projection operators is LMMAX =          18
 
 POTCAR:    PAW_PBE Cu 22Jun2005                  
   VRHFIN =Cu: d10 p1                                                           
   LEXCH  = PE                                                                  
   EATOM  =  1390.9808 eV,  102.2342 Ry                                         
                                                                                
   TITEL  = PAW_PBE Cu 22Jun2005                                                
   LULTRA =        F    use ultrasoft PP ?                                      
   IUNSCR =        1    unscreen: 0-lin 1-nonlin 2-no                           
   RPACOR =    2.000    partial core radius                                     
   POMASS =   63.546; ZVAL   =   11.000    mass and valenz                      
   RCORE  =    2.300    outmost cutoff radius                                   
   RWIGS  =    2.200; RWIGS  =    1.164    wigner-seitz radius (au A)           
   ENMAX  =  295.446; ENMIN  =  221.585 eV                                      
   ICORE  =        3    local potential                                         
   LCOR   =        T    correct aug charges                                     
   LPAW   =        T    paw PP                                                  
   EAUG   =  586.980                                                            
   DEXC   =    0.000                                                            
   RMAX   =    2.344    core radius for proj-oper                               
   RAUG   =    1.300    factor for augmentation sphere                          
   RDEP   =    2.302    radius for radial grids                                 
   RDEPT  =    1.771    core radius for aug-charge                              
                                                                                
   Atomic configuration                                                         
    9 entries                                                                   
     n  l   j            E        occ.                                          
     1  0  0.50     -8850.2468   2.0000                                         
     2  0  0.50     -1062.3498   2.0000                                         
     2  1  1.50      -916.8226   6.0000                                         
     3  0  0.50      -114.6929   2.0000                                         
     3  1  1.50       -72.1325   6.0000                                         
     3  2  2.50        -5.0394  10.0000                                         
     4  0  0.50        -4.6097   1.0000                                         
     4  1  0.50        -4.0817   0.0000                                         
     4  3  2.50        -1.3606   0.0000                                         
   Description                                                                  
     l       E           TYP  RCUT    TYP  RCUT                                 
     2     -5.0393973     23  2.200                                             
     2     10.8846608     23  2.200                                             
     0     -4.6097109     23  2.200                                             
     0      8.2520465     23  2.200                                             
     1     -2.7211652     23  2.200                                             
     1     21.7055443     23  2.200                                             
     3      2.7211652     23  2.300                                             
  local pseudopotential read in
  partial core-charges read in
  partial kinetic energy density read in
  atomic valenz-charges read in
  non local Contribution for L=           2  read in
    real space projection operators read in
  non local Contribution for L=           2  read in
    real space projection operators read in
  non local Contribution for L=           0  read in
    real space projection operators read in
  non local Contribution for L=           0  read in
    real space projection operators read in
  non local Contribution for L=           1  read in
    real space projection operators read in
  non local Contribution for L=           1  read in
    real space projection operators read in
    PAW grid and wavefunctions read in
 
   number of l-projection  operators is LMAX  =           6
   number of lm-projection operators is LMMAX =          18
 
 POTCAR:    PAW_PBE Ni 02Aug2007                  
   VRHFIN =Ni:                                                                  
   LEXCH  = PE                                                                  
   EATOM  =  1077.6739 eV,   79.2068 Ry                                         
                                                                                
   TITEL  = PAW_PBE Ni 02Aug2007                                                
   LULTRA =        F    use ultrasoft PP ?                                      
   IUNSCR =        1    unscreen: 0-lin 1-nonlin 2-no                           
   RPACOR =    2.000    partial core radius                                     
   POMASS =   58.690; ZVAL   =   10.000    mass and valenz                      
   RCORE  =    2.300    outmost cutoff radius                                   
   RWIGS  =    2.430; RWIGS  =    1.286    wigner-seitz radius (au A)           
   ENMAX  =  269.532; ENMIN  =  202.149 eV                                      
   RCLOC  =    1.201    cutoff for local pot                                    
   LCOR   =        T    correct aug charges                                     
   LPAW   =        T    paw PP                                                  
   EAUG   =  544.565                                                            
   DEXC   =    0.000                                                            
   RMAX   =    2.357    core radius for proj-oper                               
   RAUG   =    1.300    factor for augmentation sphere                          
   RDEP   =    2.390    radius for radial grids                                 
   RDEPT  =    1.838    core radius for aug-charge                              
                                                                                
   Atomic configuration                                                         
    9 entries                                                                   
     n  l   j            E        occ.                                          
     1  0  0.50     -8206.4253   2.0000                                         
     2  0  0.50      -976.1748   2.0000                                         
     2  1  1.50      -839.0571   6.0000                                         
     3  0  0.50      -105.9991   2.0000                                         
     3  1  1.50       -66.4603   6.0000                                         
     3  2  2.50        -4.6458   9.0000                                         
     4  0  0.50        -4.4926   1.0000                                         
     4  1  1.50        -4.0817   0.0000                                         
     4  3  2.50        -1.3606   0.0000                                         
   Description                                                                  
     l       E           TYP  RCUT    TYP  RCUT                                 
     2     -4.6457903     23  2.300                                             
     2     -6.0063729     23  2.300                                             
     0     -4.4925590     23  2.300                                             
     0      5.0102601     23  2.300                                             
     1     -2.7211652     23  2.300                                             
     1     16.5183231     23  2.300                                             
  local pseudopotential read in
  partial core-charges read in
  partial kinetic energy density read in
  atomic valenz-charges read in
  non local Contribution for L=           2  read in
    real space projection operators read in
  non local Contribution for L=           2  read in
    real space projection operators read in
  non local Contribution for L=           0  read in
    real space projection operators read in
  non local Contribution for L=           0  read in
    real space projection operators read in
  non local Contribution for L=           1  read in
    real space projection operators read in
  non local Contribution for L=           1  read in
    real space projection operators read in
    PAW grid and wavefunctions read in
 
   number of l-projection  operators is LMAX  =           6
   number of lm-projection operators is LMMAX =          18
 
 POTCAR:    PAW_PBE H 15Jun2001                   
   VRHFIN =H: ultrasoft test                                                    
   LEXCH  = PE                                                                  
   EATOM  =    12.4884 eV,    0.9179 Ry                                         
                                                                                
   TITEL  = PAW_PBE H 15Jun2001                                                 
   LULTRA =        F    use ultrasoft PP ?                                      
   IUNSCR =        0    unscreen: 0-lin 1-nonlin 2-no                           
   RPACOR =    0.000    partial core radius                                     
   POMASS =    1.000; ZVAL   =    1.000    mass and valenz                      
   RCORE  =    1.100    outmost cutoff radius                                   
   RWIGS  =    0.700; RWIGS  =    0.370    wigner-seitz radius (au A)           
   ENMAX  =  250.000; ENMIN  =  200.000 eV                                      
   RCLOC  =    0.701    cutoff for local pot                                    
   LCOR   =        T    correct aug charges                                     
   LPAW   =        T    paw PP                                                  
   EAUG   =  400.000                                                            
   RMAX   =    1.123    core radius for proj-oper                               
   RAUG   =    1.200    factor for augmentation sphere                          
   RDEP   =    1.112    radius for radial grids                                 
   RDEPT  =    0.926    core radius for aug-charge                              
                                                                                
   Atomic configuration                                                         
    2 entries                                                                   
     n  l   j            E        occ.                                          
     1  0  0.50        -6.4927   1.0000                                         
     2  1  0.50        -3.4015   0.0000                                         
   Description                                                                  
     l       E           TYP  RCUT    TYP  RCUT                                 
     0     -6.4927494     23  1.100                                             
     0      6.8029130     23  1.100                                             
     1     -4.0817478     23  1.100                                             
  local pseudopotential read in
  atomic valenz-charges read in
  non local Contribution for L=           0  read in
    real space projection operators read in
  non local Contribution for L=           0  read in
    real space projection operators read in
  non local Contribution for L=           1  read in
    real space projection operators read in
    PAW grid and wavefunctions read in
 
   number of l-projection  operators is LMAX  =           3
   number of lm-projection operators is LMMAX =           5
 
 Optimization of the real space projectors (new method)

 maximal supplied QI-value         = 14.36
 optimisation between [QCUT,QGAM] = [ 11.92, 23.98] = [ 39.79,161.09] Ry 
 Optimized for a Real-space Cutoff    1.49 Angstroem

   l    n(q)    QCUT    max X(q) W(low)/X(q) W(high)/X(q)  e(spline) 
   2     10    11.920    66.195    0.79E-04    0.18E-03    0.24E-06
   2     10    11.920    64.643    0.81E-04    0.19E-03    0.24E-06
   0     11    11.920    95.520    0.28E-04    0.54E-04    0.18E-06
   0     11    11.920    63.403    0.27E-04    0.52E-04    0.17E-06
   1     10    11.920    19.961    0.18E-04    0.11E-03    0.23E-06
   1     10    11.920    13.289    0.25E-04    0.87E-04    0.19E-06
 Optimization of the real space projectors (new method)

 maximal supplied QI-value         = 16.25
 optimisation between [QCUT,QGAM] = [ 11.86, 23.89] = [ 39.41,159.82] Ry 
 Optimized for a Real-space Cutoff    1.49 Angstroem

   l    n(q)    QCUT    max X(q) W(low)/X(q) W(high)/X(q)  e(spline) 
   2     10    11.864    80.901    0.13E-03    0.23E-03    0.37E-06
   2     10    11.864    75.754    0.13E-03    0.23E-03    0.38E-06
   0     11    11.864    58.752    0.44E-04    0.11E-04    0.20E-06
   0     11    11.864    30.679    0.36E-04    0.10E-04    0.18E-06
   1     10    11.864    17.977    0.31E-04    0.45E-04    0.10E-06
   1     10    11.864    13.559    0.25E-04    0.37E-04    0.89E-07
 Optimization of the real space projectors (new method)

 maximal supplied QI-value         = 16.25
 optimisation between [QCUT,QGAM] = [ 11.86, 23.89] = [ 39.41,159.82] Ry 
 Optimized for a Real-space Cutoff    1.33 Angstroem

   l    n(q)    QCUT    max X(q) W(low)/X(q) W(high)/X(q)  e(spline) 
   2      9    11.864    65.824    0.22E-03    0.53E-03    0.26E-06
   2      9    11.864    61.429    0.22E-03    0.53E-03    0.26E-06
   0      9    11.864    56.174    0.21E-03    0.32E-04    0.15E-06
   0      9    11.864    31.263    0.19E-03    0.30E-04    0.14E-06
   1      9    11.864    19.828    0.63E-04    0.30E-03    0.16E-06
   1      9    11.864    15.139    0.49E-04    0.25E-03    0.13E-06
 Optimization of the real space projectors (new method)

 maximal supplied QI-value         = 16.25
 optimisation between [QCUT,QGAM] = [ 11.86, 23.89] = [ 39.41,159.82] Ry 
 Optimized for a Real-space Cutoff    1.49 Angstroem

   l    n(q)    QCUT    max X(q) W(low)/X(q) W(high)/X(q)  e(spline) 
   2     10    11.864     4.610    0.10E-03    0.20E-03    0.29E-06
   2     10    11.864     8.522    0.17E-03    0.33E-03    0.50E-06
   0     11    11.864    51.609    0.52E-04    0.55E-04    0.33E-06
   0     11    11.864    27.747    0.46E-04    0.52E-04    0.31E-06
   1     10    11.864    20.408    0.54E-04    0.25E-04    0.21E-06
   1     10    11.864    13.425    0.48E-04    0.22E-04    0.18E-06
 Optimization of the real space projectors (new method)

 maximal supplied QI-value         = 16.25
 optimisation between [QCUT,QGAM] = [ 11.86, 23.89] = [ 39.41,159.82] Ry 
 Optimized for a Real-space Cutoff    1.33 Angstroem

   l    n(q)    QCUT    max X(q) W(low)/X(q) W(high)/X(q)  e(spline) 
   2      9    11.864    60.317    0.21E-03    0.51E-03    0.25E-06
   2      9    11.864    55.921    0.21E-03    0.51E-03    0.26E-06
   0      9    11.864    51.690    0.22E-03    0.30E-04    0.17E-06
   0      9    11.864    30.015    0.20E-03    0.28E-04    0.15E-06
   1      9    11.864    18.849    0.76E-04    0.33E-03    0.17E-06
   1      9    11.864    14.624    0.60E-04    0.28E-03    0.15E-06
 Optimization of the real space projectors (new method)

 maximal supplied QI-value         = 34.20
 optimisation between [QCUT,QGAM] = [ 11.97, 23.94] = [ 40.13,160.53] Ry 
 Optimized for a Real-space Cutoff    1.18 Angstroem

   l    n(q)    QCUT    max X(q) W(low)/X(q) W(high)/X(q)  e(spline) 
   0      8    11.971    19.460    0.15E-03    0.31E-03    0.25E-06
   0      8    11.971    12.209    0.13E-03    0.29E-03    0.25E-06
   1      8    11.971     4.655    0.22E-03    0.24E-03    0.21E-06
  PAW_PBE Pt 04Feb2005                  :
 energy of atom  1       EATOM= -729.1176
 kinetic energy error for atom=    0.0021 (will be added to EATOM!!)
  PAW_PBE Fe 06Sep2000                  :
 energy of atom  2       EATOM= -594.3153
 kinetic energy error for atom=    0.0024 (will be added to EATOM!!)
  PAW_PBE Co 02Aug2007                  :
 energy of atom  3       EATOM= -813.3670
 kinetic energy error for atom=    0.0026 (will be added to EATOM!!)
  PAW_PBE Cu 22Jun2005                  :
 energy of atom  4       EATOM=-1390.9808
 kinetic energy error for atom=    0.0036 (will be added to EATOM!!)
  PAW_PBE Ni 02Aug2007                  :
 energy of atom  5       EATOM=-1077.6739
 kinetic energy error for atom=    0.0027 (will be added to EATOM!!)
  PAW_PBE H 15Jun2001                   :
 energy of atom  6       EATOM=  -12.4884
 kinetic energy error for atom=    0.0008 (will be added to EATOM!!)
 
 
 POSCAR: 11.26-high                              
  positions in direct lattice
  velocities in cartesian coordinates
 exchange correlation table for  LEXCH =        8
   RHO(1)=    0.500       N(1)  =     2000
   RHO(2)=  100.500       N(2)  =     4000
 


--------------------------------------------------------------------------------------------------------


 ion  position               nearest neighbor table
   1  0.776  0.870  0.315-  56 2.59  32 2.67  15 2.74  33 2.75  65 2.77  23 2.78   8 2.78  40 2.79
                            16 2.83  41 2.87   3 2.88   2 2.93
   2  0.037  0.869  0.316-  38 2.65  79 2.66  32 2.76  26 2.76   8 2.79  34 2.81  58 2.81  10 2.81
                            41 2.83   3 2.83  20 2.84   1 2.93
   3  0.036  0.617  0.313-  50 2.60  68 2.63  32 2.69   6 2.81   9 2.81   4 2.81   2 2.83  20 2.84
                            33 2.85  34 2.86  16 2.87   1 2.88
   4  0.028  0.371  0.319-  50 2.61  36 2.68  42 2.70  11 2.72  77 2.76   9 2.77  14 2.77  33 2.80
                             3 2.81  26 2.83   6 2.88   5 2.96
   5  0.290  0.106  0.318-  61 2.55  36 2.68  12 2.69  39 2.69  58 2.70  26 2.77  65 2.77  14 2.78
                            17 2.79  23 2.80   6 2.92   4 2.96
   6  0.287  0.368  0.317-  68 2.59  71 2.62  36 2.71  23 2.75  29 2.76   9 2.80  17 2.81   3 2.81
                            34 2.86   4 2.88  22 2.90   5 2.92
   7  0.860  0.689  0.125-  74 2.52  43 2.54  45 2.59  55 2.63  60 2.65  50 2.65  56 2.66  32 2.70
                            72 2.71  25 2.83  64 3.07
   8  0.861  0.955  0.416-  15 2.76  21 2.77   1 2.78  41 2.78   2 2.79  16 2.80  13 2.83  20 2.87
                            10 2.94
   9  0.115  0.456  0.419-  81 1.73  20 2.72   4 2.77  16 2.78  11 2.79   6 2.80  29 2.81   3 2.81
                            14 2.84  17 2.90
  10  0.124  0.953  0.420-  58 2.71  14 2.76  26 2.76  12 2.78   2 2.81  18 2.83  13 2.87  20 2.90
                             8 2.94
  11  0.870  0.449  0.421-   4 2.72  77 2.72  19 2.74  13 2.76  14 2.79   9 2.79  33 2.82  31 2.82
                            16 2.83
  12  0.375  0.947  0.418-   5 2.69  65 2.70  58 2.70  18 2.72  15 2.74  31 2.75  10 2.78  17 2.79
                            14 2.86
  13  0.866  0.205  0.416-  77 2.72  11 2.76  21 2.77  26 2.77  41 2.77  19 2.78  14 2.83   8 2.83
                            10 2.87
  14  0.120  0.201  0.420-  81 1.71  10 2.76   4 2.77   5 2.78  11 2.79  26 2.81  17 2.81  13 2.83
                             9 2.84  12 2.86
  15  0.619  0.946  0.418-   1 2.74  12 2.74  16 2.75  65 2.75  31 2.76   8 2.76  17 2.79  23 2.81
                            21 2.92
  16  0.867  0.703  0.420-  15 2.75  20 2.76  33 2.77   9 2.78  31 2.79   8 2.80   1 2.83  11 2.83
                             3 2.87
  17  0.372  0.197  0.420-  23 2.75  12 2.79   5 2.79  15 2.79   6 2.81  14 2.81  21 2.82  29 2.83
                             9 2.90
  18  0.378  0.703  0.417-  51 2.60  58 2.67  31 2.69  12 2.72  34 2.74  19 2.75  10 2.83  29 2.89
                            20 2.98
  19  0.622  0.456  0.419-  51 2.65  77 2.66  31 2.72  22 2.73  11 2.74  18 2.75  13 2.78  21 2.82
                            29 2.88
  20  0.115  0.699  0.421-   9 2.72  16 2.76  29 2.81  34 2.82   3 2.84   2 2.84   8 2.87  10 2.90
                            18 2.98
  21  0.619  0.206  0.417-  22 2.75  13 2.77   8 2.77  23 2.77  29 2.78  41 2.80  17 2.82  19 2.82
                            15 2.92
  22  0.541  0.377  0.317-  70 2.59  30 2.64  71 2.64  77 2.68  51 2.70  19 2.73  21 2.75  34 2.79
                            41 2.80  29 2.80   6 2.90  23 2.92
  23  0.532  0.121  0.317-  71 2.65  40 2.70  39 2.75  17 2.75   6 2.75  21 2.77   1 2.78   5 2.80
                            15 2.81  41 2.84  22 2.92  65 2.94
  24  0.544  0.120  0.050-  46 2.53  63 2.54  55 2.60  43 2.70  66 2.73  54 2.84  62 2.84  52 2.87
                            67 2.92
  25  0.114  0.439  0.123-  54 2.49  48 2.53  45 2.58  36 2.70  73 2.70  63 2.75  50 2.75  68 2.78
                             7 2.83  72 2.85  64 2.94  76 3.11
  26  0.039  0.114  0.316-  79 2.55  61 2.63  42 2.67   2 2.76  10 2.76  13 2.77   5 2.77  58 2.79
                            14 2.81  41 2.82   4 2.83  77 2.96
  27  0.024  0.132  0.037-  48 2.54  49 2.59  73 2.61  28 2.65  78 2.71  59 2.73  66 2.74  52 2.92
                            44 3.11
  28  0.115  0.958  0.130-  59 2.54  79 2.58  44 2.59  38 2.63  27 2.65  61 2.66  69 2.68  73 2.69
                            47 2.79  49 2.84  35 2.87  64 2.93
  29  0.368  0.451  0.419-   6 2.76  34 2.77  21 2.78  22 2.80   9 2.81  20 2.81  17 2.83  19 2.88
                            18 2.89
  30  0.456  0.540  0.221-  76 2.51  57 2.56  22 2.64  34 2.68  51 2.72  37 2.72  35 2.73  80 2.74
                            71 2.76  38 2.79  70 2.79  68 2.85
  31  0.619  0.700  0.421-  51 2.68  18 2.69  65 2.72  19 2.72  33 2.75  12 2.75  15 2.76  16 2.79
                            11 2.82
  32  0.941  0.791  0.218-  64 2.57  69 2.60   1 2.67   3 2.69   7 2.70   2 2.76  56 2.78  40 2.87
                            50 2.87  79 2.91  68 3.02  38 3.04
  33  0.780  0.622  0.318-  56 2.60  37 2.62  50 2.62  65 2.69  77 2.73  31 2.75  51 2.75   1 2.75
                            16 2.77   4 2.80  11 2.82   3 2.85
  34  0.289  0.621  0.318-  38 2.67  30 2.68  68 2.74  18 2.74  58 2.75  29 2.77  51 2.77  22 2.79
                             2 2.81  20 2.82   6 2.86   3 2.86
  35  0.377  0.709  0.122-  53 2.48  75 2.55  59 2.60  47 2.62  60 2.68  30 2.73  80 2.74  38 2.75
                            57 2.85  76 2.87  28 2.87  64 2.87
  36  0.198  0.277  0.223-  73 2.54  63 2.54   4 2.68   5 2.68  25 2.70   6 2.71  61 2.76  42 2.81
                            68 2.83  50 2.84  39 2.91  71 2.97
  37  0.694  0.548  0.222-  72 2.55  60 2.56  57 2.60  33 2.62  56 2.63  80 2.66  51 2.69  77 2.70
                            30 2.72  50 2.75  70 2.82  42 2.88
  38  0.211  0.792  0.224-  64 2.58  58 2.59  61 2.62  28 2.63   2 2.65  34 2.67  80 2.70  35 2.75
                            30 2.79  79 2.85  68 3.02  32 3.04
  39  0.456  0.016  0.221-  47 2.49  55 2.60  80 2.62  63 2.64  65 2.65  61 2.65   5 2.69  56 2.69
                            23 2.75  40 2.78  36 2.91  71 3.11
  40  0.686  0.047  0.215-  46 2.52  69 2.55  55 2.59  23 2.70  71 2.71  41 2.74  39 2.78   1 2.79
                            70 2.86  32 2.87  56 2.93  79 2.99
  41  0.785  0.121  0.313-  70 2.55  79 2.58  40 2.74  13 2.77   8 2.78  21 2.80  22 2.80  26 2.82
                             2 2.83  23 2.84  77 2.87   1 2.87
  42  0.943  0.286  0.222-  49 2.49  72 2.55  70 2.65  26 2.67  79 2.67  73 2.68  77 2.70   4 2.70
                            50 2.78  36 2.81  37 2.88  61 3.01
  43  0.787  0.882  0.049-  55 2.41  69 2.50   7 2.54  44 2.64  24 2.70  66 2.72  45 2.88  67 2.95

  44  0.036  0.851  0.047-  45 2.41  69 2.53  64 2.55  28 2.59  43 2.64  75 2.68  59 3.07  27 3.11

  45  0.048  0.630  0.044-  44 2.41  75 2.46  64 2.49  25 2.58   7 2.59  54 2.82  43 2.88
  46  0.621  0.226  0.132-  70 2.50  62 2.51  57 2.51  40 2.52  24 2.53  66 2.58  76 2.58  71 2.59
                            49 2.65  69 2.81  63 2.90
  47  0.371  0.944  0.131-  59 2.38  52 2.40  39 2.49  67 2.54  61 2.56  35 2.62  80 2.62  60 2.68
                            73 2.76  55 2.77  28 2.79
  48  0.994  0.372  0.045-  72 2.33  78 2.48  74 2.51  25 2.53  27 2.54  73 2.62
  49  0.863  0.212  0.131-  78 2.43  42 2.49  66 2.56  70 2.57  27 2.59  79 2.61  72 2.63  69 2.64
                            46 2.65  57 2.68  28 2.84  73 2.86
  50  0.946  0.532  0.224-   3 2.60   4 2.61  33 2.62  72 2.64   7 2.65  37 2.75  25 2.75  56 2.78
                            42 2.78  36 2.84  32 2.87  68 2.92
  51  0.537  0.619  0.323-  18 2.60  80 2.64  19 2.65  65 2.67  31 2.68  37 2.69  77 2.69  22 2.70
                            30 2.72  33 2.75  34 2.77  58 2.78
  52  0.294  0.109  0.050-  47 2.40  73 2.40  59 2.41  63 2.57  67 2.71  24 2.87  27 2.92
  53  0.565  0.596  0.047-  74 2.34  57 2.36  60 2.45  35 2.48  78 2.49  62 2.65  67 2.86
  54  0.304  0.384  0.050-  76 2.31  75 2.43  25 2.49  63 2.55  62 2.58  45 2.82  24 2.84
  55  0.628  0.924  0.130-  43 2.41  56 2.46  67 2.47  60 2.47  40 2.59  39 2.60  24 2.60   7 2.63
                            47 2.77
  56  0.699  0.780  0.223-  55 2.46  60 2.53   1 2.59  33 2.60  37 2.63  65 2.64   7 2.66  39 2.69
                            80 2.72  50 2.78  32 2.78  40 2.93
  57  0.622  0.449  0.131-  53 2.36  78 2.44  46 2.51  62 2.53  70 2.55  30 2.56  37 2.60  72 2.63
                            76 2.65  49 2.68  35 2.85  60 2.89
  58  0.289  0.866  0.320-  61 2.57  38 2.59  80 2.61  18 2.67   5 2.70  12 2.70  10 2.71  65 2.72
                            34 2.75  51 2.78  26 2.79   2 2.81
  59  0.279  0.903  0.041-  47 2.38  52 2.41  28 2.54  35 2.60  67 2.66  27 2.73  44 3.07
  60  0.614  0.710  0.130-  53 2.45  55 2.47  67 2.48  74 2.50  56 2.53  37 2.56  80 2.64   7 2.65
                            35 2.68  47 2.68  72 2.82  57 2.89
  61  0.217  0.022  0.226-   5 2.55  47 2.56  58 2.57  38 2.62  26 2.63  39 2.65  28 2.66  73 2.66
                            80 2.68  36 2.76  79 2.84  42 3.01
  62  0.536  0.376  0.040-  76 2.49  46 2.51  57 2.53  54 2.58  78 2.63  53 2.65  75 2.80  24 2.84

  63  0.370  0.211  0.137-  71 2.51  24 2.54  36 2.54  54 2.55  52 2.57  39 2.64  25 2.75  76 2.78
                            73 2.84  46 2.90
  64  0.133  0.690  0.137-  75 2.44  68 2.46  45 2.49  44 2.55  32 2.57  38 2.58  76 2.77  35 2.87
                            28 2.93  25 2.94   7 3.07
  65  0.536  0.858  0.319-  80 2.51  56 2.64  39 2.65  51 2.67  33 2.69  12 2.70  31 2.72  58 2.72
                            15 2.75   1 2.77   5 2.77  23 2.94
  66  0.784  0.126  0.040-  69 2.51  49 2.56  46 2.58  78 2.65  43 2.72  24 2.73  27 2.74
  67  0.533  0.866  0.041-  55 2.47  60 2.48  47 2.54  59 2.66  52 2.71  74 2.86  53 2.86  24 2.92
                            43 2.95
  68  0.211  0.523  0.221-  64 2.46   6 2.59  76 2.61   3 2.63  71 2.65  34 2.74  25 2.78  36 2.83
                            30 2.85  50 2.92  32 3.02  38 3.02
  69  0.869  0.974  0.132-  79 2.49  43 2.50  66 2.51  44 2.53  40 2.55  32 2.60  49 2.64  28 2.68
                            46 2.81
  70  0.705  0.291  0.225-  46 2.50  41 2.55  57 2.55  49 2.57  22 2.59  77 2.62  42 2.65  79 2.79
                            30 2.79  37 2.82  40 2.86
  71  0.453  0.295  0.224-  63 2.51  76 2.52  46 2.59   6 2.62  22 2.64  68 2.65  23 2.65  40 2.71
                            30 2.76  36 2.97  39 3.11
  72  0.856  0.450  0.131-  48 2.33  74 2.44  78 2.50  42 2.55  37 2.55  49 2.63  57 2.63  50 2.64
                             7 2.71  60 2.82  25 2.85  73 2.97
  73  0.127  0.192  0.131-  52 2.40  36 2.54  27 2.61  48 2.62  61 2.66  42 2.68  28 2.69  25 2.70
                            47 2.76  63 2.84  49 2.86  72 2.97
  74  0.773  0.598  0.042-  53 2.34  72 2.44  60 2.50  48 2.51   7 2.52  78 2.59  67 2.86
  75  0.275  0.613  0.046-  54 2.43  64 2.44  45 2.46  76 2.48  35 2.55  44 2.68  62 2.80
  76  0.385  0.450  0.132-  54 2.31  75 2.48  62 2.49  30 2.51  71 2.52  46 2.58  68 2.61  57 2.65
                            64 2.77  63 2.78  35 2.87  25 3.11
  77  0.777  0.380  0.320-  70 2.62  19 2.66  22 2.68  51 2.69  37 2.70  42 2.70  13 2.72  11 2.72
                            33 2.73   4 2.76  41 2.87  26 2.96
  78  0.776  0.366  0.044-  49 2.43  57 2.44  48 2.48  53 2.49  72 2.50  74 2.59  62 2.63  66 2.65
                            27 2.71
  79  0.954  0.043  0.223-  69 2.49  26 2.55  41 2.58  28 2.58  49 2.61   2 2.66  42 2.67  70 2.79
                            61 2.84  38 2.85  32 2.91  40 2.99
  80  0.455  0.784  0.227-  65 2.51  58 2.61  39 2.62  47 2.62  60 2.64  51 2.64  37 2.66  61 2.68
                            38 2.70  56 2.72  30 2.74  35 2.74
  81  0.116  0.328  0.464-  14 1.71   9 1.73
 
  LATTYP: Found a hexagonal cell.
 ALAT       =    11.2227001190
 C/A-ratio  =     1.9603125600
  
  Lattice vectors:
  
 A1 = (   5.6113500595,  -9.7191434021,   0.0000000000)
 A2 = ( -11.2227001190,   0.0000000000,   0.0000000000)
 A3 = (   0.0000000000,   0.0000000000, -22.0000000000)


Analysis of symmetry for initial positions (statically):
=====================================================================
 Subroutine PRICEL returns:
 Original cell was already a primitive cell.
 

 Routine SETGRP: Setting up the symmetry group for a 
 hexagonal supercell.


 Subroutine GETGRP returns: Found  1 space group operations
 (whereof  1 operations were pure point group operations)
 out of a pool of 24 trial point group operations.


The static configuration has the point symmetry C_1 .


Analysis of symmetry for dynamics (positions and initial velocities):
=====================================================================
 Subroutine PRICEL returns:
 Original cell was already a primitive cell.
 

 Routine SETGRP: Setting up the symmetry group for a 
 hexagonal supercell.


 Subroutine GETGRP returns: Found  1 space group operations
 (whereof  1 operations were pure point group operations)
 out of a pool of 24 trial point group operations.


The dynamic configuration has the point symmetry C_1 .


Analysis of constrained symmetry for selective dynamics:
=====================================================================
 Subroutine PRICEL returns:
 Original cell was already a primitive cell.
 

 Routine SETGRP: Setting up the symmetry group for a 
 hexagonal supercell.


 Subroutine GETGRP returns: Found  1 space group operations
 (whereof  1 operations were pure point group operations)
 out of a pool of 24 trial point group operations.


The constrained configuration has the point symmetry C_1 .


Analysis of structural, dynamic, and magnetic symmetry:
=====================================================================
 Subroutine PRICEL returns:
 Original cell was already a primitive cell.
 

 Routine SETGRP: Setting up the symmetry group for a 
 hexagonal supercell.


 Subroutine GETGRP returns: Found  1 space group operations
 (whereof  1 operations were pure point group operations)
 out of a pool of 24 trial point group operations.


The magnetic configuration has the point symmetry C_1 .


 Subroutine INISYM returns: Found  1 space group operations
 (whereof  1 operations are pure point group operations),
 and found     1 'primitive' translations

 
 
 KPOINTS: mesh auto                               

Automatic generation of k-mesh.
Space group operators:
 irot       det(A)        alpha          n_x          n_y          n_z        tau_x        tau_y        tau_z
    1     1.000000     0.000000     1.000000     0.000000     0.000000     0.000000     0.000000     0.000000
 
 Subroutine IBZKPT returns following result:
 ===========================================
 
 Found      4 irreducible k-points:
 
 Following reciprocal coordinates:
            Coordinates               Weight
  0.000000  0.000000  0.000000      1.000000
  0.500000  0.000000  0.000000      1.000000
  0.000000  0.500000  0.000000      1.000000
  0.500000  0.500000  0.000000      1.000000
 
 Following cartesian coordinates:
            Coordinates               Weight
  0.000000  0.000000  0.000000      1.000000
  0.044553 -0.025722  0.000000      1.000000
  0.000000  0.051445  0.000000      1.000000
  0.044553  0.025722  0.000000      1.000000
 


--------------------------------------------------------------------------------------------------------




 Dimension of arrays:
   k-points           NKPTS =      4   k-points in BZ     NKDIM =      4   number of bands    NBANDS=    588
   number of dos      NEDOS =    301   number of ions     NIONS =     81
   non local maximal  LDIM  =      6   non local SUM 2l+1 LMDIM =     18
   total plane-waves  NPLWV = ******
   max r-space proj   IRMAX =   7929   max aug-charges    IRDMAX=  34542
   dimension x,y,z NGX =    90 NGY =   90 NGZ =  168
   dimension x,y,z NGXF=   180 NGYF=  180 NGZF=  336
   support grid    NGXF=   180 NGYF=  180 NGZF=  336
   ions per type =              42  10   9  10   9   1
   NGX,Y,Z   is equivalent  to a cutoff of  13.33, 13.33, 12.70 a.u.
   NGXF,Y,Z  is equivalent  to a cutoff of  26.66, 26.66, 25.39 a.u.

 SYSTEM =  Pt111                                   
 POSCAR =  11.26-high                              

 Startparameter for this run:
   NWRITE =      2    write-flag & timer
   PREC   = accura    normal or accurate (medium, high low for compatibility)
   ISTART =      0    job   : 0-new  1-cont  2-samecut
   ICHARG =      2    charge: 1-file 2-atom 10-const
   ISPIN  =      2    spin polarized calculation?
   LNONCOLLINEAR =      F non collinear calculations
   LSORBIT =      F    spin-orbit coupling
   INIWAV =      1    electr: 0-lowe 1-rand  2-diag
   LASPH  =      F    aspherical Exc in radial PAW
   METAGGA=      F    non-selfconsistent MetaGGA calc.

 Electronic Relaxation 1
   ENCUT  =  550.0 eV  40.42 Ry    6.36 a.u.  21.46 21.46 42.07*2*pi/ulx,y,z
   ENINI  =  550.0     initial cutoff
   ENAUG  =  587.0 eV  augmentation charge cutoff
   NELM   =    200;   NELMIN=  2; NELMDL= -5     # of ELM steps 
   EDIFF  = 0.1E-04   stopping-criterion for ELM
   LREAL  =      T    real-space projection
   NLSPLINE    = F    spline interpolate recip. space projectors
   LCOMPAT=      F    compatible to vasp.4.4
   GGA_COMPAT  = T    GGA compatible to vasp.4.4-vasp.4.6
   LMAXPAW     = -100 max onsite density
   LMAXMIX     =    2 max onsite mixed and CHGCAR
   VOSKOWN=      0    Vosko Wilk Nusair interpolation
   ROPT   =   -0.00025  -0.00025  -0.00025  -0.00025
   ROPT   =   -0.00025  -0.00025
 Ionic relaxation
   EDIFFG = -.5E-01   stopping-criterion for IOM
   NSW    =    300    number of steps for IOM
   NBLOCK =      1;   KBLOCK =    300    inner block; outer block 
   IBRION =      2    ionic relax: 0-MD 1-quasi-New 2-CG
   NFREE  =      1    steps in history (QN), initial steepest desc. (CG)
   ISIF   =      2    stress and relaxation
   IWAVPR =     11    prediction:  0-non 1-charg 2-wave 3-comb
   ISYM   =      2    0-nonsym 1-usesym 2-fastsym
   LCORR  =      T    Harris-Foulkes like correction to forces

   POTIM  = 0.5000    time-step for ionic-motion
   TEIN   =    0.0    initial temperature
   TEBEG  =    0.0;   TEEND  =   0.0 temperature during run
   SMASS  =  -3.00    Nose mass-parameter (am)
   estimated Nose-frequenzy (Omega)   =  0.10E-29 period in steps =****** mass=  -0.288E-26a.u.
   SCALEE = 1.0000    scale energy and forces
   NPACO  =    256;   APACO  = 16.0  distance and # of slots for P.C.
   PSTRESS=    0.0 pullay stress

  Mass of Ions in am
   POMASS = 195.08 55.85 58.93 63.55 58.69  1.00
  Ionic Valenz
   ZVAL   =  10.00  8.00  9.00 11.00 10.00  1.00
  Atomic Wigner-Seitz radii
   RWIGS  =  -1.00 -1.00 -1.00 -1.00 -1.00 -1.00
  virtual crystal weights 
   VCA    =   1.00  1.00  1.00  1.00  1.00  1.00
   NELECT =     782.0000    total number of electrons
   NUPDOWN=      -1.0000    fix difference up-down

 DOS related values:
   EMIN   =  10.00;   EMAX   =-10.00  energy-range for DOS
   EFERMI =   0.00
   ISMEAR =     1;   SIGMA  =   0.10  broadening in eV -4-tet -1-fermi 0-gaus

 Electronic relaxation 2 (details)
   IALGO  =     68    algorithm
   LDIAG  =      T    sub-space diagonalisation (order eigenvalues)
   LSUBROT=      F    optimize rotation matrix (better conditioning)
   TURBO    =      0    0=normal 1=particle mesh
   IRESTART =      0    0=no restart 2=restart with 2 vectors
   NREBOOT  =      0    no. of reboots
   NMIN     =      0    reboot dimension
   EREF     =   0.00    reference energy to select bands
   IMIX   =      4    mixing-type and parameters
     AMIX     =   0.40;   BMIX     =  1.00
     AMIX_MAG =   1.60;   BMIX_MAG =  1.00
     AMIN     =   0.10
     WC   =   100.;   INIMIX=   1;  MIXPRE=   1;  MAXMIX= -45

 Intra band minimization:
   WEIMIN = 0.0010     energy-eigenvalue tresh-hold
   EBREAK =  0.43E-08  absolut break condition
   DEPER  =   0.30     relativ break condition  

   TIME   =   0.40     timestep for ELM

  volume/ion in A,a.u.               =      29.63       199.92
  Fermi-wavevector in a.u.,A,eV,Ry     =   1.126577  2.128923 17.268199  1.269177
  Thomas-Fermi vector in A             =   2.263260
 
 Write flags
   LWAVE        =      F    write WAVECAR
   LDOWNSAMPLE  =      F    k-point downsampling of WAVECAR
   LCHARG       =      F    write CHGCAR
   LVTOT        =      F    write LOCPOT, total local potential
   LVHAR        =      F    write LOCPOT, Hartree potential only
   LELF         =      F    write electronic localiz. function (ELF)
   LORBIT       =      0    0 simple, 1 ext, 2 COOP (PROOUT), +10 PAW based schemes


 Dipole corrections
   LMONO  =      F    monopole corrections only (constant potential shift)
   LDIPOL =      F    correct potential (dipole corrections)
   IDIPOL =      0    1-x, 2-y, 3-z, 4-all directions 
   EPSILON=  1.0000000 bulk dielectric constant

 Exchange correlation treatment:
   GGA     =    --    GGA type
   LEXCH   =     8    internal setting for exchange type
   VOSKOWN=      0    Vosko Wilk Nusair interpolation
   LHFCALC =     F    Hartree Fock is set to
   LHFONE  =     F    Hartree Fock one center treatment
   AEXX    =    0.0000 exact exchange contribution

 Linear response parameters
   LEPSILON=     F    determine dielectric tensor
   LRPA    =     F    only Hartree local field effects (RPA)
   LNABLA  =     F    use nabla operator in PAW spheres
   LVEL    =     F    velocity operator in full k-point grid
   LINTERFAST=   F  fast interpolation
   KINTER  =     0    interpolate to denser k-point grid
   CSHIFT  =0.1000    complex shift for real part using Kramers Kronig
   OMEGAMAX=  -1.0    maximum frequency
   DEG_THRESHOLD= 0.2000000E-02 threshold for treating states as degnerate
   RTIME   =   -0.100 relaxation time in fs
  (WPLASMAI=    0.000 imaginary part of plasma frequency in eV, 0.658/RTIME)
   DFIELD  = 0.0000000 0.0000000 0.0000000 field for delta impulse in time
 
 Orbital magnetization related:
   ORBITALMAG=     F  switch on orbital magnetization
   LCHIMAG   =     F  perturbation theory with respect to B field
   DQ        =  0.001000  dq finite difference perturbation B field
   LLRAUG    =     F  two centre corrections for induced B field



--------------------------------------------------------------------------------------------------------


 conjugate gradient relaxation of ions
   using selective dynamics as specified on POSCAR
 charge density and potential will be updated during run
 spin polarized calculation
 RMM-DIIS sequential band-by-band and
  variant of blocked Davidson during initial phase
 perform sub-space diagonalisation
    before iterative eigenvector-optimisation
 modified Broyden-mixing scheme, WC =      100.0
 initial mixing is a Kerker type mixing with AMIX =  0.4000 and BMIX =      1.0000
 Hartree-type preconditioning will be used
 using additional bands          197
 real space projection scheme for non local part
 use partial core corrections
 calculate Harris-corrections to forces 
   (improved forces if not selfconsistent)
 use gradient corrections 
 use of overlap-Matrix (Vanderbilt PP)
 Methfessel and Paxton  Order N= 1 SIGMA  =   0.10


--------------------------------------------------------------------------------------------------------


  energy-cutoff  :      550.00
  volume of cell :     2399.65
      direct lattice vectors                 reciprocal lattice vectors
    11.222700119  0.000000000  0.000000000     0.089105116 -0.051444863  0.000000000
     5.611350060  9.719143402  0.000000000     0.000000000  0.102889726  0.000000000
     0.000000000  0.000000000 22.000000000     0.000000000  0.000000000  0.045454545

  length of vectors
    11.222700119 11.222700119 22.000000000     0.102889726  0.102889726  0.045454545


 
 k-points in units of 2pi/SCALE and weight: mesh auto                               
   0.00000000  0.00000000  0.00000000       0.250
   0.04455256 -0.02572243  0.00000000       0.250
   0.00000000  0.05144486  0.00000000       0.250
   0.04455256  0.02572243  0.00000000       0.250
 
 k-points in reciprocal lattice and weights: mesh auto                               
   0.00000000  0.00000000  0.00000000       0.250
   0.50000000  0.00000000  0.00000000       0.250
   0.00000000  0.50000000  0.00000000       0.250
   0.50000000  0.50000000  0.00000000       0.250
 
 position of ions in fractional coordinates (direct lattice) 
   0.77565141  0.86995642  0.31454616
   0.03726767  0.86939735  0.31633907
   0.03633080  0.61739466  0.31308321
   0.02817284  0.37111849  0.31877620
   0.28981435  0.10615917  0.31846553
   0.28694614  0.36750652  0.31705326
   0.86038307  0.68854678  0.12531565
   0.86069082  0.95542901  0.41608579
   0.11497805  0.45611201  0.41918237
   0.12378233  0.95279974  0.41954381
   0.86991530  0.44881839  0.42066107
   0.37451156  0.94679451  0.41841843
   0.86561038  0.20525736  0.41580717
   0.11965739  0.20103720  0.42002402
   0.61932181  0.94576628  0.41793782
   0.86652285  0.70309507  0.41969294
   0.37224683  0.19668105  0.41982619
   0.37781609  0.70293761  0.41744273
   0.62177792  0.45633513  0.41932186
   0.11486893  0.69885824  0.42092527
   0.61873688  0.20625851  0.41701190
   0.54091360  0.37662976  0.31743913
   0.53152675  0.12125144  0.31653045
   0.54420190  0.12019148  0.05044345
   0.11424052  0.43860757  0.12340508
   0.03892265  0.11414894  0.31609053
   0.02432533  0.13236688  0.03690154
   0.11521348  0.95848802  0.12979272
   0.36812537  0.45060942  0.41935956
   0.45574359  0.53965249  0.22135250
   0.61893284  0.70045261  0.42070730
   0.94101394  0.79056552  0.21791424
   0.78018468  0.62239096  0.31794447
   0.28883354  0.62109808  0.31837640
   0.37681260  0.70908830  0.12233112
   0.19804412  0.27712854  0.22298714
   0.69395409  0.54843935  0.22211682
   0.21076833  0.79187996  0.22361313
   0.45574183  0.01649232  0.22064103
   0.68628609  0.04688739  0.21472279
   0.78458062  0.12142453  0.31297370
   0.94349309  0.28579245  0.22158907
   0.78678573  0.88216808  0.04880706
   0.03586233  0.85071210  0.04654319
   0.04812293  0.63029630  0.04396441
   0.62094942  0.22562192  0.13235731
   0.37094220  0.94439705  0.13130330
   0.99360993  0.37197898  0.04479349
   0.86316425  0.21223953  0.13085093
   0.94632970  0.53215547  0.22401160
   0.53690276  0.61906035  0.32268017
   0.29424967  0.10946403  0.05024110
   0.56523708  0.59647576  0.04673852
   0.30353543  0.38377122  0.04999638
   0.62775780  0.92360755  0.13039321
   0.69891684  0.78000591  0.22256618
   0.62226646  0.44852339  0.13148461
   0.28862215  0.86645821  0.32000596
   0.27920356  0.90344548  0.04109614
   0.61435034  0.71013018  0.13007464
   0.21650964  0.02241820  0.22577642
   0.53614829  0.37642561  0.04013354
   0.37023431  0.21051928  0.13657032
   0.13264840  0.68967264  0.13748505
   0.53558057  0.85771964  0.31850993
   0.78410875  0.12570915  0.04035826
   0.53292063  0.86611421  0.04082352
   0.21068881  0.52291933  0.22146415
   0.86931925  0.97366600  0.13234433
   0.70506050  0.29142744  0.22453327
   0.45331117  0.29469085  0.22351187
   0.85569873  0.44978941  0.13133023
   0.12736941  0.19194945  0.13066156
   0.77259672  0.59820800  0.04206678
   0.27526983  0.61273885  0.04635559
   0.38521707  0.45004557  0.13185726
   0.77733999  0.38038046  0.31965691
   0.77578291  0.36553722  0.04363425
   0.95382533  0.04285795  0.22280997
   0.45511611  0.78378709  0.22716765
   0.11587191  0.32831150  0.46388847
 
 position of ions in cartesian coordinates  (Angst):
  13.58653325  8.45523123  6.92001548
   5.29673679  8.44979751  6.95945955
   3.87214724  6.00054726  6.88783066
   2.39865113  3.60695384  7.01307648
   3.84819579  1.03177618  7.00624170
   5.28251818  3.57184852  6.97517183
  13.51949814  6.69208485  2.75694422
  15.02052160  9.28595154  9.15388738
   3.84976837  4.43301802  9.22201210
   6.73566480  9.26039728  9.22996380
  12.28127557  4.36213025  9.25454358
   9.51582632  9.20203158  9.20520554
  10.86625656  1.99492569  9.14775772
   2.47096915  1.95390936  9.24052850
  12.25748868  9.19203815  9.19463215
  13.67003872  6.83348184  9.23324467
   5.28126076  1.91157136  9.23617623
   8.18454572  6.83195148  9.18374013
   9.53868327  4.43518658  9.22508087
   5.21067777  6.79230343  9.26035602
   8.10128715  2.00465607  9.17426171
   8.18391251  3.66051863  6.98366078
   6.64554963  1.17846010  6.96366999
   6.78185123  1.16815827  1.10975587
   3.74326768  4.26288989  2.71491169
   1.07734692  1.10942995  6.95399167
   1.01575276  1.28649272  0.81183379
   6.67141817  9.31568253  2.85543986
   6.65988779  4.37953755  9.22591026
   8.14285267  5.24495994  4.86975508
  10.87658250  6.80779939  9.25556067
  14.99685718  7.68361965  4.79411333
  12.24823225  6.04910695  6.99477833
   6.72669100  6.03654129  7.00428089
   8.20779749  6.89173084  2.69128464
   3.77765507  2.69345205  4.90571710
  10.86552387  5.33036073  4.88657006
   6.80890548  7.69639494  4.91948892
   5.20719800  0.16029118  4.85410263
   7.96508457  0.45570528  4.72390144
   9.48646863  1.18014246  6.88542147
  12.19222152  2.77765781  4.87495965
  13.78001418  8.57391807  1.07375538
   5.17611559  8.26819293  1.02395014
   4.07688236  6.12594009  0.96721713
   8.23477271  2.19285182  2.91186093
   9.46231548  9.17873039  2.88867254
  13.23829050  3.61531702  0.98545676
  10.87798387  2.06278643  2.87872037
  13.60648511  5.17209535  4.92825516
   9.49926302  6.01673636  7.09896376
   3.91651686  1.06389665  1.10530426
   9.69052050  5.79723345  1.02824752
   5.55996175  3.72992755  1.09992033
  12.22782284  8.97667424  2.86865054
  12.22062035  7.58098930  4.89645605
   9.50033164  4.35926310  2.89266135
   8.10112017  8.42123155  7.04013101
   8.20296665  8.78071621  0.90411500
  10.87945866  6.90185704  2.86164217
   2.55561917  0.21788571  4.96708124
   8.12928731  3.65853446  0.88293797
   5.33632603  2.04606707  3.00454701
   5.35866784  6.70302732  3.02467112
  10.82362526  8.33630022  7.00721852
   9.50521537  1.22178527  0.88788171
  10.84087843  8.41788825  0.89811744
   5.29878074  5.08232791  4.87221127
  15.21969006  9.46319948  2.91157520
   9.54798398  2.83242508  4.93973185
   6.74098883  2.86414265  4.91726116
  12.12717608  4.37156778  2.88926501
   2.50652432  1.86558426  2.87455439
  12.02737582  5.81406929  0.92546912
   6.52756292  5.95529675  1.01982289
   6.84853891  4.37405744  2.90085982
  10.85830151  3.69697227  7.03245195
  10.75753628  3.55270863  0.95995355
  10.94498656  0.41654257  4.90181936
   9.50573532  7.61773913  4.99768830
   3.14266647  3.19090657 10.20554644
 


--------------------------------------------------------------------------------------------------------


 k-point  1 :   0.0000 0.0000 0.0000  plane waves:   70321
 k-point  2 :   0.5000 0.0000 0.0000  plane waves:   70264
 k-point  3 :   0.0000 0.5000 0.0000  plane waves:   70264
 k-point  4 :   0.5000 0.5000 0.0000  plane waves:   70264

 maximum and minimum number of plane-waves per node :     17611    17530

 maximum number of plane-waves:     70321
 maximum index in each direction: 
   IXMAX=   21   IYMAX=   21   IZMAX=   42
   IXMIN=  -21   IYMIN=  -21   IZMIN=  -42


 real space projection operators:
  total allocation   :      80383.67 KBytes
  max/ min on nodes  :      20546.04      19655.20


 parallel 3D FFT for wavefunctions:
    minimum data exchange during FFTs selected (reduces bandwidth)
 parallel 3D FFT for charge:
    minimum data exchange during FFTs selected (reduces bandwidth)


 total amount of memory used by VASP MPI-rank0   252733. kBytes
=======================================================================

   base      :      30000. kBytes
   nonlr-proj:      36144. kBytes
   fftplans  :      18297. kBytes
   grid      :      55120. kBytes
   one-center:        653. kBytes
   wavefun   :     112519. kBytes
 
     INWAV:  cpu time    0.0002: real time    0.0003
 Broyden mixing: mesh for mixing (old mesh)
   NGX = 43   NGY = 43   NGZ = 85
  (NGX  =180   NGY  =180   NGZ  =336)
  gives a total of 157165 points

 initial charge density was supplied:
 charge density of overlapping atoms calculated
 number of electron     782.0000000 magnetization     231.0000000
 keeping initial charge density in first step


--------------------------------------------------------------------------------------------------------


 Maximum index for non-local projection operator         2111
 Maximum index for augmentation-charges         1115 (set IRDMAX)


--------------------------------------------------------------------------------------------------------


 First call to EWALD:  gamma=   0.132
 Maximum number of real-space cells 4x 4x 2
 Maximum number of reciprocal cells 2x 2x 4

    FEWALD:  cpu time    0.0045: real time    0.0068


--------------------------------------- Iteration      1(   1)  ---------------------------------------


    POTLOK:  cpu time    0.4225: real time    0.4497
    SETDIJ:  cpu time    0.0345: real time    0.0511
     EDDAV:  cpu time   66.4665: real time   66.7619
       DOS:  cpu time    0.0021: real time    0.0208
    --------------------------------------------
      LOOP:  cpu time   66.9257: real time   67.2835

 eigenvalue-minimisations  :  9408
 total energy-change (2. order) : 0.7526289E+04  (-0.3320648E+05)
 number of electron     782.0000000 magnetization     231.0000000
 augmentation part      782.0000000 magnetization     231.0000000

 Free energy of the ion-electron system (eV)
  ---------------------------------------------------
  alpha Z        PSCENC =      2087.66410956
  Ewald energy   TEWEN  =    207662.70794772
  -Hartree energ DENC   =   -277369.50397638
  -exchange      EXHF   =         0.00000000
  -V(xc)+E(xc)   XCENC  =      1139.75087070
  PAW double counting   =     62149.36172160   -63175.55445867
  entropy T*S    EENTRO =        -0.00914393
  eigenvalues    EBANDS =      7524.30982418
  atomic energy  EATOM  =     67507.56188773
  Solvation  Ediel_sol  =         0.00000000
  ---------------------------------------------------
  free energy    TOTEN  =      7526.28878252 eV

  energy without entropy =     7526.29792645  energy(sigma->0) =     7526.29183049


--------------------------------------------------------------------------------------------------------




--------------------------------------- Iteration      1(   2)  ---------------------------------------


     EDDAV:  cpu time   67.0933: real time   67.3531
       DOS:  cpu time    0.0024: real time    0.0025
    --------------------------------------------
      LOOP:  cpu time   67.0957: real time   67.3556

 eigenvalue-minimisations  :  9540
 total energy-change (2. order) :-0.6885454E+04  (-0.6144827E+04)
 number of electron     782.0000000 magnetization     231.0000000
 augmentation part      782.0000000 magnetization     231.0000000

 Free energy of the ion-electron system (eV)
  ---------------------------------------------------
  alpha Z        PSCENC =      2087.66410956
  Ewald energy   TEWEN  =    207662.70794772
  -Hartree energ DENC   =   -277369.50397638
  -exchange      EXHF   =         0.00000000
  -V(xc)+E(xc)   XCENC  =      1139.75087070
  PAW double counting   =     62149.36172160   -63175.55445867
  entropy T*S    EENTRO =         0.01167883
  eigenvalues    EBANDS =       638.83450203
  atomic energy  EATOM  =     67507.56188773
  Solvation  Ediel_sol  =         0.00000000
  ---------------------------------------------------
  free energy    TOTEN  =       640.83428313 eV

  energy without entropy =      640.82260430  energy(sigma->0) =      640.83039018


--------------------------------------------------------------------------------------------------------




--------------------------------------- Iteration      1(   3)  ---------------------------------------


     EDDAV:  cpu time   67.0103: real time   67.1987
       DOS:  cpu time    0.0026: real time    0.0137
    --------------------------------------------
      LOOP:  cpu time   67.0129: real time   67.2124

 eigenvalue-minimisations  :  9492
 total energy-change (2. order) :-0.1017323E+04  (-0.8356009E+03)
 number of electron     782.0000000 magnetization     231.0000000
 augmentation part      782.0000000 magnetization     231.0000000

 Free energy of the ion-electron system (eV)
  ---------------------------------------------------
  alpha Z        PSCENC =      2087.66410956
  Ewald energy   TEWEN  =    207662.70794772
  -Hartree energ DENC   =   -277369.50397638
  -exchange      EXHF   =         0.00000000
  -V(xc)+E(xc)   XCENC  =      1139.75087070
  PAW double counting   =     62149.36172160   -63175.55445867
  entropy T*S    EENTRO =         0.00646548
  eigenvalues    EBANDS =      -378.48292478
  atomic energy  EATOM  =     67507.56188773
  Solvation  Ediel_sol  =         0.00000000
  ---------------------------------------------------
  free energy    TOTEN  =      -376.48835703 eV

  energy without entropy =     -376.49482251  energy(sigma->0) =     -376.49051219


--------------------------------------------------------------------------------------------------------




--------------------------------------- Iteration      1(   4)  ---------------------------------------


     EDDAV:  cpu time   79.9139: real time   80.1569
       DOS:  cpu time    0.0026: real time    0.0193
    --------------------------------------------
      LOOP:  cpu time   79.9165: real time   80.1763

 eigenvalue-minimisations  : 11916
 total energy-change (2. order) :-0.9187541E+02  (-0.8435975E+02)
 number of electron     782.0000000 magnetization     231.0000000
 augmentation part      782.0000000 magnetization     231.0000000

 Free energy of the ion-electron system (eV)
  ---------------------------------------------------
  alpha Z        PSCENC =      2087.66410956
  Ewald energy   TEWEN  =    207662.70794772
  -Hartree energ DENC   =   -277369.50397638
  -exchange      EXHF   =         0.00000000
  -V(xc)+E(xc)   XCENC  =      1139.75087070
  PAW double counting   =     62149.36172160   -63175.55445867
  entropy T*S    EENTRO =        -0.00171987
  eigenvalues    EBANDS =      -470.35014845
  atomic energy  EATOM  =     67507.56188773
  Solvation  Ediel_sol  =         0.00000000
  ---------------------------------------------------
  free energy    TOTEN  =      -468.36376604 eV

  energy without entropy =     -468.36204618  energy(sigma->0) =     -468.36319276


--------------------------------------------------------------------------------------------------------




--------------------------------------- Iteration      1(   5)  ---------------------------------------


     EDDAV:  cpu time   76.2614: real time   76.4950
       DOS:  cpu time    0.0030: real time    0.0123
    CHARGE:  cpu time    4.4578: real time    4.4846
    MIXING:  cpu time    0.0114: real time    0.0116
    --------------------------------------------
      LOOP:  cpu time   80.7335: real time   81.0036

 eigenvalue-minimisations  : 11232
 total energy-change (2. order) :-0.3714666E+01  (-0.3685292E+01)
 number of electron     782.0000027 magnetization     215.7002828
 augmentation part      312.8386454 magnetization     181.2095806

 Broyden mixing:
  rms(total) = 0.11796E+02    rms(broyden)= 0.11796E+02
  rms(prec ) = 0.12183E+02
  weight for this iteration     100.00

 Free energy of the ion-electron system (eV)
  ---------------------------------------------------
  alpha Z        PSCENC =      2087.66410956
  Ewald energy   TEWEN  =    207662.70794772
  -Hartree energ DENC   =   -277369.50397638
  -exchange      EXHF   =         0.00000000
  -V(xc)+E(xc)   XCENC  =      1139.75087070
  PAW double counting   =     62149.36172160   -63175.55445867
  entropy T*S    EENTRO =        -0.00173843
  eigenvalues    EBANDS =      -474.06479545
  atomic energy  EATOM  =     67507.56188773
  Solvation  Ediel_sol  =         0.00000000
  ---------------------------------------------------
  free energy    TOTEN  =      -472.07843161 eV

  energy without entropy =     -472.07669318  energy(sigma->0) =     -472.07785213


--------------------------------------------------------------------------------------------------------




--------------------------------------- Iteration      1(   6)  ---------------------------------------


    POTLOK:  cpu time    0.4060: real time    0.4157
    SETDIJ:  cpu time    0.0339: real time    0.0341
    EDDIAG:  cpu time   11.9317: real time   11.9645
  RMM-DIIS:  cpu time   43.8581: real time   45.3106
    ORTHCH:  cpu time    1.2529: real time    1.2563
       DOS:  cpu time    0.0023: real time    0.0023
    CHARGE:  cpu time    4.3615: real time    4.3737
    MIXING:  cpu time    0.0114: real time    0.0119
    --------------------------------------------
      LOOP:  cpu time   61.8578: real time   63.3692

 eigenvalue-minimisations  : 10028
 total energy-change (2. order) :-0.2861950E+03  (-0.1019751E+03)
 number of electron     782.0000038 magnetization     211.7838425
 augmentation part      370.4532538 magnetization     175.8474958

 Broyden mixing:
  rms(total) = 0.20578E+02    rms(broyden)= 0.20578E+02
  rms(prec ) = 0.27321E+02
  weight for this iteration     100.00

 eigenvalues of (default mixing * dielectric matrix)
  average eigenvalue GAMMA=   0.2556
  0.2556

 Free energy of the ion-electron system (eV)
  ---------------------------------------------------
  alpha Z        PSCENC =      2087.66410956
  Ewald energy   TEWEN  =    207662.70794772
  -Hartree energ DENC   =   -275789.23820024
  -exchange      EXHF   =         0.00000000
  -V(xc)+E(xc)   XCENC  =      1102.61489507
  PAW double counting   =     66608.78373488   -67460.12373398
  entropy T*S    EENTRO =        -0.00405665
  eigenvalues    EBANDS =     -2478.24004407
  atomic energy  EATOM  =     67507.56188773
  Solvation  Ediel_sol  =         0.00000000
  ---------------------------------------------------
  free energy    TOTEN  =      -758.27345997 eV

  energy without entropy =     -758.26940332  energy(sigma->0) =     -758.27210775


--------------------------------------------------------------------------------------------------------




--------------------------------------- Iteration      1(   7)  ---------------------------------------


    POTLOK:  cpu time    0.4107: real time    0.4131
    SETDIJ:  cpu time    0.0334: real time    0.0335
    EDDIAG:  cpu time   11.9875: real time   12.0210
  RMM-DIIS:  cpu time   42.1900: real time   42.3074
    ORTHCH:  cpu time    1.2522: real time    1.2556
       DOS:  cpu time    0.0025: real time    0.0025
    CHARGE:  cpu time    4.3543: real time    4.3663
    MIXING:  cpu time    0.0115: real time    0.0117
    --------------------------------------------
      LOOP:  cpu time   60.2420: real time   60.4111

 eigenvalue-minimisations  :  9423
 total energy-change (2. order) : 0.2102901E+03  (-0.1879448E+02)
 number of electron     782.0000026 magnetization     206.9357691
 augmentation part      340.4610956 magnetization     165.9620525

 Broyden mixing:
  rms(total) = 0.15198E+02    rms(broyden)= 0.15198E+02
  rms(prec ) = 0.19392E+02
  weight for this iteration     100.00

 eigenvalues of (default mixing * dielectric matrix)
  average eigenvalue GAMMA=   0.2684
  0.3824  0.1543

 Free energy of the ion-electron system (eV)
  ---------------------------------------------------
  alpha Z        PSCENC =      2087.66410956
  Ewald energy   TEWEN  =    207662.70794772
  -Hartree energ DENC   =   -276417.98534923
  -exchange      EXHF   =         0.00000000
  -V(xc)+E(xc)   XCENC  =      1121.04989848
  PAW double counting   =     67585.88482516   -68579.17771366
  entropy T*S    EENTRO =        -0.00002586
  eigenvalues    EBANDS =     -1515.68894231
  atomic energy  EATOM  =     67507.56188773
  Solvation  Ediel_sol  =         0.00000000
  ---------------------------------------------------
  free energy    TOTEN  =      -547.98336240 eV

  energy without entropy =     -547.98333654  energy(sigma->0) =     -547.98335378


--------------------------------------------------------------------------------------------------------




--------------------------------------- Iteration      1(   8)  ---------------------------------------


    POTLOK:  cpu time    0.4121: real time    0.4144
    SETDIJ:  cpu time    0.0336: real time    0.0336
    EDDIAG:  cpu time   11.9435: real time   11.9772
  RMM-DIIS:  cpu time   42.1991: real time   42.3165
    ORTHCH:  cpu time    1.2542: real time    1.2575
       DOS:  cpu time    0.0025: real time    0.0025
    CHARGE:  cpu time    4.2647: real time    4.2763
    MIXING:  cpu time    0.0119: real time    0.0122
    --------------------------------------------
      LOOP:  cpu time   60.1216: real time   60.2903

 eigenvalue-minimisations  :  9431
 total energy-change (2. order) : 0.1230985E+03  (-0.1724322E+02)
 number of electron     782.0000028 magnetization     199.8868479
 augmentation part      350.9039648 magnetization     156.7644180

 Broyden mixing:
  rms(total) = 0.12550E+02    rms(broyden)= 0.12550E+02
  rms(prec ) = 0.13932E+02
  weight for this iteration     100.00

 eigenvalues of (default mixing * dielectric matrix)
  average eigenvalue GAMMA=   0.3143
  0.5545  0.2786  0.1099

 Free energy of the ion-electron system (eV)
  ---------------------------------------------------
  alpha Z        PSCENC =      2087.66410956
  Ewald energy   TEWEN  =    207662.70794772
  -Hartree energ DENC   =   -276597.00941661
  -exchange      EXHF   =         0.00000000
  -V(xc)+E(xc)   XCENC  =      1130.65791835
  PAW double counting   =     68734.40160043   -69785.36436536
  entropy T*S    EENTRO =         0.00461839
  eigenvalues    EBANDS =     -1165.50911731
  atomic energy  EATOM  =     67507.56188773
  Solvation  Ediel_sol  =         0.00000000
  ---------------------------------------------------
  free energy    TOTEN  =      -424.88481708 eV

  energy without entropy =     -424.88943548  energy(sigma->0) =     -424.88635655


--------------------------------------------------------------------------------------------------------




--------------------------------------- Iteration      1(   9)  ---------------------------------------


    POTLOK:  cpu time    0.4111: real time    0.4131
    SETDIJ:  cpu time    0.0338: real time    0.0339
    EDDIAG:  cpu time   11.9509: real time   12.0266
  RMM-DIIS:  cpu time   42.2767: real time   42.4450
    ORTHCH:  cpu time    1.2516: real time    1.2559
       DOS:  cpu time    0.0025: real time    0.0026
    CHARGE:  cpu time    4.2746: real time    4.2888
    MIXING:  cpu time    0.0121: real time    0.0123
    --------------------------------------------
      LOOP:  cpu time   60.2133: real time   60.4780

 eigenvalue-minimisations  :  9447
 total energy-change (2. order) : 0.2284028E+02  (-0.2054646E+02)
 number of electron     782.0000035 magnetization     192.6999068
 augmentation part      347.3196005 magnetization     149.2102943

 Broyden mixing:
  rms(total) = 0.13809E+02    rms(broyden)= 0.13809E+02
  rms(prec ) = 0.15177E+02
  weight for this iteration     100.00

 eigenvalues of (default mixing * dielectric matrix)
  average eigenvalue GAMMA=   0.3494
  0.7566  0.3872  0.1269  0.1269

 Free energy of the ion-electron system (eV)
  ---------------------------------------------------
  alpha Z        PSCENC =      2087.66410956
  Ewald energy   TEWEN  =    207662.70794772
  -Hartree energ DENC   =   -276541.70559192
  -exchange      EXHF   =         0.00000000
  -V(xc)+E(xc)   XCENC  =      1142.91164620
  PAW double counting   =     70088.82840996   -71201.80089984
  entropy T*S    EENTRO =         0.00343823
  eigenvalues    EBANDS =     -1148.21548080
  atomic energy  EATOM  =     67507.56188773
  Solvation  Ediel_sol  =         0.00000000
  ---------------------------------------------------
  free energy    TOTEN  =      -402.04453316 eV

  energy without entropy =     -402.04797139  energy(sigma->0) =     -402.04567924


--------------------------------------------------------------------------------------------------------




--------------------------------------- Iteration      1(  10)  ---------------------------------------


    POTLOK:  cpu time    0.4033: real time    0.4124
    SETDIJ:  cpu time    0.0340: real time    0.0341
    EDDIAG:  cpu time   11.9425: real time   11.9839
  RMM-DIIS:  cpu time   42.3344: real time   42.4520
    ORTHCH:  cpu time    1.2550: real time    1.2587
       DOS:  cpu time    0.0025: real time    0.0025
    CHARGE:  cpu time    4.2627: real time    4.2744
    MIXING:  cpu time    0.0124: real time    0.0125
[...]
   -.729E+02 -.110E+01 -.130E+04   0.719E+02 0.912E+00 0.130E+04   0.947E+00 0.238E+00 0.144E+01   0.159E-02 -.519E-01 -.633E-02
   0.461E+02 0.322E+02 -.133E+04   -.455E+02 -.321E+02 0.133E+04   -.572E+00 -.236E+00 0.150E+01   -.110E-01 0.966E-01 -.152E-01
   0.123E+02 -.234E+02 -.129E+04   -.124E+02 0.224E+02 0.129E+04   0.167E+00 0.946E+00 0.202E+01   -.422E-01 0.595E-01 0.970E-01
   -.453E+02 0.241E+01 -.137E+04   0.446E+02 -.179E+01 0.136E+04   0.593E+00 -.607E+00 0.174E+01   0.314E-01 -.247E-01 0.874E-01
   0.614E+00 -.847E+02 -.138E+04   -.127E+01 0.836E+02 0.138E+04   0.699E+00 0.113E+01 0.171E+01   -.578E-01 -.166E-01 0.576E-01
   0.538E+02 0.408E+01 -.141E+04   -.535E+02 -.408E+01 0.141E+04   -.179E+00 0.116E-01 0.163E+01   -.667E-01 0.865E-03 0.122E+00
   -.122E+03 -.382E+01 0.153E+04   0.121E+03 0.441E+01 -.154E+04   0.978E+00 -.731E+00 0.695E+00   -.681E-02 0.112E+00 0.358E+00
   -.514E+01 0.617E+00 -.265E+04   0.534E+01 -.737E+00 0.265E+04   -.250E+00 0.164E+00 0.168E+01   0.390E-01 -.300E-01 -.649E-01
   -.230E+02 -.582E+01 -.265E+04   0.226E+02 0.615E+01 0.265E+04   0.443E+00 -.369E+00 -.111E-01   -.178E-01 0.103E-01 -.246E-01
   0.485E+02 -.837E+01 -.267E+04   -.478E+02 0.810E+01 0.267E+04   -.695E+00 0.263E+00 0.231E+01   -.496E-02 0.289E-01 -.567E-01
   -.446E+02 0.311E+01 -.269E+04   0.436E+02 -.324E+01 0.269E+04   0.103E+01 0.860E-01 0.216E+01   0.254E-01 0.333E-01 -.398E-02
   0.134E+02 -.472E+02 -.271E+04   -.136E+02 0.468E+02 0.271E+04   0.261E+00 0.443E+00 0.216E+01   -.152E-01 -.203E-01 -.242E-01
   -.623E+01 0.460E+02 -.266E+04   0.562E+01 -.458E+02 0.266E+04   0.583E+00 -.159E+00 0.174E+01   0.439E-01 -.673E-01 -.155E-01
   0.137E+01 0.132E+02 -.267E+04   -.123E+01 -.127E+02 0.267E+04   -.122E+00 -.496E+00 0.157E-02   -.818E-02 -.218E-01 -.453E-01
   -.516E+02 -.362E+02 -.269E+04   0.514E+02 0.354E+02 0.268E+04   0.267E+00 0.875E+00 0.150E+01   -.428E-02 -.693E-01 -.318E-01
   -.361E+02 0.216E+01 -.266E+04   0.359E+02 -.163E+01 0.266E+04   0.244E+00 -.570E+00 0.147E+01   -.744E-02 0.148E-01 -.558E-01
   0.102E+02 -.352E+02 -.268E+04   -.886E+01 0.340E+02 0.268E+04   -.138E+01 0.129E+01 0.221E+01   -.543E-01 -.980E-02 -.153E-01
   0.549E+02 0.154E+02 -.269E+04   -.540E+02 -.151E+02 0.269E+04   -.858E+00 -.379E+00 0.206E+01   0.179E-01 0.186E-01 -.109E-01
   0.370E+02 0.228E+02 -.272E+04   -.362E+02 -.222E+02 0.272E+04   -.815E+00 -.718E+00 0.207E+01   -.264E-02 0.650E-01 0.306E-01
   0.820E+01 -.164E+02 -.265E+04   -.843E+01 0.159E+02 0.265E+04   0.225E+00 0.466E+00 0.145E+01   -.196E-01 0.776E-02 -.453E-01
   0.791E+01 0.278E+02 -.268E+04   -.774E+01 -.272E+02 0.268E+04   -.225E+00 -.645E+00 0.184E+01   0.183E-01 -.380E-01 -.426E-02
   0.499E+02 0.200E+01 -.142E+04   -.485E+02 -.125E+01 0.142E+04   -.135E+01 -.786E+00 0.145E+01   -.244E-01 0.116E-01 0.107E+00
   -.407E+01 0.115E+02 -.135E+04   0.377E+01 -.112E+02 0.135E+04   0.273E+00 -.231E+00 0.109E+01   -.201E-01 -.800E-01 0.529E-01
   0.821E+02 0.606E+02 0.270E+04   -.819E+02 -.606E+02 -.270E+04   -.302E+00 0.873E-01 -.262E+01   0.171E-01 -.819E-01 0.129E+00
   0.523E+02 -.334E+02 0.159E+04   -.529E+02 0.332E+02 -.160E+04   0.646E+00 0.149E+00 0.144E+01   -.606E-01 -.101E-01 0.270E+00
   -.149E+02 -.153E+02 -.136E+04   0.153E+02 0.151E+02 0.136E+04   -.312E+00 0.239E+00 0.157E+01   -.386E-01 -.821E-01 -.146E-01
   -.790E+02 0.858E+02 0.283E+04   0.797E+02 -.844E+02 -.283E+04   -.631E+00 -.136E+01 -.296E+01   0.139E-01 -.369E-01 0.107E+00
   -.148E+02 0.274E+02 0.149E+04   0.145E+02 -.273E+02 -.149E+04   0.315E+00 -.767E-01 -.359E+00   -.380E-01 0.737E-01 0.381E+00
   0.193E+02 0.920E+01 -.269E+04   -.195E+02 -.904E+01 0.268E+04   0.240E+00 -.214E+00 0.187E+01   -.291E-01 0.356E-01 0.119E-03
   0.117E+02 -.785E+02 0.681E+01   -.113E+02 0.777E+02 -.761E+01   -.365E+00 0.672E+00 0.534E+00   0.968E-02 0.101E+00 0.221E+00
   -.278E+02 0.908E+01 -.273E+04   0.272E+02 -.929E+01 0.273E+04   0.589E+00 0.206E+00 0.187E+01   -.354E-02 0.277E-01 -.255E-01
   0.213E+02 0.323E+02 0.963E+02   -.220E+02 -.330E+02 -.968E+02   0.807E+00 0.673E+00 0.166E+00   -.348E-01 0.112E+00 0.234E+00
   -.832E+02 0.225E+02 -.135E+04   0.823E+02 -.225E+02 0.135E+04   0.821E+00 -.164E+00 0.228E+01   0.331E-01 0.123E+00 0.321E-01
   0.474E+02 -.141E+02 -.137E+04   -.463E+02 0.147E+02 0.137E+04   -.106E+01 -.601E+00 0.135E+01   -.227E-01 0.726E-01 0.994E-01
   0.414E+02 -.784E+02 0.159E+04   -.401E+02 0.783E+02 -.159E+04   -.139E+01 -.304E-01 0.136E+01   -.103E-01 0.130E+00 0.337E+00
   0.403E+02 -.306E+02 -.565E+00   -.406E+02 0.306E+02 -.213E+00   0.412E+00 0.407E-01 0.648E+00   -.540E-01 -.713E-01 0.210E+00
   -.506E+02 -.528E+01 0.557E+01   0.509E+02 0.631E+01 -.650E+01   -.393E+00 -.127E+01 0.694E+00   0.643E-01 0.171E+00 0.235E+00
   0.528E+02 -.350E+01 0.263E+02   -.519E+02 0.454E+01 -.262E+02   -.930E+00 -.116E+01 -.272E+00   -.264E-01 0.155E+00 0.201E+00
   -.291E+02 -.622E+02 0.869E+02   0.282E+02 0.607E+02 -.887E+02   0.956E+00 0.172E+01 0.160E+01   -.238E-02 -.127E+00 0.163E+00
   0.155E+02 0.769E+02 0.140E+03   -.159E+02 -.759E+02 -.141E+03   0.416E+00 -.899E+00 0.149E+01   0.466E-01 -.129E+00 0.174E+00
   0.190E+02 0.738E+02 -.134E+04   -.186E+02 -.733E+02 0.134E+04   -.343E+00 -.367E+00 0.155E+01   0.110E+00 -.148E+00 -.746E-02
   -.110E+03 0.139E+01 0.254E+02   0.109E+03 -.146E+01 -.269E+02   0.102E+01 0.219E+00 0.137E+01   0.173E-01 -.175E+00 0.201E+00
   -.802E+00 0.745E+02 0.220E+04   0.198E+01 -.741E+02 -.220E+04   -.119E+01 -.465E+00 -.364E+01   -.316E-01 0.419E-01 0.124E+00
   -.189E+02 -.162E+02 0.222E+04   0.172E+02 0.144E+02 -.222E+04   0.175E+01 0.196E+01 -.305E+01   -.408E-02 0.590E-01 0.107E+00
   0.122E+03 0.274E+02 0.225E+04   -.120E+03 -.261E+02 -.224E+04   -.202E+01 -.134E+01 -.398E+01   -.467E-01 0.249E-01 0.749E-01
   0.425E+02 0.107E+03 0.113E+04   -.420E+02 -.106E+03 -.112E+04   -.598E+00 -.251E+00 -.649E+00   0.393E-02 -.103E+00 0.182E+00
   0.944E+01 -.405E+02 0.114E+04   -.928E+01 0.403E+02 -.114E+04   -.217E+00 0.168E+00 -.531E+00   0.138E-01 0.970E-02 0.258E+00
   -.212E+03 0.632E+01 0.225E+04   0.209E+03 -.647E+01 -.224E+04   0.268E+01 0.171E+00 -.347E+01   0.445E-01 -.664E-01 0.672E-01
   -.622E+02 0.689E+02 0.113E+04   0.619E+02 -.678E+02 -.113E+04   0.333E+00 -.107E+01 -.698E+00   0.268E-01 -.150E+00 0.263E+00
   -.557E+02 -.812E+01 0.329E+02   0.552E+02 0.805E+01 -.325E+02   0.558E+00 -.789E-01 -.679E+00   -.205E-01 0.756E-01 0.183E+00
   0.240E+02 0.821E+01 -.113E+04   -.240E+02 -.847E+01 0.113E+04   0.526E-03 0.104E+00 -.193E+00   0.139E-01 0.873E-01 0.642E-01
   -.289E+02 -.104E+03 0.220E+04   0.282E+02 0.102E+03 -.220E+04   0.718E+00 0.259E+01 -.314E+01   -.926E-02 -.321E-01 0.106E+00
   0.105E+03 -.140E+03 0.252E+04   -.104E+03 0.139E+03 -.252E+04   -.127E+01 0.106E+01 -.308E+01   -.390E-01 0.604E-01 0.737E-01
   0.201E+03 0.810E+02 0.252E+04   -.200E+03 -.796E+02 -.252E+04   -.115E+01 -.139E+01 -.302E+01   -.166E-01 -.528E-01 0.880E-01
   -.502E+02 -.585E+02 0.131E+04   0.500E+02 0.580E+02 -.131E+04   0.203E+00 0.632E+00 -.537E+00   -.118E-02 -.192E-01 0.307E+00
   -.999E+02 -.106E+01 0.407E+02   0.997E+02 0.769E+00 -.411E+02   0.232E+00 0.273E+00 0.108E+00   -.126E-02 0.445E-01 0.182E+00
   -.182E+01 -.462E+02 0.122E+04   0.203E+01 0.456E+02 -.122E+04   -.224E+00 0.774E+00 -.426E+00   -.219E-01 -.406E-01 0.274E+00
   0.548E+02 0.300E+01 -.125E+04   -.546E+02 -.303E+01 0.125E+04   -.321E+00 0.164E-01 0.375E+00   0.885E-03 0.308E-01 0.459E-02
   0.710E+02 0.477E+02 0.255E+04   -.703E+02 -.459E+02 -.254E+04   -.707E+00 -.188E+01 -.407E+01   0.268E-02 0.622E-01 0.110E+00
   -.602E+01 -.355E+02 0.127E+04   0.616E+01 0.357E+02 -.127E+04   -.233E+00 -.376E+00 -.413E+00   0.588E-01 0.165E+00 0.381E+00
   0.260E+02 -.469E+02 0.267E+02   -.254E+02 0.464E+02 -.265E+02   -.559E+00 0.578E+00 -.368E+00   -.683E-01 -.182E-01 0.159E+00
   0.800E+02 0.129E+02 0.316E+04   -.798E+02 -.122E+02 -.316E+04   -.141E+00 -.639E+00 -.435E+01   -.632E-02 -.120E+00 0.549E-01
   0.664E+02 0.766E+02 0.155E+04   -.669E+02 -.759E+02 -.155E+04   0.497E+00 -.571E+00 0.234E+00   -.180E-01 -.133E+00 0.296E+00
   0.943E+02 -.723E+02 0.147E+04   -.944E+02 0.721E+02 -.147E+04   0.960E-01 0.134E+00 -.513E+00   -.350E-01 0.110E+00 0.351E+00
   -.462E+02 -.369E+02 -.151E+04   0.457E+02 0.361E+02 0.151E+04   0.608E+00 0.102E+01 0.107E+01   0.389E-01 -.517E-01 -.191E-01
   0.160E+02 0.140E+03 0.310E+04   -.159E+02 -.141E+03 -.310E+04   -.134E+00 0.260E+00 -.347E+01   -.150E-01 -.497E-01 0.116E+00
   -.383E+02 -.592E+02 0.312E+04   0.373E+02 0.596E+02 -.312E+04   0.986E+00 -.453E+00 -.474E+01   0.366E-01 0.117E+00 0.140E+00
   0.124E+03 -.495E+02 0.267E+02   -.124E+03 0.487E+02 -.263E+02   0.293E-02 0.731E+00 -.659E+00   -.453E-01 0.539E-01 0.240E+00
   0.391E+02 0.113E+03 0.157E+04   -.389E+02 -.113E+03 -.157E+04   -.259E+00 -.698E+00 -.126E+01   0.460E-01 0.380E-01 0.424E+00
   -.147E+02 0.407E+02 -.191E+02   0.152E+02 -.408E+02 0.189E+02   -.646E+00 0.442E+00 -.705E-01   0.634E-01 -.184E+00 0.183E+00
   0.539E+02 0.734E+02 -.360E+02   -.534E+02 -.729E+02 0.358E+02   -.564E+00 -.593E+00 -.257E-01   -.227E-01 -.778E-01 0.194E+00
   -.150E+03 -.616E+01 0.134E+04   0.149E+03 0.612E+01 -.134E+04   0.753E+00 0.125E+00 -.914E+00   0.787E-01 -.301E-01 0.319E+00
   -.220E+02 -.115E+02 0.146E+04   0.224E+02 0.115E+02 -.146E+04   -.484E+00 0.252E+00 -.764E+00   -.294E-01 -.829E-01 0.274E+00
   -.204E+03 -.115E+03 0.285E+04   0.204E+03 0.114E+03 -.285E+04   0.532E+00 0.132E+01 -.255E+01   0.102E+00 0.616E-01 0.856E-01
   -.193E+02 -.126E+03 0.282E+04   0.174E+02 0.126E+03 -.282E+04   0.199E+01 0.263E+00 -.167E+01   -.638E-03 0.665E-01 0.924E-01
   0.631E+02 -.392E+02 0.140E+04   -.622E+02 0.389E+02 -.140E+04   -.845E+00 0.317E+00 -.601E+00   0.122E-01 -.134E-01 0.291E+00
   -.529E+02 0.178E+02 -.140E+04   0.526E+02 -.175E+02 0.140E+04   0.323E+00 -.347E+00 -.274E-01   0.449E-01 -.214E-01 0.899E-01
   -.598E+02 0.504E+02 0.281E+04   0.602E+02 -.497E+02 -.281E+04   -.317E+00 -.616E+00 -.132E+01   0.229E-01 -.147E+00 0.610E-01
   -.140E+02 0.602E+02 0.170E+02   0.142E+02 -.598E+02 -.171E+02   -.349E+00 -.413E+00 -.274E+00   0.300E-01 -.601E-01 0.214E+00
   0.401E+02 0.651E+01 0.934E+01   -.399E+02 -.636E+01 -.937E+01   -.338E+00 -.303E+00 -.317E+00   0.716E-01 0.727E-01 0.181E+00
   -.265E+01 0.172E+00 -.317E+03   0.273E+01 -.139E+00 0.319E+03   -.541E-01 -.518E-01 -.169E+01   0.930E-04 -.384E-03 -.126E-01
 -----------------------------------------------------------------------------------------------
   -.496E+00 0.619E+00 -.417E+01   -.422E-13 0.735E-12 -.148E-10   0.389E+00 -.487E+00 -.586E+01   0.859E-01 -.103E+00 0.100E+02
 
 
 POSITION                                       TOTAL-FORCE (eV/Angst)
 -----------------------------------------------------------------------------------
     13.58829      8.46016      6.92008         0.007277     -0.017155      0.015651
      5.28257      8.45558      6.93516         0.005297     -0.012281     -0.021989
      3.86527      5.98111      6.88436        -0.002124      0.010447      0.020354
      2.40820      3.60378      7.02631         0.008774     -0.006001     -0.004200
      3.84464      1.04064      7.01535        -0.002547      0.018012     -0.022380
      5.27422      3.57226      6.98998        -0.002416     -0.006064      0.011601
     13.51950      6.69208      2.75694        -0.031878     -0.020513      0.019572
     15.09561      9.25888      9.15677        -0.008370      0.004746     -0.002662
      3.85066      4.45954      9.29046         0.015857      0.002093     -0.022334
      6.72552      9.21435      9.16586         0.001768      0.024513      0.012761
     12.22934      4.38953      9.23672        -0.012482      0.007151      0.025661
      9.48635      9.17593      9.20046         0.009402     -0.011858      0.019350
     10.85029      1.98339      9.14482         0.001952     -0.022032     -0.024002
      2.44504      1.93764      9.29647        -0.004456      0.000702     -0.006989
     12.25246      9.19071      9.19026         0.000437     -0.000880      0.004126
     13.68975      6.86634      9.22896         0.001939      0.004580     -0.007953
      5.32976      1.87743      9.22869        -0.006054      0.006876     -0.004778
      8.12647      6.83752      9.19384         0.021946     -0.003157      0.000309
      9.52484      4.43658      9.23161        -0.006534      0.014546     -0.009156
      5.25406      6.80708      9.19935        -0.033365     -0.011618      0.015525
      8.09960      2.00058      9.17417        -0.008870     -0.003450     -0.001456
      8.18062      3.65350      6.98174        -0.006433      0.005120      0.014130
      6.64782      1.17628      6.96039        -0.006925      0.010913     -0.001927
      6.78185      1.16816      1.10976        -0.014905      0.005250     -0.002958
      3.74327      4.26289      2.71491         0.019780     -0.004277      0.014618
      1.08300      1.12224      6.95661        -0.009752      0.003089      0.035696
      1.01575      1.28649      0.81183         0.016529     -0.007539      0.013488
      6.67142      9.31568      2.85544        -0.003506      0.022732     -0.013707
      6.67395      4.41001      9.23071        -0.020192     -0.017241     -0.010470
      8.14285      5.24496      4.86976         0.009230      0.026649     -0.050100
     10.86620      6.80902      9.25135        -0.008552     -0.000180     -0.004807
     14.99686      7.68362      4.79411         0.027642      0.031987     -0.083008
     12.25193      6.04872      6.99625        -0.002814      0.025648     -0.020791
      6.72710      6.03199      6.98725         0.000561     -0.020347      0.007296
      8.20780      6.89173      2.69128        -0.019337     -0.002557     -0.011343
      3.77766      2.69345      4.90572         0.006974      0.003741      0.022316
     10.86552      5.33036      4.88657         0.004572     -0.000106     -0.010633
      6.80891      7.69639      4.91949        -0.010575      0.030359      0.031584
      5.20720      0.16029      4.85410        -0.013068      0.011564     -0.013114
      7.96508      0.45571      4.72390         0.005276     -0.005638     -0.027242
      9.48186      1.18199      6.88231         0.016882     -0.006279      0.035846
     12.19222      2.77766      4.87496         0.037104      0.035495      0.044323
     13.78001      8.57392      1.07376        -0.000186     -0.001676     -0.002153
      5.17612      8.26819      1.02395         0.016563     -0.004779     -0.012783
      4.07688      6.12594      0.96722         0.016310      0.015531      0.012434
      8.23477      2.19285      2.91186        -0.010160      0.012847      0.006372
      9.46232      9.17873      2.88867        -0.004641      0.011794     -0.022182
     13.23829      3.61532      0.98546         0.008248     -0.009433      0.008171
     10.87798      2.06279      2.87872         0.007276     -0.008774      0.036950
     13.60649      5.17210      4.92826         0.024439     -0.034964      0.025310
      9.49211      6.02056      7.10420        -0.000912     -0.002965      0.004525
      3.91652      1.06390      1.10530         0.013759      0.003955      0.041404
      9.69052      5.79723      1.02825        -0.008679     -0.000281      0.000469
      5.55996      3.72993      1.09992        -0.018020     -0.041964     -0.014401
     12.22782      8.97667      2.86865        -0.036117     -0.017943      0.021147
     12.22062      7.58099      4.89646        -0.009781     -0.002250     -0.005670
      9.50033      4.35926      2.89266        -0.004944      0.001822     -0.001554
      8.10959      8.43358      7.02829         0.000328     -0.016523      0.005311
      8.20297      8.78072      0.90411         0.021210      0.011253      0.003535
     10.87946      6.90186      2.86164        -0.025490      0.000076     -0.012020
      2.55562      0.21789      4.96708         0.018195      0.026337      0.042100
      8.12929      3.65853      0.88294        -0.003829      0.009657      0.000262
      5.33633      2.04607      3.00455         0.013131     -0.002735     -0.005328
      5.35867      6.70303      3.02467         0.008043      0.010022     -0.010640
     10.82006      8.33829      7.00774         0.008996     -0.009667     -0.006923
      9.50522      1.22179      0.88788         0.003592      0.002981     -0.007191
     10.84088      8.41789      0.89812        -0.017379      0.010651     -0.004063
      5.29878      5.08233      4.87221        -0.000481     -0.007538      0.006004
     15.21969      9.46320      2.91158         0.031227     -0.001302      0.005794
      9.54798      2.83243      4.93973         0.019714      0.008867     -0.037547
      6.74099      2.86414      4.91726        -0.008035      0.004390      0.004227
     12.12718      4.37157      2.88927         0.012277     -0.001701     -0.004815
      2.50652      1.86558      2.87455        -0.011076      0.006318     -0.014587
     12.02738      5.81407      0.92547        -0.016934     -0.005207      0.007791
      6.52756      5.95530      1.01982        -0.003705     -0.041513      0.002391
      6.84854      4.37406      2.90086        -0.016060     -0.013515      0.003619
     10.85888      3.69700      7.03304        -0.014041     -0.000578     -0.010632
     10.75754      3.55271      0.95995        -0.006687      0.005165     -0.000545
     10.94499      0.41654      4.90182        -0.010449     -0.023644     -0.077179
      9.50574      7.61774      4.99769        -0.005405     -0.001020     -0.004112
      3.16668      3.17929     10.29281         0.025654     -0.018737      0.030298
 -----------------------------------------------------------------------------------
    total drift:                               -0.020853      0.028508     -0.005577


--------------------------------------------------------------------------------------------------------



  FREE ENERGIE OF THE ION-ELECTRON SYSTEM (eV)
  ---------------------------------------------------
  free  energy   TOTEN  =      -507.92714302 eV

  energy  without entropy=     -507.93508615  energy(sigma->0) =     -507.92979073
 
 d Force = 0.1678471E-03[-0.475E-03, 0.810E-03]  d Energy = 0.1602159E-03 0.763E-05
 d Force =-0.1831136E+00[-0.202E+00,-0.164E+00]  d Ewald  =-0.1831076E+00-0.602E-05


--------------------------------------------------------------------------------------------------------


    POTLOK:  cpu time    0.4412: real time    0.4435


--------------------------------------------------------------------------------------------------------




--------------------------------------------------------------------------------------------------------


  
 reached required accuracy - stopping structural energy minimisation
     LOOP+:  cpu time  634.9135: real time  637.1355
    4ORBIT:  cpu time    0.0000: real time    0.0000

 total amount of memory used by VASP MPI-rank0   252733. kBytes
=======================================================================

   base      :      30000. kBytes
   nonlr-proj:      36144. kBytes
   fftplans  :      18297. kBytes
   grid      :      55120. kBytes
   one-center:        653. kBytes
   wavefun   :     112519. kBytes
 
  
  
 General timing and accounting informations for this job:
 ========================================================
  
                  Total CPU time used (sec):    15164.304
                            User time (sec):    14752.810
                          System time (sec):      411.494
                         Elapsed time (sec):    15235.299
  
                   Maximum memory used (kb):      445576.
                   Average memory used (kb):           0.
  
                          Minor page faults:      3625398
                          Major page faults:          263
                 Voluntary context switches:        10758
