 vasp.5.4.4.18Apr17-6-g9f103f2a35 (build Oct 25 2019 11:13:22) complex          
  
 executed on             LinuxIFC date 2021.10.30  15:26:13
 running on   48 total cores
 distrk:  each k-point on   48 cores,    1 groups
 distr:  one band on NCORES_PER_BAND=   4 cores,   12 groups


--------------------------------------------------------------------------------------------------------


 INCAR:
 POTCAR:    PAW_PBE Pt 04Feb2005                  
 POTCAR:    PAW_PBE Fe 06Sep2000                  
 POTCAR:    PAW_PBE Co 02Aug2007                  
 POTCAR:    PAW_PBE Cu 22Jun2005                  
 POTCAR:    PAW_PBE Ni 02Aug2007                  
 POTCAR:    PAW_PBE H 15Jun2001                   
 POTCAR:    PAW_PBE Pt 04Feb2005                  
   VRHFIN =Pt: s1d9                                                             
   LEXCH  = PE                                                                  
   EATOM  =   729.1176 eV,   53.5886 Ry                                         
                                                                                
   TITEL  = PAW_PBE Pt 04Feb2005                                                
   LULTRA =        F    use ultrasoft PP ?                                      
   IUNSCR =        1    unscreen: 0-lin 1-nonlin 2-no                           
   RPACOR =    2.330    partial core radius                                     
   POMASS =  195.080; ZVAL   =   10.000    mass and valenz                      
   RCORE  =    2.600    outmost cutoff radius                                   
   RWIGS  =    2.750; RWIGS  =    1.455    wigner-seitz radius (au A)           
   ENMAX  =  230.283; ENMIN  =  172.712 eV                                      
   ICORE  =        3    local potential                                         
   LCOR   =        T    correct aug charges                                     
   LPAW   =        T    paw PP                                                  
   EAUG   =  358.966                                                            
   DEXC   =    0.000                                                            
   RMAX   =    2.658    core radius for proj-oper                               
   RAUG   =    1.300    factor for augmentation sphere                          
   RDEP   =    2.761    radius for radial grids                                 
   RDEPT  =    2.203    core radius for aug-charge                              
                                                                                
   Atomic configuration                                                         
   16 entries                                                                   
     n  l   j            E        occ.                                          
     1  0  0.50    -78401.1885   2.0000                                         
     2  0  0.50    -13770.7750   2.0000                                         
     2  1  1.50    -11931.0468   6.0000                                         
     3  0  0.50     -3234.7234   2.0000                                         
     3  1  1.50     -2699.2216   6.0000                                         
     3  2  2.50     -2119.5714  10.0000                                         
     4  0  0.50      -695.1528   2.0000                                         
     4  1  1.50      -519.6034   6.0000                                         
     4  2  2.50      -306.6786  10.0000                                         
     4  3  3.50       -70.1041  14.0000                                         
     5  0  0.50      -101.7747   2.0000                                         
     5  1  1.50       -55.9873   6.0000                                         
     5  2  2.50        -6.1423   9.0000                                         
     6  0  0.50        -5.6573   1.0000                                         
     6  1  1.50        -6.8029   0.0000                                         
     5  3  2.50        -1.3606   0.0000                                         
   Description                                                                  
     l       E           TYP  RCUT    TYP  RCUT                                 
     2     -6.1423404     23  2.500                                             
     2     -7.5029230     23  2.500                                             
     0     -5.6573207     23  2.500                                             
     0      0.7416693     23  2.500                                             
     1     -2.7211652     23  2.600                                             
     1     20.4087390     23  2.600                                             
     3     -1.3605826     23  2.500                                             
  local pseudopotential read in
  partial core-charges read in
  partial kinetic energy density read in
  atomic valenz-charges read in
  non local Contribution for L=           2  read in
    real space projection operators read in
  non local Contribution for L=           2  read in
    real space projection operators read in
  non local Contribution for L=           0  read in
    real space projection operators read in
  non local Contribution for L=           0  read in
    real space projection operators read in
  non local Contribution for L=           1  read in
    real space projection operators read in
  non local Contribution for L=           1  read in
    real space projection operators read in
    PAW grid and wavefunctions read in
 
   number of l-projection  operators is LMAX  =           6
   number of lm-projection operators is LMMAX =          18
 
 POTCAR:    PAW_PBE Fe 06Sep2000                  
   VRHFIN =Fe:  d7 s1                                                           
   LEXCH  = PE                                                                  
   EATOM  =   594.3153 eV,   43.6809 Ry                                         
                                                                                
   TITEL  = PAW_PBE Fe 06Sep2000                                                
   LULTRA =        F    use ultrasoft PP ?                                      
   IUNSCR =        1    unscreen: 0-lin 1-nonlin 2-no                           
   RPACOR =    2.000    partial core radius                                     
   POMASS =   55.847; ZVAL   =    8.000    mass and valenz                      
   RCORE  =    2.300    outmost cutoff radius                                   
   RWIGS  =    2.460; RWIGS  =    1.302    wigner-seitz radius (au A)           
   ENMAX  =  267.882; ENMIN  =  200.911 eV                                      
   RCLOC  =    1.701    cutoff for local pot                                    
   LCOR   =        T    correct aug charges                                     
   LPAW   =        T    paw PP                                                  
   EAUG   =  511.368                                                            
   DEXC   =    0.000                                                            
   RMAX   =    2.356    core radius for proj-oper                               
   RAUG   =    1.300    factor for augmentation sphere                          
   RDEP   =    2.442    radius for radial grids                                 
   RDEPT  =    1.890    core radius for aug-charge                              
                                                                                
   Atomic configuration                                                         
    9 entries                                                                   
     n  l   j            E        occ.                                          
     1  0  0.50     -6993.8440   2.0000                                         
     2  0  0.50      -814.6047   2.0000                                         
     2  1  1.50      -693.3689   6.0000                                         
     3  0  0.50       -89.4732   2.0000                                         
     3  1  1.50       -55.6373   6.0000                                         
     3  2  2.50        -3.8151   7.0000                                         
     4  0  0.50        -4.2551   1.0000                                         
     4  1  1.50        -3.4015   0.0000                                         
     4  3  2.50        -1.3606   0.0000                                         
   Description                                                                  
     l       E           TYP  RCUT    TYP  RCUT                                 
     2     -3.8151135     23  2.300                                             
     2     -5.1756961     23  2.300                                             
     0     -4.2550963     23  2.300                                             
     0      7.2035603     23  2.300                                             
     1     -2.7211652     23  2.300                                             
     1     18.4316424     23  2.300                                             
  local pseudopotential read in
  partial core-charges read in
  partial kinetic energy density read in
  atomic valenz-charges read in
  non local Contribution for L=           2  read in
    real space projection operators read in
  non local Contribution for L=           2  read in
    real space projection operators read in
  non local Contribution for L=           0  read in
    real space projection operators read in
  non local Contribution for L=           0  read in
    real space projection operators read in
  non local Contribution for L=           1  read in
    real space projection operators read in
  non local Contribution for L=           1  read in
    real space projection operators read in
    PAW grid and wavefunctions read in
 
   number of l-projection  operators is LMAX  =           6
   number of lm-projection operators is LMMAX =          18
 
 POTCAR:    PAW_PBE Co 02Aug2007                  
   VRHFIN =Co: d8 s1                                                            
   LEXCH  = PE                                                                  
   EATOM  =   813.3670 eV,   59.7808 Ry                                         
                                                                                
   TITEL  = PAW_PBE Co 02Aug2007                                                
   LULTRA =        F    use ultrasoft PP ?                                      
   IUNSCR =        1    unscreen: 0-lin 1-nonlin 2-no                           
   RPACOR =    2.000    partial core radius                                     
   POMASS =   58.933; ZVAL   =    9.000    mass and valenz                      
   RCORE  =    2.300    outmost cutoff radius                                   
   RWIGS  =    2.460; RWIGS  =    1.302    wigner-seitz radius (au A)           
   ENMAX  =  267.968; ENMIN  =  200.976 eV                                      
   RCLOC  =    1.203    cutoff for local pot                                    
   LCOR   =        T    correct aug charges                                     
   LPAW   =        T    paw PP                                                  
   EAUG   =  477.818                                                            
   DEXC   =    0.000                                                            
   RMAX   =    2.360    core radius for proj-oper                               
   RAUG   =    1.300    factor for augmentation sphere                          
   RDEP   =    2.393    radius for radial grids                                 
   RDEPT  =    1.864    core radius for aug-charge                              
                                                                                
   Atomic configuration                                                         
    9 entries                                                                   
     n  l   j            E        occ.                                          
     1  0  0.50     -7587.6674   2.0000                                         
     2  0  0.50      -893.6084   2.0000                                         
     2  1  1.50      -764.5805   6.0000                                         
     3  0  0.50       -97.5973   2.0000                                         
     3  1  1.50       -60.9648   6.0000                                         
     3  2  2.50        -4.2382   8.0000                                         
     4  0  0.50        -4.3746   1.0000                                         
     4  1  1.50        -4.0817   0.0000                                         
     4  3  2.50        -1.3606   0.0000                                         
   Description                                                                  
     l       E           TYP  RCUT    TYP  RCUT                                 
     2     -4.2382362     23  2.300                                             
     2     -5.5988188     23  2.300                                             
     0     -4.3745797     23  2.300                                             
     0      5.7660125     23  2.300                                             
     1     -2.7211652     23  2.300                                             
     1     16.9860234     23  2.300                                             
  local pseudopotential read in
  partial core-charges read in
  partial kinetic energy density read in
  atomic valenz-charges read in
  non local Contribution for L=           2  read in
    real space projection operators read in
  non local Contribution for L=           2  read in
    real space projection operators read in
  non local Contribution for L=           0  read in
    real space projection operators read in
  non local Contribution for L=           0  read in
    real space projection operators read in
  non local Contribution for L=           1  read in
    real space projection operators read in
  non local Contribution for L=           1  read in
    real space projection operators read in
    PAW grid and wavefunctions read in
 
   number of l-projection  operators is LMAX  =           6
   number of lm-projection operators is LMMAX =          18
 
 POTCAR:    PAW_PBE Cu 22Jun2005                  
   VRHFIN =Cu: d10 p1                                                           
   LEXCH  = PE                                                                  
   EATOM  =  1390.9808 eV,  102.2342 Ry                                         
                                                                                
   TITEL  = PAW_PBE Cu 22Jun2005                                                
   LULTRA =        F    use ultrasoft PP ?                                      
   IUNSCR =        1    unscreen: 0-lin 1-nonlin 2-no                           
   RPACOR =    2.000    partial core radius                                     
   POMASS =   63.546; ZVAL   =   11.000    mass and valenz                      
   RCORE  =    2.300    outmost cutoff radius                                   
   RWIGS  =    2.200; RWIGS  =    1.164    wigner-seitz radius (au A)           
   ENMAX  =  295.446; ENMIN  =  221.585 eV                                      
   ICORE  =        3    local potential                                         
   LCOR   =        T    correct aug charges                                     
   LPAW   =        T    paw PP                                                  
   EAUG   =  586.980                                                            
   DEXC   =    0.000                                                            
   RMAX   =    2.344    core radius for proj-oper                               
   RAUG   =    1.300    factor for augmentation sphere                          
   RDEP   =    2.302    radius for radial grids                                 
   RDEPT  =    1.771    core radius for aug-charge                              
                                                                                
   Atomic configuration                                                         
    9 entries                                                                   
     n  l   j            E        occ.                                          
     1  0  0.50     -8850.2468   2.0000                                         
     2  0  0.50     -1062.3498   2.0000                                         
     2  1  1.50      -916.8226   6.0000                                         
     3  0  0.50      -114.6929   2.0000                                         
     3  1  1.50       -72.1325   6.0000                                         
     3  2  2.50        -5.0394  10.0000                                         
     4  0  0.50        -4.6097   1.0000                                         
     4  1  0.50        -4.0817   0.0000                                         
     4  3  2.50        -1.3606   0.0000                                         
   Description                                                                  
     l       E           TYP  RCUT    TYP  RCUT                                 
     2     -5.0393973     23  2.200                                             
     2     10.8846608     23  2.200                                             
     0     -4.6097109     23  2.200                                             
     0      8.2520465     23  2.200                                             
     1     -2.7211652     23  2.200                                             
     1     21.7055443     23  2.200                                             
     3      2.7211652     23  2.300                                             
  local pseudopotential read in
  partial core-charges read in
  partial kinetic energy density read in
  atomic valenz-charges read in
  non local Contribution for L=           2  read in
    real space projection operators read in
  non local Contribution for L=           2  read in
    real space projection operators read in
  non local Contribution for L=           0  read in
    real space projection operators read in
  non local Contribution for L=           0  read in
    real space projection operators read in
  non local Contribution for L=           1  read in
    real space projection operators read in
  non local Contribution for L=           1  read in
    real space projection operators read in
    PAW grid and wavefunctions read in
 
   number of l-projection  operators is LMAX  =           6
   number of lm-projection operators is LMMAX =          18
 
 POTCAR:    PAW_PBE Ni 02Aug2007                  
   VRHFIN =Ni:                                                                  
   LEXCH  = PE                                                                  
   EATOM  =  1077.6739 eV,   79.2068 Ry                                         
                                                                                
   TITEL  = PAW_PBE Ni 02Aug2007                                                
   LULTRA =        F    use ultrasoft PP ?                                      
   IUNSCR =        1    unscreen: 0-lin 1-nonlin 2-no                           
   RPACOR =    2.000    partial core radius                                     
   POMASS =   58.690; ZVAL   =   10.000    mass and valenz                      
   RCORE  =    2.300    outmost cutoff radius                                   
   RWIGS  =    2.430; RWIGS  =    1.286    wigner-seitz radius (au A)           
   ENMAX  =  269.532; ENMIN  =  202.149 eV                                      
   RCLOC  =    1.201    cutoff for local pot                                    
   LCOR   =        T    correct aug charges                                     
   LPAW   =        T    paw PP                                                  
   EAUG   =  544.565                                                            
   DEXC   =    0.000                                                            
   RMAX   =    2.357    core radius for proj-oper                               
   RAUG   =    1.300    factor for augmentation sphere                          
   RDEP   =    2.390    radius for radial grids                                 
   RDEPT  =    1.838    core radius for aug-charge                              
                                                                                
   Atomic configuration                                                         
    9 entries                                                                   
     n  l   j            E        occ.                                          
     1  0  0.50     -8206.4253   2.0000                                         
     2  0  0.50      -976.1748   2.0000                                         
     2  1  1.50      -839.0571   6.0000                                         
     3  0  0.50      -105.9991   2.0000                                         
     3  1  1.50       -66.4603   6.0000                                         
     3  2  2.50        -4.6458   9.0000                                         
     4  0  0.50        -4.4926   1.0000                                         
     4  1  1.50        -4.0817   0.0000                                         
     4  3  2.50        -1.3606   0.0000                                         
   Description                                                                  
     l       E           TYP  RCUT    TYP  RCUT                                 
     2     -4.6457903     23  2.300                                             
     2     -6.0063729     23  2.300                                             
     0     -4.4925590     23  2.300                                             
     0      5.0102601     23  2.300                                             
     1     -2.7211652     23  2.300                                             
     1     16.5183231     23  2.300                                             
  local pseudopotential read in
  partial core-charges read in
  partial kinetic energy density read in
  atomic valenz-charges read in
  non local Contribution for L=           2  read in
    real space projection operators read in
  non local Contribution for L=           2  read in
    real space projection operators read in
  non local Contribution for L=           0  read in
    real space projection operators read in
  non local Contribution for L=           0  read in
    real space projection operators read in
  non local Contribution for L=           1  read in
    real space projection operators read in
  non local Contribution for L=           1  read in
    real space projection operators read in
    PAW grid and wavefunctions read in
 
   number of l-projection  operators is LMAX  =           6
   number of lm-projection operators is LMMAX =          18
 
 POTCAR:    PAW_PBE H 15Jun2001                   
   VRHFIN =H: ultrasoft test                                                    
   LEXCH  = PE                                                                  
   EATOM  =    12.4884 eV,    0.9179 Ry                                         
                                                                                
   TITEL  = PAW_PBE H 15Jun2001                                                 
   LULTRA =        F    use ultrasoft PP ?                                      
   IUNSCR =        0    unscreen: 0-lin 1-nonlin 2-no                           
   RPACOR =    0.000    partial core radius                                     
   POMASS =    1.000; ZVAL   =    1.000    mass and valenz                      
   RCORE  =    1.100    outmost cutoff radius                                   
   RWIGS  =    0.700; RWIGS  =    0.370    wigner-seitz radius (au A)           
   ENMAX  =  250.000; ENMIN  =  200.000 eV                                      
   RCLOC  =    0.701    cutoff for local pot                                    
   LCOR   =        T    correct aug charges                                     
   LPAW   =        T    paw PP                                                  
   EAUG   =  400.000                                                            
   RMAX   =    1.123    core radius for proj-oper                               
   RAUG   =    1.200    factor for augmentation sphere                          
   RDEP   =    1.112    radius for radial grids                                 
   RDEPT  =    0.926    core radius for aug-charge                              
                                                                                
   Atomic configuration                                                         
    2 entries                                                                   
     n  l   j            E        occ.                                          
     1  0  0.50        -6.4927   1.0000                                         
     2  1  0.50        -3.4015   0.0000                                         
   Description                                                                  
     l       E           TYP  RCUT    TYP  RCUT                                 
     0     -6.4927494     23  1.100                                             
     0      6.8029130     23  1.100                                             
     1     -4.0817478     23  1.100                                             
  local pseudopotential read in
  atomic valenz-charges read in
  non local Contribution for L=           0  read in
    real space projection operators read in
  non local Contribution for L=           0  read in
    real space projection operators read in
  non local Contribution for L=           1  read in
    real space projection operators read in
    PAW grid and wavefunctions read in
 
   number of l-projection  operators is LMAX  =           3
   number of lm-projection operators is LMMAX =           5
 
 Optimization of the real space projectors (new method)

 maximal supplied QI-value         = 14.36
 optimisation between [QCUT,QGAM] = [ 11.92, 23.98] = [ 39.79,161.09] Ry 
 Optimized for a Real-space Cutoff    1.49 Angstroem

   l    n(q)    QCUT    max X(q) W(low)/X(q) W(high)/X(q)  e(spline) 
   2     10    11.920    66.195    0.79E-04    0.18E-03    0.24E-06
   2     10    11.920    64.643    0.81E-04    0.19E-03    0.24E-06
   0     11    11.920    95.520    0.28E-04    0.54E-04    0.18E-06
   0     11    11.920    63.403    0.27E-04    0.52E-04    0.17E-06
   1     10    11.920    19.961    0.18E-04    0.11E-03    0.23E-06
   1     10    11.920    13.289    0.25E-04    0.87E-04    0.19E-06
 Optimization of the real space projectors (new method)

 maximal supplied QI-value         = 16.25
 optimisation between [QCUT,QGAM] = [ 11.86, 23.89] = [ 39.41,159.82] Ry 
 Optimized for a Real-space Cutoff    1.49 Angstroem

   l    n(q)    QCUT    max X(q) W(low)/X(q) W(high)/X(q)  e(spline) 
   2     10    11.864    80.901    0.13E-03    0.23E-03    0.37E-06
   2     10    11.864    75.754    0.13E-03    0.23E-03    0.38E-06
   0     11    11.864    58.752    0.44E-04    0.11E-04    0.20E-06
   0     11    11.864    30.679    0.36E-04    0.10E-04    0.18E-06
   1     10    11.864    17.977    0.31E-04    0.45E-04    0.10E-06
   1     10    11.864    13.559    0.25E-04    0.37E-04    0.89E-07
 Optimization of the real space projectors (new method)

 maximal supplied QI-value         = 16.25
 optimisation between [QCUT,QGAM] = [ 11.86, 23.89] = [ 39.41,159.82] Ry 
 Optimized for a Real-space Cutoff    1.33 Angstroem

   l    n(q)    QCUT    max X(q) W(low)/X(q) W(high)/X(q)  e(spline) 
   2      9    11.864    65.824    0.22E-03    0.53E-03    0.26E-06
   2      9    11.864    61.429    0.22E-03    0.53E-03    0.26E-06
   0      9    11.864    56.174    0.21E-03    0.32E-04    0.15E-06
   0      9    11.864    31.263    0.19E-03    0.30E-04    0.14E-06
   1      9    11.864    19.828    0.63E-04    0.30E-03    0.16E-06
   1      9    11.864    15.139    0.49E-04    0.25E-03    0.13E-06
 Optimization of the real space projectors (new method)

 maximal supplied QI-value         = 16.25
 optimisation between [QCUT,QGAM] = [ 11.86, 23.89] = [ 39.41,159.82] Ry 
 Optimized for a Real-space Cutoff    1.49 Angstroem

   l    n(q)    QCUT    max X(q) W(low)/X(q) W(high)/X(q)  e(spline) 
   2     10    11.864     4.610    0.10E-03    0.20E-03    0.29E-06
   2     10    11.864     8.522    0.17E-03    0.33E-03    0.50E-06
   0     11    11.864    51.609    0.52E-04    0.55E-04    0.33E-06
   0     11    11.864    27.747    0.46E-04    0.52E-04    0.31E-06
   1     10    11.864    20.408    0.54E-04    0.25E-04    0.21E-06
   1     10    11.864    13.425    0.48E-04    0.22E-04    0.18E-06
 Optimization of the real space projectors (new method)

 maximal supplied QI-value         = 16.25
 optimisation between [QCUT,QGAM] = [ 11.86, 23.89] = [ 39.41,159.82] Ry 
 Optimized for a Real-space Cutoff    1.33 Angstroem

   l    n(q)    QCUT    max X(q) W(low)/X(q) W(high)/X(q)  e(spline) 
   2      9    11.864    60.317    0.21E-03    0.51E-03    0.25E-06
   2      9    11.864    55.921    0.21E-03    0.51E-03    0.26E-06
   0      9    11.864    51.690    0.22E-03    0.30E-04    0.17E-06
   0      9    11.864    30.015    0.20E-03    0.28E-04    0.15E-06
   1      9    11.864    18.849    0.76E-04    0.33E-03    0.17E-06
   1      9    11.864    14.624    0.60E-04    0.28E-03    0.15E-06
 Optimization of the real space projectors (new method)

 maximal supplied QI-value         = 34.20
 optimisation between [QCUT,QGAM] = [ 11.97, 23.94] = [ 40.13,160.53] Ry 
 Optimized for a Real-space Cutoff    1.18 Angstroem

   l    n(q)    QCUT    max X(q) W(low)/X(q) W(high)/X(q)  e(spline) 
   0      8    11.971    19.460    0.15E-03    0.31E-03    0.25E-06
   0      8    11.971    12.209    0.13E-03    0.29E-03    0.25E-06
   1      8    11.971     4.655    0.22E-03    0.24E-03    0.21E-06
  PAW_PBE Pt 04Feb2005                  :
 energy of atom  1       EATOM= -729.1176
 kinetic energy error for atom=    0.0021 (will be added to EATOM!!)
  PAW_PBE Fe 06Sep2000                  :
 energy of atom  2       EATOM= -594.3153
 kinetic energy error for atom=    0.0024 (will be added to EATOM!!)
  PAW_PBE Co 02Aug2007                  :
 energy of atom  3       EATOM= -813.3670
 kinetic energy error for atom=    0.0026 (will be added to EATOM!!)
  PAW_PBE Cu 22Jun2005                  :
 energy of atom  4       EATOM=-1390.9808
 kinetic energy error for atom=    0.0036 (will be added to EATOM!!)
  PAW_PBE Ni 02Aug2007                  :
 energy of atom  5       EATOM=-1077.6739
 kinetic energy error for atom=    0.0027 (will be added to EATOM!!)
  PAW_PBE H 15Jun2001                   :
 energy of atom  6       EATOM=  -12.4884
 kinetic energy error for atom=    0.0008 (will be added to EATOM!!)
 
 
 POSCAR: 11.16                                   
  positions in direct lattice
  velocities in cartesian coordinates
 exchange correlation table for  LEXCH =        8
   RHO(1)=    0.500       N(1)  =     2000
   RHO(2)=  100.500       N(2)  =     4000
 


--------------------------------------------------------------------------------------------------------


 ion  position               nearest neighbor table
   1  0.784  0.881  0.307-  49 2.54  59 2.61  28 2.66   4 2.76  61 2.78  11 2.78  19 2.79  33 2.80
                            29 2.81  60 2.83   2 2.83  12 2.87
   2  0.038  0.880  0.303-  79 2.53  77 2.58  30 2.74  28 2.77  33 2.77  60 2.81   4 2.83   1 2.83
                             6 2.86  22 2.88  52 2.91  16 2.98
   3  0.277  0.374  0.314-  64 2.54  68 2.65  31 2.66  39 2.69   5 2.73  13 2.76  43 2.79  19 2.79
                            25 2.79  33 2.80  30 2.85  18 2.98
   4  0.869  0.966  0.407-  60 2.66  17 2.73   1 2.76   9 2.77  11 2.77   6 2.79  12 2.81   2 2.83
                            16 2.84
   5  0.112  0.470  0.414-  39 2.62  33 2.69  16 2.71  12 2.72   3 2.73   7 2.73  10 2.79  25 2.81
                            13 2.95
   6  0.121  0.963  0.411-  52 2.66  22 2.74   4 2.79   9 2.80   8 2.80  10 2.82  16 2.84  14 2.85
                             2 2.86
   7  0.875  0.456  0.417-  39 2.61  75 2.64   5 2.73   9 2.74  15 2.75  29 2.75  10 2.76  27 2.84
                            12 2.86
   8  0.373  0.959  0.413-  43 2.56  52 2.59  61 2.68  13 2.76  27 2.76  14 2.78  11 2.80  10 2.80
                             6 2.80
   9  0.870  0.214  0.409-  81 1.89  75 2.62  60 2.67   7 2.74  15 2.75  17 2.76   4 2.77  22 2.77
                             6 2.80  10 2.86
  10  0.126  0.213  0.413-  39 2.63  43 2.66  22 2.72  13 2.74   7 2.76   5 2.79   8 2.80   6 2.82
                             9 2.86
  11  0.625  0.958  0.412-  61 2.67  12 2.72  19 2.77   4 2.77  13 2.78  27 2.78   1 2.78   8 2.80
                            17 2.81
  12  0.870  0.714  0.414-  29 2.68  33 2.71   5 2.72  11 2.72  16 2.76  27 2.80   4 2.81   7 2.86
                             1 2.87
  13  0.376  0.205  0.415-  43 2.67  10 2.74  19 2.75   8 2.76   3 2.76  11 2.78  25 2.80  17 2.80
                             5 2.95
  14  0.378  0.709  0.411-  44 2.56  52 2.62  27 2.73  15 2.77   8 2.78  30 2.79  25 2.83   6 2.85
                            16 2.88
  15  0.626  0.462  0.415-  81 1.83  44 2.61  75 2.63  18 2.73   9 2.75   7 2.75  27 2.76  14 2.77
                            17 2.82  25 2.88
  16  0.119  0.710  0.416-  33 2.69   5 2.71  30 2.74  12 2.76  25 2.79   4 2.84   6 2.84  14 2.88
                             2 2.98
  17  0.624  0.210  0.412-  81 2.04  18 2.70  60 2.72   4 2.73   9 2.76  13 2.80  19 2.80  11 2.81
                            25 2.82  15 2.82
  18  0.542  0.379  0.314-  67 2.54  68 2.62  26 2.66  17 2.70  15 2.73  44 2.74  60 2.76  25 2.76
                            75 2.79  30 2.88  19 2.89   3 2.98
  19  0.530  0.127  0.310-  80 2.53  68 2.56  59 2.57  43 2.66  13 2.75  11 2.77   1 2.79  61 2.79
                             3 2.79  17 2.80  18 2.89  60 2.91
  20  0.548  0.126  0.056-  37 2.53  57 2.54  48 2.56  62 2.66  63 2.78  56 2.85  34 2.87  47 2.95
                            45 3.10
  21  0.105  0.437  0.124-  47 2.49  40 2.51  36 2.52  42 2.63  70 2.63  69 2.69  31 2.74  64 2.75
                            57 2.77  50 2.80
  22  0.049  0.132  0.311-  77 2.53  65 2.54  55 2.56  43 2.70  10 2.72  39 2.73   6 2.74   9 2.77
                            52 2.82   2 2.88  75 2.90  60 2.91  31 3.31
  23  0.025  0.125  0.040-  40 2.55  41 2.57  70 2.58  62 2.68  24 2.71  76 2.76  45 2.76  35 2.85
                            53 2.93
  24  0.130  0.955  0.138-  79 2.50  35 2.55  77 2.58  53 2.59  55 2.59  70 2.62  58 2.65  23 2.71
                            73 2.74  38 2.78  66 2.83  41 2.96
  25  0.369  0.459  0.414-  18 2.76  30 2.79  16 2.79   3 2.79  13 2.80   5 2.81  17 2.82  14 2.83
                            15 2.88
  26  0.455  0.557  0.222-  74 2.48  73 2.50  51 2.55  79 2.59  44 2.63  30 2.64  18 2.66  32 2.72
                            78 2.73  67 2.85  68 2.91  64 3.02
  27  0.621  0.711  0.415-  44 2.63  61 2.67  14 2.73  15 2.76  29 2.76   8 2.76  11 2.78  12 2.80
                             7 2.84
  28  0.951  0.771  0.212-  58 2.55  50 2.56  66 2.62  42 2.63  33 2.65   1 2.66  49 2.69   2 2.77
                            64 2.78  59 3.09
  29  0.797  0.624  0.316-  42 2.55  32 2.62  49 2.64  39 2.65  12 2.68  75 2.68  33 2.73   7 2.75
                            27 2.76   1 2.81  61 2.81  44 2.84
  30  0.277  0.629  0.312-  79 2.52  26 2.64  33 2.66  64 2.68   2 2.74  16 2.74  25 2.79  14 2.79
                             3 2.85  18 2.88  52 2.90  44 2.94
  31  0.191  0.272  0.226-  70 2.50  57 2.57  43 2.58  55 2.60  39 2.61  65 2.64   3 2.66  21 2.74
                            42 2.81  80 2.88  64 2.89  68 3.08  22 3.31
  32  0.699  0.556  0.222-  69 2.53  54 2.57  51 2.59  49 2.60  29 2.62  44 2.65  78 2.66  75 2.67
                            42 2.71  26 2.72  65 2.74  67 2.77
  33  0.036  0.633  0.315-  28 2.65  64 2.66  30 2.66   5 2.69  16 2.69  42 2.70  12 2.71  29 2.73
                             2 2.77   1 2.80   3 2.80  39 2.81
  34  0.795  0.860  0.060-  50 2.36  48 2.39  66 2.52  36 2.64  63 2.78  35 2.83  20 2.87  62 2.94
                            71 2.95
  35  0.047  0.861  0.053-  36 2.39  24 2.55  66 2.58  58 2.58  72 2.69  34 2.83  23 2.85  53 2.93
                            62 2.95
  36  0.049  0.647  0.061-  35 2.39  58 2.50  21 2.52  50 2.57  34 2.64  72 2.66  47 2.76
  37  0.626  0.239  0.134-  67 2.49  56 2.50  74 2.51  20 2.53  59 2.54  51 2.54  41 2.55  62 2.55
                            68 2.57  66 2.78
  38  0.381  0.951  0.136-  45 2.39  53 2.44  80 2.45  55 2.48  78 2.51  63 2.53  54 2.55  73 2.57
                            48 2.65  57 2.76  24 2.78  70 2.88
  39  0.031  0.384  0.320-  42 2.60  31 2.61   7 2.61   5 2.62  10 2.63  29 2.65  65 2.67   3 2.69
                            75 2.71  22 2.73  33 2.81  43 3.00
  40  0.991  0.368  0.044-  69 2.32  76 2.41  21 2.51  23 2.55  71 2.58  70 2.61  45 3.10
  41  0.864  0.218  0.133-  77 2.41  76 2.42  67 2.52  69 2.54  37 2.55  65 2.56  23 2.57  62 2.59
                            66 2.64  70 2.68  51 2.78  24 2.96
  42  0.952  0.535  0.222-  50 2.47  29 2.55  39 2.60  21 2.63  28 2.63  65 2.64  69 2.64  33 2.70
                            32 2.71  64 2.74  49 2.79  31 2.81
  43  0.299  0.114  0.319-  55 2.51   8 2.56  31 2.58  80 2.59  52 2.65  19 2.66  10 2.66  13 2.67
                            61 2.70  22 2.70   3 2.79  39 3.00
  44  0.542  0.625  0.320-  14 2.56  15 2.61  78 2.63  27 2.63  26 2.63  32 2.65  75 2.69  18 2.74
                            61 2.75  52 2.77  29 2.84  30 2.94
  45  0.281  0.106  0.052-  38 2.39  70 2.42  53 2.44  57 2.60  63 2.70  23 2.76  40 3.10  20 3.10

  46  0.539  0.630  0.048-  51 2.37  73 2.39  54 2.40  71 2.49  53 2.71  72 2.73  56 2.75  76 2.79
                            63 2.82
  47  0.298  0.402  0.056-  74 2.25  21 2.49  72 2.50  56 2.57  57 2.64  36 2.76  20 2.95
  48  0.623  0.941  0.138-  49 2.33  34 2.39  80 2.48  63 2.51  54 2.53  20 2.56  59 2.60  38 2.65
                            50 2.74  57 2.91  66 2.95
  49  0.703  0.787  0.220-  48 2.33  50 2.44  54 2.51   1 2.54  32 2.60  61 2.63  78 2.63  29 2.64
                            28 2.69  80 2.69  42 2.79
  50  0.849  0.681  0.131-  71 2.36  34 2.36  49 2.44  42 2.47  54 2.49  69 2.54  28 2.56  36 2.57
                            48 2.74  21 2.80
  51  0.617  0.470  0.130-  46 2.37  76 2.43  56 2.53  37 2.54  26 2.55  69 2.59  32 2.59  74 2.59
                            67 2.66  73 2.69  54 2.77  41 2.78
  52  0.299  0.877  0.318-  55 2.41  79 2.42  78 2.55   8 2.59  14 2.62  43 2.65   6 2.66  61 2.67
                            44 2.77  22 2.82  30 2.90   2 2.91
  53  0.301  0.878  0.048-  73 2.42  38 2.44  45 2.44  24 2.59  63 2.67  46 2.71  72 2.83  23 2.93
                            35 2.93
  54  0.609  0.722  0.131-  46 2.40  71 2.46  63 2.47  50 2.49  49 2.51  73 2.52  48 2.53  38 2.55
                            78 2.55  32 2.57  51 2.77  69 2.94
  55  0.234  0.021  0.228-  52 2.41  79 2.48  38 2.48  43 2.51  80 2.52  78 2.53  22 2.56  24 2.59
                            31 2.60  70 2.72  77 2.99
  56  0.535  0.386  0.041-  74 2.48  37 2.50  51 2.53  47 2.57  76 2.59  72 2.69  46 2.75  20 2.85

  57  0.365  0.206  0.138-  68 2.52  20 2.54  31 2.57  80 2.59  45 2.60  47 2.64  38 2.76  21 2.77
                            70 2.86  48 2.91
  58  0.163  0.703  0.145-  72 2.42  79 2.43  64 2.44  36 2.50  28 2.55  73 2.57  35 2.58  24 2.65
                            74 2.68
  59  0.694  0.064  0.219-  66 2.45  37 2.54  19 2.57  60 2.57  48 2.60   1 2.61  68 2.65  67 2.77
                            77 2.85  80 2.87  28 3.09
  60  0.788  0.132  0.311-  77 2.49  67 2.50  59 2.57   4 2.66   9 2.67  17 2.72  18 2.76   2 2.81
                             1 2.83  75 2.86  19 2.91  22 2.91
  61  0.541  0.872  0.316-  78 2.45  80 2.50  49 2.63  27 2.67  52 2.67  11 2.67   8 2.68  43 2.70
                            44 2.75   1 2.78  19 2.79  29 2.81
  62  0.785  0.126  0.043-  66 2.50  37 2.55  41 2.59  76 2.65  20 2.66  23 2.68  34 2.94  35 2.95

  63  0.537  0.883  0.044-  54 2.47  48 2.51  38 2.53  53 2.67  45 2.70  34 2.78  20 2.78  46 2.82
                            71 2.86
  64  0.202  0.525  0.219-  58 2.44   3 2.54  74 2.63  33 2.66  30 2.68  68 2.69  42 2.74  21 2.75
                            28 2.78  31 2.89  26 3.02
  65  0.940  0.305  0.225-  69 2.47  75 2.54  22 2.54  41 2.56  67 2.57  77 2.57  70 2.62  42 2.64
                            31 2.64  39 2.67  32 2.74
  66  0.865  0.981  0.137-  59 2.45  77 2.50  62 2.50  34 2.52  35 2.58  28 2.62  41 2.64  37 2.78
                            24 2.83  48 2.95
  67  0.711  0.303  0.226-  37 2.49  60 2.50  41 2.52  18 2.54  65 2.57  75 2.57  77 2.59  51 2.66
                            32 2.77  59 2.77  26 2.85
  68  0.453  0.297  0.222-  74 2.45  57 2.52  19 2.56  37 2.57  18 2.62  59 2.65   3 2.65  64 2.69
                            26 2.91  31 3.08
  69  0.859  0.448  0.132-  40 2.32  71 2.45  65 2.47  76 2.48  32 2.53  41 2.54  50 2.54  51 2.59
                            42 2.64  21 2.69  70 2.82  54 2.94
  70  0.113  0.198  0.134-  45 2.42  31 2.50  23 2.58  40 2.61  24 2.62  65 2.62  21 2.63  41 2.68
                            55 2.72  69 2.82  57 2.86  38 2.88
  71  0.771  0.610  0.046-  50 2.36  69 2.45  54 2.46  46 2.49  40 2.58  76 2.67  63 2.86  34 2.95

  72  0.296  0.627  0.052-  58 2.42  74 2.47  73 2.49  47 2.50  36 2.66  56 2.69  35 2.69  46 2.73
                            53 2.83
  73  0.384  0.719  0.133-  46 2.39  53 2.42  72 2.49  26 2.50  54 2.52  79 2.53  58 2.57  38 2.57
                            78 2.57  51 2.69  24 2.74  74 2.90
  74  0.393  0.455  0.135-  47 2.25  68 2.45  72 2.47  56 2.48  26 2.48  37 2.51  51 2.59  64 2.63
                            58 2.68  73 2.90
  75  0.787  0.389  0.318-  65 2.54  67 2.57   9 2.62  15 2.63   7 2.64  32 2.67  29 2.68  44 2.69
                            39 2.71  18 2.79  60 2.86  22 2.90
  76  0.775  0.368  0.045-  40 2.41  41 2.42  51 2.43  69 2.48  56 2.59  62 2.65  71 2.67  23 2.76
                            46 2.79
  77  0.945  0.072  0.222-  41 2.41  60 2.49  66 2.50  22 2.53  65 2.57   2 2.58  24 2.58  67 2.59
                            59 2.85  55 2.99
  78  0.463  0.796  0.227-  61 2.45  38 2.51  80 2.52  79 2.53  55 2.53  54 2.55  52 2.55  73 2.57
                            44 2.63  49 2.63  32 2.66  26 2.73
  79  0.235  0.799  0.228-  52 2.42  58 2.43  55 2.48  24 2.50  30 2.52  78 2.53   2 2.53  73 2.53
                            26 2.59
  80  0.459  0.025  0.225-  38 2.45  48 2.48  61 2.50  78 2.52  55 2.52  19 2.53  57 2.59  43 2.59
                            49 2.69  59 2.87  31 2.88
  81  0.712  0.303  0.460-  15 1.83   9 1.89  17 2.04
 
  LATTYP: Found a hexagonal cell.
 ALAT       =    11.1599998474
 C/A-ratio  =     1.9713261918
  
  Lattice vectors:
  
 A1 = (   5.5799999237,  -9.6648433741,   0.0000000000)
 A2 = ( -11.1599998474,   0.0000000000,   0.0000000000)
 A3 = (   0.0000000000,   0.0000000000, -22.0000000000)


Analysis of symmetry for initial positions (statically):
=====================================================================
 Subroutine PRICEL returns:
 Original cell was already a primitive cell.
 

 Routine SETGRP: Setting up the symmetry group for a 
 hexagonal supercell.


 Subroutine GETGRP returns: Found  1 space group operations
 (whereof  1 operations were pure point group operations)
 out of a pool of 24 trial point group operations.


The static configuration has the point symmetry C_1 .


Analysis of symmetry for dynamics (positions and initial velocities):
=====================================================================
 Subroutine PRICEL returns:
 Original cell was already a primitive cell.
 

 Routine SETGRP: Setting up the symmetry group for a 
 hexagonal supercell.


 Subroutine GETGRP returns: Found  1 space group operations
 (whereof  1 operations were pure point group operations)
 out of a pool of 24 trial point group operations.


The dynamic configuration has the point symmetry C_1 .


Analysis of constrained symmetry for selective dynamics:
=====================================================================
 Subroutine PRICEL returns:
 Original cell was already a primitive cell.
 

 Routine SETGRP: Setting up the symmetry group for a 
 hexagonal supercell.


 Subroutine GETGRP returns: Found  1 space group operations
 (whereof  1 operations were pure point group operations)
 out of a pool of 24 trial point group operations.


The constrained configuration has the point symmetry C_1 .


Analysis of structural, dynamic, and magnetic symmetry:
=====================================================================
 Subroutine PRICEL returns:
 Original cell was already a primitive cell.
 

 Routine SETGRP: Setting up the symmetry group for a 
 hexagonal supercell.


 Subroutine GETGRP returns: Found  1 space group operations
 (whereof  1 operations were pure point group operations)
 out of a pool of 24 trial point group operations.


The magnetic configuration has the point symmetry C_1 .


 Subroutine INISYM returns: Found  1 space group operations
 (whereof  1 operations are pure point group operations),
 and found     1 'primitive' translations

 
 
 KPOINTS: mesh auto                               

Automatic generation of k-mesh.
Space group operators:
 irot       det(A)        alpha          n_x          n_y          n_z        tau_x        tau_y        tau_z
    1     1.000000     0.000000     1.000000     0.000000     0.000000     0.000000     0.000000     0.000000
 
 Subroutine IBZKPT returns following result:
 ===========================================
 
 Found      4 irreducible k-points:
 
 Following reciprocal coordinates:
            Coordinates               Weight
  0.000000  0.000000  0.000000      1.000000
  0.500000  0.000000  0.000000      1.000000
  0.000000  0.500000  0.000000      1.000000
  0.500000  0.500000  0.000000      1.000000
 
 Following cartesian coordinates:
            Coordinates               Weight
  0.000000  0.000000  0.000000      1.000000
  0.044803 -0.025867  0.000000      1.000000
  0.000000  0.051734  0.000000      1.000000
  0.044803  0.025867  0.000000      1.000000
 


--------------------------------------------------------------------------------------------------------




 Dimension of arrays:
   k-points           NKPTS =      4   k-points in BZ     NKDIM =      4   number of bands    NBANDS=    588
   number of dos      NEDOS =    301   number of ions     NIONS =     81
   non local maximal  LDIM  =      6   non local SUM 2l+1 LMDIM =     18
   total plane-waves  NPLWV = ******
   max r-space proj   IRMAX =   8018   max aug-charges    IRDMAX=  34929
   dimension x,y,z NGX =    90 NGY =   90 NGZ =  168
   dimension x,y,z NGXF=   180 NGYF=  180 NGZF=  336
   support grid    NGXF=   180 NGYF=  180 NGZF=  336
   ions per type =              32  13  10  13  12   1
   NGX,Y,Z   is equivalent  to a cutoff of  13.41, 13.41, 12.70 a.u.
   NGXF,Y,Z  is equivalent  to a cutoff of  26.81, 26.81, 25.39 a.u.

 SYSTEM =  Pt111                                   
 POSCAR =  11.16                                   

 Startparameter for this run:
   NWRITE =      2    write-flag & timer
   PREC   = accura    normal or accurate (medium, high low for compatibility)
   ISTART =      0    job   : 0-new  1-cont  2-samecut
   ICHARG =      2    charge: 1-file 2-atom 10-const
   ISPIN  =      2    spin polarized calculation?
   LNONCOLLINEAR =      F non collinear calculations
   LSORBIT =      F    spin-orbit coupling
   INIWAV =      1    electr: 0-lowe 1-rand  2-diag
   LASPH  =      F    aspherical Exc in radial PAW
   METAGGA=      F    non-selfconsistent MetaGGA calc.

 Electronic Relaxation 1
   ENCUT  =  550.0 eV  40.42 Ry    6.36 a.u.  21.34 21.34 42.07*2*pi/ulx,y,z
   ENINI  =  550.0     initial cutoff
   ENAUG  =  587.0 eV  augmentation charge cutoff
   NELM   =    200;   NELMIN=  2; NELMDL= -5     # of ELM steps 
   EDIFF  = 0.1E-04   stopping-criterion for ELM
   LREAL  =      T    real-space projection
   NLSPLINE    = F    spline interpolate recip. space projectors
   LCOMPAT=      F    compatible to vasp.4.4
   GGA_COMPAT  = T    GGA compatible to vasp.4.4-vasp.4.6
   LMAXPAW     = -100 max onsite density
   LMAXMIX     =    2 max onsite mixed and CHGCAR
   VOSKOWN=      0    Vosko Wilk Nusair interpolation
   ROPT   =   -0.00025  -0.00025  -0.00025  -0.00025
   ROPT   =   -0.00025  -0.00025
 Ionic relaxation
   EDIFFG = -.5E-01   stopping-criterion for IOM
   NSW    =    300    number of steps for IOM
   NBLOCK =      1;   KBLOCK =    300    inner block; outer block 
   IBRION =      2    ionic relax: 0-MD 1-quasi-New 2-CG
   NFREE  =      1    steps in history (QN), initial steepest desc. (CG)
   ISIF   =      2    stress and relaxation
   IWAVPR =     11    prediction:  0-non 1-charg 2-wave 3-comb
   ISYM   =      2    0-nonsym 1-usesym 2-fastsym
   LCORR  =      T    Harris-Foulkes like correction to forces

   POTIM  = 0.5000    time-step for ionic-motion
   TEIN   =    0.0    initial temperature
   TEBEG  =    0.0;   TEEND  =   0.0 temperature during run
   SMASS  =  -3.00    Nose mass-parameter (am)
   estimated Nose-frequenzy (Omega)   =  0.10E-29 period in steps =****** mass=  -0.285E-26a.u.
   SCALEE = 1.0000    scale energy and forces
   NPACO  =    256;   APACO  = 16.0  distance and # of slots for P.C.
   PSTRESS=    0.0 pullay stress

  Mass of Ions in am
   POMASS = 195.08 55.85 58.93 63.55 58.69  1.00
  Ionic Valenz
   ZVAL   =  10.00  8.00  9.00 11.00 10.00  1.00
  Atomic Wigner-Seitz radii
   RWIGS  =  -1.00 -1.00 -1.00 -1.00 -1.00 -1.00
  virtual crystal weights 
   VCA    =   1.00  1.00  1.00  1.00  1.00  1.00
   NELECT =     778.0000    total number of electrons
   NUPDOWN=      -1.0000    fix difference up-down

 DOS related values:
   EMIN   =  10.00;   EMAX   =-10.00  energy-range for DOS
   EFERMI =   0.00
   ISMEAR =     1;   SIGMA  =   0.10  broadening in eV -4-tet -1-fermi 0-gaus

 Electronic relaxation 2 (details)
   IALGO  =     68    algorithm
   LDIAG  =      T    sub-space diagonalisation (order eigenvalues)
   LSUBROT=      F    optimize rotation matrix (better conditioning)
   TURBO    =      0    0=normal 1=particle mesh
   IRESTART =      0    0=no restart 2=restart with 2 vectors
   NREBOOT  =      0    no. of reboots
   NMIN     =      0    reboot dimension
   EREF     =   0.00    reference energy to select bands
   IMIX   =      4    mixing-type and parameters
     AMIX     =   0.40;   BMIX     =  1.00
     AMIX_MAG =   1.60;   BMIX_MAG =  1.00
     AMIN     =   0.10
     WC   =   100.;   INIMIX=   1;  MIXPRE=   1;  MAXMIX= -45

 Intra band minimization:
   WEIMIN = 0.0010     energy-eigenvalue tresh-hold
   EBREAK =  0.43E-08  absolut break condition
   DEPER  =   0.30     relativ break condition  

   TIME   =   0.40     timestep for ELM

  volume/ion in A,a.u.               =      29.30       197.69
  Fermi-wavevector in a.u.,A,eV,Ry     =   1.128862  2.133240 17.338300  1.274329
  Thomas-Fermi vector in A             =   2.265553
 
 Write flags
   LWAVE        =      F    write WAVECAR
   LDOWNSAMPLE  =      F    k-point downsampling of WAVECAR
   LCHARG       =      F    write CHGCAR
   LVTOT        =      F    write LOCPOT, total local potential
   LVHAR        =      F    write LOCPOT, Hartree potential only
   LELF         =      F    write electronic localiz. function (ELF)
   LORBIT       =      0    0 simple, 1 ext, 2 COOP (PROOUT), +10 PAW based schemes


 Dipole corrections
   LMONO  =      F    monopole corrections only (constant potential shift)
   LDIPOL =      F    correct potential (dipole corrections)
   IDIPOL =      0    1-x, 2-y, 3-z, 4-all directions 
   EPSILON=  1.0000000 bulk dielectric constant

 Exchange correlation treatment:
   GGA     =    --    GGA type
   LEXCH   =     8    internal setting for exchange type
   VOSKOWN=      0    Vosko Wilk Nusair interpolation
   LHFCALC =     F    Hartree Fock is set to
   LHFONE  =     F    Hartree Fock one center treatment
   AEXX    =    0.0000 exact exchange contribution

 Linear response parameters
   LEPSILON=     F    determine dielectric tensor
   LRPA    =     F    only Hartree local field effects (RPA)
   LNABLA  =     F    use nabla operator in PAW spheres
   LVEL    =     F    velocity operator in full k-point grid
   LINTERFAST=   F  fast interpolation
   KINTER  =     0    interpolate to denser k-point grid
   CSHIFT  =0.1000    complex shift for real part using Kramers Kronig
   OMEGAMAX=  -1.0    maximum frequency
   DEG_THRESHOLD= 0.2000000E-02 threshold for treating states as degnerate
   RTIME   =   -0.100 relaxation time in fs
  (WPLASMAI=    0.000 imaginary part of plasma frequency in eV, 0.658/RTIME)
   DFIELD  = 0.0000000 0.0000000 0.0000000 field for delta impulse in time
 
 Orbital magnetization related:
   ORBITALMAG=     F  switch on orbital magnetization
   LCHIMAG   =     F  perturbation theory with respect to B field
   DQ        =  0.001000  dq finite difference perturbation B field
   LLRAUG    =     F  two centre corrections for induced B field



--------------------------------------------------------------------------------------------------------


 conjugate gradient relaxation of ions
   using selective dynamics as specified on POSCAR
 charge density and potential will be updated during run
 spin polarized calculation
 RMM-DIIS sequential band-by-band and
  variant of blocked Davidson during initial phase
 perform sub-space diagonalisation
    before iterative eigenvector-optimisation
 modified Broyden-mixing scheme, WC =      100.0
 initial mixing is a Kerker type mixing with AMIX =  0.4000 and BMIX =      1.0000
 Hartree-type preconditioning will be used
 using additional bands          199
 real space projection scheme for non local part
 use partial core corrections
 calculate Harris-corrections to forces 
   (improved forces if not selfconsistent)
 use gradient corrections 
 use of overlap-Matrix (Vanderbilt PP)
 Methfessel and Paxton  Order N= 1 SIGMA  =   0.10


--------------------------------------------------------------------------------------------------------


  energy-cutoff  :      550.00
  volume of cell :     2372.91
      direct lattice vectors                 reciprocal lattice vectors
    11.159999847  0.000000000  0.000000000     0.089605736 -0.051733896  0.000000000
     5.579999924  9.664843374  0.000000000     0.000000000  0.103467792  0.000000000
     0.000000000  0.000000000 22.000000000     0.000000000  0.000000000  0.045454545

  length of vectors
    11.159999847 11.159999847 22.000000000     0.103467792  0.103467792  0.045454545


 
 k-points in units of 2pi/SCALE and weight: mesh auto                               
   0.00000000  0.00000000  0.00000000       0.250
   0.04480287 -0.02586695  0.00000000       0.250
   0.00000000  0.05173390  0.00000000       0.250
   0.04480287  0.02586695  0.00000000       0.250
 
 k-points in reciprocal lattice and weights: mesh auto                               
   0.00000000  0.00000000  0.00000000       0.250
   0.50000000  0.00000000  0.00000000       0.250
   0.00000000  0.50000000  0.00000000       0.250
   0.50000000  0.50000000  0.00000000       0.250
 
 position of ions in fractional coordinates (direct lattice) 
   0.78410929  0.88122113  0.30659795
   0.03840304  0.87960006  0.30284749
   0.27732428  0.37398042  0.31387666
   0.86879861  0.96608509  0.40745927
   0.11229087  0.47013948  0.41430908
   0.12073658  0.96288658  0.41053626
   0.87477397  0.45590393  0.41685433
   0.37349944  0.95936649  0.41333800
   0.86951628  0.21353289  0.40914837
   0.12621755  0.21312327  0.41312316
   0.62489269  0.95750485  0.41198925
   0.86973501  0.71434514  0.41422466
   0.37554557  0.20541597  0.41513450
   0.37761744  0.70868748  0.41127941
   0.62590870  0.46150495  0.41453403
   0.11921802  0.70952428  0.41568669
   0.62414497  0.20959581  0.41151627
   0.54168697  0.37946542  0.31395151
   0.53035131  0.12660560  0.31046538
   0.54793603  0.12559094  0.05562120
   0.10504726  0.43654782  0.12441709
   0.04891118  0.13217946  0.31082942
   0.02529082  0.12493247  0.04047369
   0.13026485  0.95528544  0.13817680
   0.36938322  0.45920297  0.41417582
   0.45509049  0.55651272  0.22154554
   0.62060076  0.71102090  0.41479308
   0.95094057  0.77081544  0.21154233
   0.79688309  0.62378000  0.31591142
   0.27694840  0.62942757  0.31204279
   0.19082330  0.27236719  0.22566964
   0.69919994  0.55613805  0.22166573
   0.03629339  0.63336247  0.31517552
   0.79467647  0.85972118  0.06032101
   0.04722771  0.86083187  0.05262433
   0.04859995  0.64677341  0.06148323
   0.62562354  0.23868534  0.13390052
   0.38129809  0.95058438  0.13575460
   0.03143427  0.38431543  0.32011046
   0.99126956  0.36841850  0.04402170
   0.86350131  0.21842123  0.13306086
   0.95183731  0.53532270  0.22231013
   0.29911720  0.11420082  0.31900411
   0.54188813  0.62476552  0.31991619
   0.28073741  0.10572062  0.05217040
   0.53898716  0.62972570  0.04826805
   0.29843692  0.40217147  0.05639190
   0.62299507  0.94105548  0.13847503
   0.70309498  0.78725245  0.22023275
   0.84927807  0.68065811  0.13125409
   0.61676727  0.47016329  0.13003533
   0.29855928  0.87742599  0.31799098
   0.30104323  0.87798772  0.04776903
   0.60856387  0.72205278  0.13067254
   0.23442975  0.02118691  0.22845648
   0.53458295  0.38611139  0.04113969
   0.36549861  0.20554464  0.13827492
   0.16323487  0.70328636  0.14532740
   0.69430872  0.06353648  0.21923850
   0.78813215  0.13226489  0.31125350
   0.54073756  0.87174229  0.31618972
   0.78467988  0.12564699  0.04279190
   0.53720865  0.88323237  0.04365230
   0.20177430  0.52532489  0.21944794
   0.93965768  0.30525856  0.22474547
   0.86501396  0.98099372  0.13695687
   0.71102907  0.30256943  0.22580825
   0.45342655  0.29690968  0.22156689
   0.85908571  0.44811144  0.13181704
   0.11348559  0.19767859  0.13378399
   0.77114523  0.60971805  0.04620503
   0.29563368  0.62728335  0.05225088
   0.38421747  0.71875814  0.13293049
   0.39253970  0.45501358  0.13517071
   0.78672471  0.38852826  0.31837949
   0.77506619  0.36811979  0.04526885
   0.94496148  0.07237666  0.22177850
   0.46334471  0.79628971  0.22743685
   0.23540543  0.79883680  0.22766226
   0.45873779  0.02460247  0.22481212
   0.71163339  0.30255106  0.45978570
 
 position of ions in cartesian coordinates  (Angst):
  13.66787336  8.51686418  6.74515493
   5.33674618  8.50119686  6.66264481
   5.18174962  3.61446219  6.90528655
  15.08654704  9.33706104  8.96410384
   3.87654438  4.54382445  9.11479982
   6.72032727  9.30614797  9.03179772
  12.30642124  4.40624009  9.17079522
   9.52151862  9.27212682  9.09343595
  10.89531507  2.06376194  9.00126411
   2.59781571  2.05980304  9.08870950
  12.31667931  9.25413437  9.06376356
  13.69228846  6.90403394  9.11294260
   5.33730961  1.98531315  9.13295904
   8.16868671  6.84935353  9.04814697
   9.56033856  4.46037306  9.11974864
   5.28961844  6.85744100  9.14510719
   8.13500243  2.02571069  9.05335790
   8.16264348  3.66747381  6.90693323
   6.62517977  1.22362329  6.83023844
   6.81576348  1.21381676  1.22366642
   3.60826420  4.21916628  2.73717594
   1.28341012  1.27749377  6.83824733
   0.97936869  1.20745277  0.89042116
   6.78424835  9.23268414  3.03988958
   6.68466922  4.43812475  9.11186815
   8.18415069  5.37860823  4.87400199
  10.89340098  6.87190562  9.12544778
  14.91364670  7.44981051  4.65393115
  12.37390749  6.02873601  6.95005133
   6.60294983  6.08331883  6.86494135
   3.64939690  2.63238621  4.96473217
  10.90632152  5.37498713  4.87664604
   3.93919679  6.12134910  6.93386149
  13.66583347  8.30907059  1.32706224
   5.33050299  8.31980515  1.15773524
   4.15137100  6.25096369  1.35263108
   8.31382275  2.30685640  2.94581151
   9.55954743  9.18724919  2.98660111
   2.49528650  3.71434842  7.04243004
  13.11834335  3.56070709  0.96847749
  10.85546493  2.11100698  2.92733883
  13.60960483  5.17381000  4.89082288
   3.97538851  1.10373308  7.01809042
   9.53366302  6.03826090  7.03815618
   3.72295046  1.02177321  1.14774882
   9.52896595  6.08620024  1.06189717
   5.57467270  3.88692427  1.24062180
  12.20371438  9.09515381  3.04645062
  12.23940849  7.60867166  4.84512043
  13.27601528  6.57845401  2.88758994
   9.50663376  4.54405451  2.86077715
   8.22795853  8.48018480  6.99580163
   8.25881386  8.48561383  1.05091857
  10.82062721  6.97852707  2.87479592
   2.73445892  0.20476814  5.02604247
   8.12044716  3.73170614  0.90507316
   5.22590351  1.98655677  3.04204822
   5.74603891  6.79715252  3.19720269
   8.10301876  0.61407012  4.82324696
   9.53359279  1.27831948  6.84757704
  10.89895295  8.42525268  6.95617375
   9.45813751  1.21435845  0.94142187
  10.92368507  8.53630257  0.96035051
   5.18311405  5.07718277  4.82785464
  12.18992233  2.95027613  4.94440032
  15.12750054  9.48115063  3.01305103
   9.62342168  2.92428613  4.96778154
   6.71699620  2.86958551  4.87447167
  12.08785820  4.33092689  2.89997481
   2.36954570  1.91053259  2.94324780
  12.00820732  5.89282942  1.01651062
   6.79951286  6.06259537  1.14951932
   8.29853726  6.94668484  2.92447067
   6.91971874  4.39763498  2.97375560
  10.94783532  3.75506482  7.00434875
  10.70384693  3.55782008  0.99591470
  10.94963169  0.69950908  4.87912702
   9.61422348  7.69601536  5.00361061
   7.08463382  7.72063255  5.00856972
   5.25679540  0.23777902  4.94586657
   9.63006342  2.92410858 10.11528542
 


--------------------------------------------------------------------------------------------------------


 k-point  1 :   0.0000 0.0000 0.0000  plane waves:   69505
 k-point  2 :   0.5000 0.0000 0.0000  plane waves:   69454
 k-point  3 :   0.0000 0.5000 0.0000  plane waves:   69454
 k-point  4 :   0.5000 0.5000 0.0000  plane waves:   69454

 maximum and minimum number of plane-waves per node :     17422    17318

 maximum number of plane-waves:     69505
 maximum index in each direction: 
   IXMAX=   21   IYMAX=   21   IZMAX=   42
   IXMIN=  -21   IYMIN=  -21   IZMIN=  -42


 real space projection operators:
  total allocation   :      79976.50 KBytes
  max/ min on nodes  :      20456.14      19525.19


 parallel 3D FFT for wavefunctions:
    minimum data exchange during FFTs selected (reduces bandwidth)
 parallel 3D FFT for charge:
    minimum data exchange during FFTs selected (reduces bandwidth)


 total amount of memory used by VASP MPI-rank0   251625. kBytes
=======================================================================

   base      :      30000. kBytes
   nonlr-proj:      36168. kBytes
   fftplans  :      18294. kBytes
   grid      :      55120. kBytes
   one-center:        653. kBytes
   wavefun   :     111390. kBytes
 
     INWAV:  cpu time    0.0000: real time    0.0004
 Broyden mixing: mesh for mixing (old mesh)
   NGX = 43   NGY = 43   NGZ = 85
  (NGX  =180   NGY  =180   NGZ  =336)
  gives a total of 157165 points

 initial charge density was supplied:
 charge density of overlapping atoms calculated
 number of electron     778.0000000 magnetization     231.0000000
 keeping initial charge density in first step


--------------------------------------------------------------------------------------------------------


 Maximum index for non-local projection operator         2138
 Maximum index for augmentation-charges         1127 (set IRDMAX)


--------------------------------------------------------------------------------------------------------


 First call to EWALD:  gamma=   0.133
 Maximum number of real-space cells 4x 4x 2
 Maximum number of reciprocal cells 2x 2x 4

    FEWALD:  cpu time    0.0043: real time    0.0043


--------------------------------------- Iteration      1(   1)  ---------------------------------------


    POTLOK:  cpu time    0.4308: real time    0.5373
    SETDIJ:  cpu time    0.0329: real time    0.0329
     EDDAV:  cpu time   66.4208: real time   66.6365
       DOS:  cpu time    0.0023: real time    0.0024
    --------------------------------------------
      LOOP:  cpu time   66.8868: real time   67.2091

 eigenvalue-minimisations  :  9408
 total energy-change (2. order) : 0.7561292E+04  (-0.3274000E+05)
 number of electron     778.0000000 magnetization     231.0000000
 augmentation part      778.0000000 magnetization     231.0000000

 Free energy of the ion-electron system (eV)
  ---------------------------------------------------
  alpha Z        PSCENC =      2004.68801245
  Ewald energy   TEWEN  =    221729.55944360
  -Hartree energ DENC   =   -293274.72225057
  -exchange      EXHF   =         0.00000000
  -V(xc)+E(xc)   XCENC  =      1373.04470597
  PAW double counting   =     64136.80006862   -66038.70876209
  entropy T*S    EENTRO =        -0.00595900
  eigenvalues    EBANDS =      7411.98185569
  atomic energy  EATOM  =     70218.65458108
  Solvation  Ediel_sol  =         0.00000000
  ---------------------------------------------------
  free energy    TOTEN  =      7561.29169574 eV

  energy without entropy =     7561.29765474  energy(sigma->0) =     7561.29368208


--------------------------------------------------------------------------------------------------------




--------------------------------------- Iteration      1(   2)  ---------------------------------------


     EDDAV:  cpu time   66.6876: real time   68.1153
       DOS:  cpu time    0.0027: real time    0.0033
    --------------------------------------------
      LOOP:  cpu time   66.6903: real time   68.1185

 eigenvalue-minimisations  :  9408
 total energy-change (2. order) :-0.6816142E+04  (-0.6118086E+04)
 number of electron     778.0000000 magnetization     231.0000000
 augmentation part      778.0000000 magnetization     231.0000000

 Free energy of the ion-electron system (eV)
  ---------------------------------------------------
  alpha Z        PSCENC =      2004.68801245
  Ewald energy   TEWEN  =    221729.55944360
  -Hartree energ DENC   =   -293274.72225057
  -exchange      EXHF   =         0.00000000
  -V(xc)+E(xc)   XCENC  =      1373.04470597
  PAW double counting   =     64136.80006862   -66038.70876209
  entropy T*S    EENTRO =         0.00126101
  eigenvalues    EBANDS =       595.83259497
  atomic energy  EATOM  =     70218.65458108
  Solvation  Ediel_sol  =         0.00000000
  ---------------------------------------------------
  free energy    TOTEN  =       745.14965503 eV

  energy without entropy =      745.14839402  energy(sigma->0) =      745.14923469


--------------------------------------------------------------------------------------------------------




--------------------------------------- Iteration      1(   3)  ---------------------------------------


     EDDAV:  cpu time   66.5837: real time   66.8179
       DOS:  cpu time    0.0044: real time    0.2297
    --------------------------------------------
      LOOP:  cpu time   66.5882: real time   67.0476

 eigenvalue-minimisations  :  9432
 total energy-change (2. order) :-0.1121425E+04  (-0.9098162E+03)
 number of electron     778.0000000 magnetization     231.0000000
 augmentation part      778.0000000 magnetization     231.0000000

 Free energy of the ion-electron system (eV)
  ---------------------------------------------------
  alpha Z        PSCENC =      2004.68801245
  Ewald energy   TEWEN  =    221729.55944360
  -Hartree energ DENC   =   -293274.72225057
  -exchange      EXHF   =         0.00000000
  -V(xc)+E(xc)   XCENC  =      1373.04470597
  PAW double counting   =     64136.80006862   -66038.70876209
  entropy T*S    EENTRO =         0.00436616
  eigenvalues    EBANDS =      -525.59579539
  atomic energy  EATOM  =     70218.65458108
  Solvation  Ediel_sol  =         0.00000000
  ---------------------------------------------------
  free energy    TOTEN  =      -376.27563017 eV

  energy without entropy =     -376.27999634  energy(sigma->0) =     -376.27708556


--------------------------------------------------------------------------------------------------------




--------------------------------------- Iteration      1(   4)  ---------------------------------------


     EDDAV:  cpu time   80.7063: real time   80.9804
       DOS:  cpu time    0.0029: real time    0.0037
    --------------------------------------------
      LOOP:  cpu time   80.7092: real time   80.9841

 eigenvalue-minimisations  : 11964
 total energy-change (2. order) :-0.1116924E+03  (-0.1016269E+03)
 number of electron     778.0000000 magnetization     231.0000000
 augmentation part      778.0000000 magnetization     231.0000000

 Free energy of the ion-electron system (eV)
  ---------------------------------------------------
  alpha Z        PSCENC =      2004.68801245
  Ewald energy   TEWEN  =    221729.55944360
  -Hartree energ DENC   =   -293274.72225057
  -exchange      EXHF   =         0.00000000
  -V(xc)+E(xc)   XCENC  =      1373.04470597
  PAW double counting   =     64136.80006862   -66038.70876209
  entropy T*S    EENTRO =         0.00401976
  eigenvalues    EBANDS =      -637.28788938
  atomic energy  EATOM  =     70218.65458108
  Solvation  Ediel_sol  =         0.00000000
  ---------------------------------------------------
  free energy    TOTEN  =      -487.96807056 eV

  energy without entropy =     -487.97209032  energy(sigma->0) =     -487.96941048


--------------------------------------------------------------------------------------------------------




--------------------------------------- Iteration      1(   5)  ---------------------------------------


     EDDAV:  cpu time   76.0970: real time   76.3411
       DOS:  cpu time    0.0030: real time    0.0055
    CHARGE:  cpu time    4.4265: real time    4.4394
    MIXING:  cpu time    0.0111: real time    0.0111
    --------------------------------------------
      LOOP:  cpu time   80.5376: real time   80.7971

 eigenvalue-minimisations  : 11208
 total energy-change (2. order) :-0.4290315E+01  (-0.4253647E+01)
 number of electron     778.0000013 magnetization     216.6886421
 augmentation part      335.7134442 magnetization     183.5695122

 Broyden mixing:
  rms(total) = 0.11159E+02    rms(broyden)= 0.11159E+02
  rms(prec ) = 0.11552E+02
  weight for this iteration     100.00

 Free energy of the ion-electron system (eV)
  ---------------------------------------------------
  alpha Z        PSCENC =      2004.68801245
  Ewald energy   TEWEN  =    221729.55944360
  -Hartree energ DENC   =   -293274.72225057
  -exchange      EXHF   =         0.00000000
  -V(xc)+E(xc)   XCENC  =      1373.04470597
  PAW double counting   =     64136.80006862   -66038.70876209
  entropy T*S    EENTRO =         0.00464118
  eigenvalues    EBANDS =      -641.57882569
  atomic energy  EATOM  =     70218.65458108
  Solvation  Ediel_sol  =         0.00000000
  ---------------------------------------------------
  free energy    TOTEN  =      -492.25838546 eV

  energy without entropy =     -492.26302664  energy(sigma->0) =     -492.25993252


--------------------------------------------------------------------------------------------------------




--------------------------------------- Iteration      1(   6)  ---------------------------------------


    POTLOK:  cpu time    0.4135: real time    0.4155
    SETDIJ:  cpu time    0.0327: real time    0.0330
    EDDIAG:  cpu time   11.9867: real time   12.0270
  RMM-DIIS:  cpu time   43.1906: real time   43.3317
    ORTHCH:  cpu time    1.3059: real time    1.3121
       DOS:  cpu time    0.0025: real time    0.0025
    CHARGE:  cpu time    4.3115: real time    4.3263
    MIXING:  cpu time    0.0116: real time    0.0121
    --------------------------------------------
      LOOP:  cpu time   61.2551: real time   61.4602

 eigenvalue-minimisations  :  9693
 total energy-change (2. order) :-0.2672971E+03  (-0.1041282E+03)
 number of electron     778.0000020 magnetization     213.1913124
 augmentation part      407.6855351 magnetization     177.9808602

 Broyden mixing:
  rms(total) = 0.21569E+02    rms(broyden)= 0.21569E+02
  rms(prec ) = 0.28412E+02
  weight for this iteration     100.00

 eigenvalues of (default mixing * dielectric matrix)
  average eigenvalue GAMMA=   0.1865
  0.1865

 Free energy of the ion-electron system (eV)
  ---------------------------------------------------
  alpha Z        PSCENC =      2004.68801245
  Ewald energy   TEWEN  =    221729.55944360
  -Hartree energ DENC   =   -291670.75675251
  -exchange      EXHF   =         0.00000000
  -V(xc)+E(xc)   XCENC  =      1332.15954482
  PAW double counting   =     68331.83458563   -70006.92897841
  entropy T*S    EENTRO =        -0.01692389
  eigenvalues    EBANDS =     -2698.74904609
  atomic energy  EATOM  =     70218.65458108
  Solvation  Ediel_sol  =         0.00000000
  ---------------------------------------------------
  free energy    TOTEN  =      -759.55553333 eV

  energy without entropy =     -759.53860945  energy(sigma->0) =     -759.54989204


--------------------------------------------------------------------------------------------------------




--------------------------------------- Iteration      1(   7)  ---------------------------------------


    POTLOK:  cpu time    0.4106: real time    0.4129
    SETDIJ:  cpu time    0.0329: real time    0.0330
    EDDIAG:  cpu time   12.0019: real time   12.0406
  RMM-DIIS:  cpu time   42.0258: real time   42.1632
    ORTHCH:  cpu time    1.3123: real time    1.3163
       DOS:  cpu time    0.0024: real time    0.0025
    CHARGE:  cpu time    4.3129: real time    4.3277
    MIXING:  cpu time    0.0118: real time    0.0119
    --------------------------------------------
      LOOP:  cpu time   60.1107: real time   60.3080

 eigenvalue-minimisations  :  9432
 total energy-change (2. order) : 0.2841346E+03  (-0.1591284E+02)
 number of electron     778.0000019 magnetization     208.4061039
 augmentation part      375.6069876 magnetization     164.5375792

 Broyden mixing:
  rms(total) = 0.13734E+02    rms(broyden)= 0.13734E+02
  rms(prec ) = 0.17392E+02
  weight for this iteration     100.00

 eigenvalues of (default mixing * dielectric matrix)
  average eigenvalue GAMMA=   0.2589
  0.3410  0.1768

 Free energy of the ion-electron system (eV)
  ---------------------------------------------------
  alpha Z        PSCENC =      2004.68801245
  Ewald energy   TEWEN  =    221729.55944360
  -Hartree energ DENC   =   -292317.51007602
  -exchange      EXHF   =         0.00000000
  -V(xc)+E(xc)   XCENC  =      1349.81402495
  PAW double counting   =     69231.70393433   -71053.80548108
  entropy T*S    EENTRO =         0.00258254
  eigenvalues    EBANDS =     -1638.52796697
  atomic energy  EATOM  =     70218.65458108
  Solvation  Ediel_sol  =         0.00000000
  ---------------------------------------------------
  free energy    TOTEN  =      -475.42094513 eV

  energy without entropy =     -475.42352766  energy(sigma->0) =     -475.42180597


--------------------------------------------------------------------------------------------------------




--------------------------------------- Iteration      1(   8)  ---------------------------------------


    POTLOK:  cpu time    0.4098: real time    0.4119
    SETDIJ:  cpu time    0.0330: real time    0.0331
    EDDIAG:  cpu time   12.0187: real time   12.0592
  RMM-DIIS:  cpu time   42.0646: real time   42.2031
    ORTHCH:  cpu time    1.3106: real time    1.3148
       DOS:  cpu time    0.0026: real time    0.0026
    CHARGE:  cpu time    4.2184: real time    4.2426
    MIXING:  cpu time    0.0121: real time    0.0124
    --------------------------------------------
      LOOP:  cpu time   60.0697: real time   60.2796

 eigenvalue-minimisations  :  9432
 total energy-change (2. order) : 0.1195477E+02  (-0.1531248E+02)
 number of electron     778.0000012 magnetization     201.1367926
 augmentation part      376.5088828 magnetization     162.7467616

 Broyden mixing:
  rms(total) = 0.15775E+02    rms(broyden)= 0.15775E+02
  rms(prec ) = 0.18428E+02
  weight for this iteration     100.00

 eigenvalues of (default mixing * dielectric matrix)
  average eigenvalue GAMMA=   0.3180
  0.5960  0.2711  0.0870

 Free energy of the ion-electron system (eV)
  ---------------------------------------------------
  alpha Z        PSCENC =      2004.68801245
  Ewald energy   TEWEN  =    221729.55944360
  -Hartree energ DENC   =   -292512.32192755
  -exchange      EXHF   =         0.00000000
  -V(xc)+E(xc)   XCENC  =      1357.93211298
  PAW double counting   =     70365.49568969   -72268.47806225
  entropy T*S    EENTRO =        -0.00140264
  eigenvalues    EBANDS =     -1358.99462383
  atomic energy  EATOM  =     70218.65458108
  Solvation  Ediel_sol  =         0.00000000
  ---------------------------------------------------
  free energy    TOTEN  =      -463.46617648 eV

  energy without entropy =     -463.46477384  energy(sigma->0) =     -463.46570893


--------------------------------------------------------------------------------------------------------




--------------------------------------- Iteration      1(   9)  ---------------------------------------


    POTLOK:  cpu time    0.4099: real time    0.4125
    SETDIJ:  cpu time    0.0330: real time    0.0331
    EDDIAG:  cpu time   12.0339: real time   12.0770
  RMM-DIIS:  cpu time   42.2185: real time   42.3548
    ORTHCH:  cpu time    1.3120: real time    1.3157
       DOS:  cpu time    0.0026: real time    0.0026
    CHARGE:  cpu time    4.3012: real time    4.3159
    MIXING:  cpu time    0.0122: real time    0.0124
    --------------------------------------------
      LOOP:  cpu time   60.3232: real time   60.5239

 eigenvalue-minimisations  :  9444
 total energy-change (2. order) : 0.5779087E+02  (-0.1660679E+02)
 number of electron     778.0000014 magnetization     193.7570626
 augmentation part      378.9620240 magnetization     145.1945876

 Broyden mixing:
  rms(total) = 0.13173E+02    rms(broyden)= 0.13172E+02
  rms(prec ) = 0.14946E+02
  weight for this iteration     100.00

 eigenvalues of (default mixing * dielectric matrix)
  average eigenvalue GAMMA=   0.3483
  0.8063  0.3630  0.1120  0.1120

 Free energy of the ion-electron system (eV)
  ---------------------------------------------------
  alpha Z        PSCENC =      2004.68801245
  Ewald energy   TEWEN  =    221729.55944360
  -Hartree energ DENC   =   -292347.52967377
  -exchange      EXHF   =         0.00000000
  -V(xc)+E(xc)   XCENC  =      1375.95515331
  PAW double counting   =     71663.25155974   -73624.68503612
  entropy T*S    EENTRO =        -0.00093222
  eigenvalues    EBANDS =     -1425.56840992
  atomic energy  EATOM  =     70218.65458108
  Solvation  Ediel_sol  =         0.00000000
  ---------------------------------------------------
  free energy    TOTEN  =      -405.67530186 eV

  energy without entropy =     -405.67436964  energy(sigma->0) =     -405.67499112


--------------------------------------------------------------------------------------------------------




--------------------------------------- Iteration      1(  10)  ---------------------------------------


    POTLOK:  cpu time    0.4092: real time    0.4114
    SETDIJ:  cpu time    0.0332: real time    0.0333
    EDDIAG:  cpu time   11.9207: real time   11.9593
  RMM-DIIS:  cpu time   42.2453: real time   42.3819
    ORTHCH:  cpu time    1.3098: real time    1.3135
       DOS:  cpu time    0.0026: real time    0.0026
[...]
   -.103E+02 0.394E+02 -.271E+04   0.107E+02 -.395E+02 0.270E+04   -.396E+00 0.134E+00 0.157E+01   0.501E-02 -.145E-01 0.433E-02
   -.301E+02 0.133E+01 -.273E+04   0.292E+02 -.417E+00 0.273E+04   0.857E+00 -.901E+00 0.228E+01   0.684E-02 -.326E-02 0.432E-02
   0.311E+02 0.556E+01 -.272E+04   -.310E+02 -.612E+01 0.272E+04   -.724E-01 0.530E+00 0.194E+01   -.359E-02 0.167E-02 0.217E-02
   -.298E+02 -.927E+01 -.280E+04   0.304E+02 0.848E+01 0.280E+04   -.538E+00 0.762E+00 0.255E+01   -.899E-02 0.395E-02 0.117E-01
   0.206E+02 -.244E+02 -.282E+04   -.211E+02 0.247E+02 0.281E+04   0.538E+00 -.353E+00 0.282E+01   -.470E-02 -.170E-02 0.666E-03
   -.312E+02 0.427E+02 -.276E+04   0.315E+02 -.427E+02 0.275E+04   -.322E+00 0.597E-02 0.135E+01   0.236E-02 -.409E-02 0.163E-01
   -.283E+01 0.918E-01 -.275E+04   0.360E+01 0.269E+00 0.275E+04   -.749E+00 -.323E+00 0.263E+01   0.255E-02 -.886E-02 0.184E-01
   -.385E+02 -.701E+01 -.277E+04   0.388E+02 0.655E+01 0.277E+04   -.392E+00 0.420E+00 0.167E+01   0.117E-02 0.209E-02 0.107E-02
   -.355E+02 -.914E+01 -.274E+04   0.354E+02 0.890E+01 0.273E+04   0.969E-01 0.243E+00 0.199E+01   0.401E-02 0.449E-03 0.428E-02
   0.660E+00 -.458E+02 -.277E+04   -.866E+00 0.450E+02 0.277E+04   0.191E+00 0.832E+00 0.204E+01   0.183E-01 0.781E-02 -.792E-03
   0.627E+02 0.200E+02 -.275E+04   -.616E+02 -.197E+02 0.275E+04   -.110E+01 -.343E+00 0.231E+01   -.722E-03 -.524E-03 0.706E-02
   0.450E+02 -.155E+01 -.280E+04   -.443E+02 0.317E+01 0.280E+04   -.685E+00 -.168E+01 0.229E+01   -.123E-01 0.625E-03 0.712E-02
   0.975E+00 -.115E+02 -.272E+04   -.120E+01 0.108E+02 0.272E+04   0.247E+00 0.688E+00 0.194E+01   -.123E-01 0.992E-02 0.482E-02
   0.320E+02 -.813E+00 -.276E+04   -.324E+02 0.762E+00 0.276E+04   0.438E+00 0.254E-01 0.149E+01   -.622E-02 0.190E-01 0.153E-01
   0.883E+02 -.487E+02 -.148E+04   -.870E+02 0.490E+02 0.148E+04   -.134E+01 -.335E+00 0.154E+01   0.771E-02 -.833E-02 0.191E-01
   0.644E+01 -.401E+02 -.141E+04   -.743E+01 0.398E+02 0.140E+04   0.981E+00 0.284E+00 0.224E+01   0.121E-01 0.106E-01 0.543E-02
   0.863E+02 0.250E+02 0.276E+04   -.856E+02 -.254E+02 -.276E+04   -.790E+00 0.429E+00 -.307E+01   0.758E-03 -.505E-02 0.452E-02
   -.526E+02 -.514E+02 0.171E+04   0.516E+02 0.518E+02 -.171E+04   0.109E+01 -.386E+00 0.156E+01   0.156E-02 0.990E-02 -.920E-02
   -.333E+02 0.206E+02 -.140E+04   0.340E+02 -.202E+02 0.140E+04   -.686E+00 -.396E+00 0.200E+01   -.220E-01 0.128E-01 0.802E-03
   -.737E+02 0.986E+02 0.291E+04   0.743E+02 -.972E+02 -.291E+04   -.565E+00 -.156E+01 -.256E+01   -.860E-03 -.618E-02 -.536E-02
   0.623E+02 -.442E+02 0.146E+04   -.619E+02 0.436E+02 -.146E+04   -.326E+00 0.614E+00 -.727E+00   -.780E-02 -.829E-02 -.336E-01
   0.965E+01 -.373E+01 -.274E+04   -.104E+02 0.383E+01 0.274E+04   0.776E+00 -.856E-01 0.202E+01   -.414E-02 -.252E-01 0.131E-02
   0.428E+02 0.342E+02 -.616E+02   -.426E+02 -.337E+02 0.609E+02   -.341E+00 -.565E+00 0.669E+00   0.568E-02 -.390E-02 -.152E-01
   -.275E+02 0.120E+02 -.280E+04   0.267E+02 -.121E+02 0.279E+04   0.777E+00 0.828E-01 0.236E+01   0.818E-02 0.416E-02 0.110E-02
   -.186E+02 0.141E+02 0.221E+03   0.175E+02 -.158E+02 -.221E+03   0.116E+01 0.176E+01 -.508E+00   -.190E-01 0.104E-02 -.174E-01
   -.860E+02 -.529E+01 -.142E+04   0.867E+02 0.411E+01 0.142E+04   -.703E+00 0.124E+01 0.258E+01   -.800E-02 0.596E-02 -.166E-01
   0.533E+02 0.228E+02 -.141E+04   -.536E+02 -.221E+02 0.140E+04   0.357E+00 -.677E+00 0.193E+01   0.118E-02 -.165E-01 -.157E-01
   -.356E+02 -.783E+02 -.412E+02   0.348E+02 0.779E+02 0.415E+02   0.929E+00 0.422E+00 -.262E+00   0.126E-01 0.156E-01 -.128E-01
   -.454E+02 -.161E+02 -.157E+02   0.459E+02 0.168E+02 0.153E+02   -.605E+00 -.785E+00 0.413E+00   -.646E-03 0.210E-01 -.182E-01
   0.774E+01 -.680E-01 -.110E+04   -.764E+01 0.201E-01 0.110E+04   -.103E+00 0.134E+00 0.223E+00   -.306E-03 0.124E-02 -.564E-02
   -.739E+02 0.361E+02 0.220E+04   0.749E+02 -.369E+02 -.220E+04   -.939E+00 0.857E+00 -.316E+01   -.709E-02 -.780E-02 0.915E-02
   0.588E+02 0.373E+01 0.226E+04   -.593E+02 -.529E+01 -.226E+04   0.532E+00 0.166E+01 -.300E+01   0.425E-02 -.290E-02 -.391E-02
   0.977E+02 0.337E+02 0.217E+04   -.968E+02 -.323E+02 -.217E+04   -.961E+00 -.145E+01 -.239E+01   -.161E-02 0.406E-02 -.633E-04
   0.683E+02 0.914E+02 0.119E+04   -.674E+02 -.907E+02 -.119E+04   -.912E+00 -.779E+00 -.699E-01   -.416E-04 0.178E-02 -.435E-02
   0.832E+01 -.107E+03 0.120E+04   -.821E+01 0.106E+03 -.120E+04   -.190E+00 0.586E+00 -.572E+00   0.163E-01 -.179E-01 -.236E-01
   -.680E+02 -.229E+02 -.116E+04   0.681E+02 0.230E+02 0.116E+04   -.125E+00 -.179E+00 0.128E+00   0.443E-03 0.400E-02 -.982E-03
   -.243E+03 -.150E+02 0.236E+04   0.240E+03 0.145E+02 -.236E+04   0.271E+01 0.417E+00 -.413E+01   -.412E-02 0.554E-02 -.606E-02
   -.371E+02 0.764E+02 0.121E+04   0.363E+02 -.759E+02 -.121E+04   0.894E+00 -.543E+00 -.568E+00   -.834E-02 0.278E-02 -.124E-01
   -.998E+02 -.176E+02 0.732E+01   0.995E+02 0.180E+02 -.707E+01   0.304E+00 -.491E+00 -.334E+00   -.539E-02 0.182E-01 -.135E-01
   0.123E+02 -.902E+02 -.119E+04   -.125E+02 0.901E+02 0.119E+04   0.189E+00 0.764E-01 0.434E+00   0.123E-01 0.587E-02 0.108E-01
   0.289E+02 0.201E+02 -.120E+04   -.290E+02 -.203E+02 0.120E+04   0.106E+00 0.141E+00 -.373E+00   0.516E-02 -.851E-02 -.877E-02
   -.548E+02 -.143E+03 0.228E+04   0.531E+02 0.140E+03 -.228E+04   0.172E+01 0.290E+01 -.338E+01   -.206E-02 -.901E-02 -.419E-02
   0.197E+02 -.469E+02 0.265E+04   -.197E+02 0.473E+02 -.265E+04   -.850E-01 -.360E+00 -.307E+01   0.132E-01 0.471E-02 0.128E-01
   0.237E+03 0.785E+02 0.255E+04   -.236E+03 -.768E+02 -.254E+04   -.901E+00 -.172E+01 -.294E+01   0.126E-02 0.435E-02 -.992E-03
   -.957E+02 -.648E+02 0.131E+04   0.949E+02 0.638E+02 -.131E+04   0.846E+00 0.104E+01 0.193E-02   -.236E-02 -.237E-01 0.409E-02
   -.128E+03 0.194E+02 0.353E+02   0.128E+03 -.193E+02 -.355E+02   -.471E-01 -.124E+00 0.170E+00   -.457E-02 -.268E-02 -.286E-01
   -.192E+03 -.114E+02 0.140E+04   0.193E+03 0.120E+02 -.140E+04   -.213E+00 -.717E+00 -.209E-04   -.210E-01 0.127E-01 -.838E-03
   -.725E+01 0.675E+01 0.132E+04   0.739E+01 -.706E+01 -.132E+04   -.159E+00 0.370E+00 -.311E+00   0.322E-02 0.207E-02 -.704E-03
   0.717E+02 0.115E+02 -.138E+04   -.716E+02 -.113E+02 0.138E+04   -.261E+00 -.108E+00 0.457E+00   0.194E-02 -.111E-01 0.133E-01
   0.882E+02 -.629E+02 0.263E+04   -.874E+02 0.631E+02 -.262E+04   -.926E+00 -.242E+00 -.317E+01   -.276E-02 0.197E-02 -.598E-02
   -.656E+02 -.156E+02 0.136E+04   0.656E+02 0.159E+02 -.136E+04   -.803E-01 -.372E+00 -.531E+00   0.210E-01 0.487E-02 0.576E-02
   0.536E+02 -.105E+03 -.282E+02   -.528E+02 0.104E+03 0.284E+02   -.763E+00 0.495E+00 -.442E+00   0.395E-02 -.321E-02 -.143E-01
   0.105E+03 0.655E+02 0.328E+04   -.105E+03 -.645E+02 -.327E+04   0.552E-02 -.101E+01 -.439E+01   0.541E-02 -.374E-02 0.626E-02
   0.470E+02 -.312E+02 0.166E+04   -.475E+02 0.306E+02 -.166E+04   0.476E+00 0.685E+00 0.257E+00   0.101E-01 -.172E-02 -.114E-01
   0.226E+03 -.379E+02 0.143E+04   -.227E+03 0.385E+02 -.143E+04   0.203E+00 -.590E+00 0.323E+00   -.661E-02 -.264E-02 -.169E-01
   0.290E+02 0.106E+03 0.135E+03   -.297E+02 -.105E+03 -.135E+03   0.742E+00 -.441E+00 -.275E+00   -.797E-02 -.101E-01 -.161E-01
   0.105E+02 0.830E+02 -.160E+04   -.101E+02 -.829E+02 0.160E+04   -.446E+00 -.127E+00 0.639E+00   -.130E-01 0.807E-02 -.144E-02
   -.639E+02 0.191E+02 -.163E+04   0.633E+02 -.189E+02 0.163E+04   0.740E+00 -.197E+00 0.142E+01   0.150E-01 -.107E-01 -.146E-01
   0.454E+02 0.178E+03 0.320E+04   -.451E+02 -.177E+03 -.320E+04   -.330E+00 -.288E+00 -.374E+01   0.245E-02 0.225E-02 -.338E-03
   -.851E+02 -.102E+03 0.324E+04   0.840E+02 0.102E+03 -.324E+04   0.113E+01 -.339E+00 -.409E+01   0.616E-03 -.105E-01 0.169E-01
   0.132E+03 -.107E+02 0.706E+02   -.132E+03 0.106E+02 -.697E+02   0.360E+00 0.608E-02 -.103E+01   0.545E-02 0.336E-03 -.109E-01
   -.144E+03 -.162E+02 -.323E+02   0.144E+03 0.158E+02 0.327E+02   0.403E+00 0.417E+00 -.289E+00   -.146E-01 0.113E-01 -.425E-02
   0.145E+02 0.175E+03 0.162E+04   -.146E+02 -.174E+03 -.162E+04   0.129E+00 -.920E+00 -.119E+01   -.901E-02 -.474E-02 -.717E-02
   0.565E+02 -.378E+02 -.176E+02   -.561E+02 0.367E+02 0.177E+02   -.482E+00 0.127E+01 -.123E+00   -.520E-02 0.829E-02 -.967E-02
   0.833E+02 -.279E+01 0.200E+02   -.826E+02 0.261E+01 -.195E+02   -.632E+00 0.191E+00 -.443E+00   0.489E-02 0.151E-02 -.943E-02
   -.144E+03 -.251E+02 0.148E+04   0.144E+03 0.254E+02 -.148E+04   0.497E+00 -.317E+00 -.681E+00   -.104E-01 0.231E-01 -.161E-01
   -.757E+02 -.109E+01 0.153E+04   0.762E+02 0.764E+00 -.153E+04   -.505E+00 0.302E+00 -.646E+00   0.257E-03 0.399E-02 -.230E-01
   -.215E+03 -.696E+02 0.295E+04   0.214E+03 0.690E+02 -.294E+04   0.692E+00 0.548E+00 -.314E+01   0.298E-02 0.106E-01 0.113E-01
   0.131E+03 -.727E+02 0.290E+04   -.131E+03 0.729E+02 -.290E+04   0.760E+00 -.142E+00 -.132E+01   -.649E-02 0.905E-02 -.339E-02
   0.397E+02 -.426E+02 0.150E+04   -.393E+02 0.425E+02 -.150E+04   -.348E+00 0.130E+00 0.633E-01   0.126E-01 -.834E-03 -.978E-02
   0.133E+03 0.299E+02 0.141E+04   -.132E+03 -.299E+02 -.141E+04   -.102E+01 0.374E-01 -.776E+00   0.644E-02 0.266E-04 -.314E-02
   -.333E+02 -.281E+02 -.153E+04   0.332E+02 0.282E+02 0.153E+04   0.189E+00 -.194E+00 0.475E-01   -.108E-01 0.503E-02 -.467E-02
   -.460E+02 0.263E+02 0.292E+04   0.462E+02 -.256E+02 -.292E+04   -.276E+00 -.613E+00 -.179E+01   -.173E-02 0.349E-02 -.167E-02
   -.386E+02 0.156E+03 0.542E+02   0.389E+02 -.156E+03 -.536E+02   -.380E+00 -.116E+00 -.601E+00   -.170E-01 0.913E-03 -.119E-01
   -.109E+02 0.472E+02 -.700E+02   0.108E+02 -.464E+02 0.699E+02   0.110E+00 -.801E+00 -.243E-01   0.334E-01 -.254E-01 -.262E-01
   0.153E+03 -.996E+01 -.107E+03   -.153E+03 0.107E+02 0.107E+03   -.230E+00 -.751E+00 -.455E+00   -.652E-02 -.230E-01 -.149E-01
   -.434E+02 -.112E+03 0.289E+02   0.430E+02 0.111E+03 -.289E+02   0.380E+00 0.461E+00 -.663E-01   0.303E-01 -.182E-01 -.196E-01
   0.128E+01 0.351E-01 -.324E+03   -.131E+01 0.158E+00 0.325E+03   0.317E-02 -.195E+00 -.134E+01   -.179E-02 -.253E-04 0.884E-03
 -----------------------------------------------------------------------------------------------
   -.319E+01 0.797E+00 0.536E+01   0.136E-12 0.601E-13 -.796E-12   0.315E+01 -.753E+00 -.505E+01   0.164E-01 -.153E-01 -.301E+00
 
 
 POSITION                                       TOTAL-FORCE (eV/Angst)
 -----------------------------------------------------------------------------------
     13.67003      8.52305      6.74719         0.006438     -0.007900      0.017286
      5.33442      8.50591      6.64625        -0.002549      0.002383     -0.009322
      5.18863      3.61658      6.90259        -0.002838     -0.004056      0.010140
     15.13175      9.28439      8.97777         0.000226      0.005789     -0.017118
      3.88041      4.53570      9.12046         0.000981     -0.005241      0.006477
      6.71949      9.25369      8.98621         0.000351     -0.004104      0.000536
     12.32517      4.43962      9.17296         0.006473     -0.014568     -0.018922
      9.50320      9.28362      9.09537        -0.002474     -0.015025     -0.002964
     10.96906      2.02132      9.03995        -0.034375      0.013592     -0.023981
      2.60626      2.06617      9.09030        -0.002250      0.017029      0.005155
     12.32669      9.26767      9.06439        -0.010366     -0.013414     -0.002917
     13.69819      6.90896      9.11194         0.008025      0.012220      0.001057
      5.33559      1.98744      9.13483         0.002857      0.011388     -0.013793
      8.13974      6.88926      9.05845         0.004974     -0.004115      0.011921
      9.54729      4.53371      9.16893         0.001344     -0.028648     -0.026544
      5.30245      6.88163      9.07549         0.010759      0.017233      0.007181
      8.09385      2.00182      9.09426        -0.012806     -0.005423     -0.023932
      8.18237      3.67262      6.92832        -0.005488     -0.007024      0.004569
      6.63570      1.22683      6.83254        -0.014680      0.011580      0.002610
      6.81576      1.21382      1.22367         0.013502     -0.030436     -0.004615
      3.60826      4.21917      2.73718        -0.008327      0.014145     -0.001785
      1.29200      1.29172      6.83216        -0.015922     -0.004678      0.005042
      0.97937      1.20745      0.89042         0.003038      0.017449     -0.005844
      6.78425      9.23268      3.03989        -0.004023      0.034199      0.046160
      6.65969      4.46742      9.11638        -0.000576      0.005224      0.000880
      8.18415      5.37861      4.87400         0.000160     -0.035251      0.011413
     10.88394      6.89715      9.11760        -0.001295     -0.001600      0.006092
     14.91365      7.44981      4.65393         0.023490     -0.019131     -0.004552
     12.36916      6.03357      6.94935         0.008318      0.007059     -0.012383
      6.62210      6.07276      6.85688         0.010754      0.009152     -0.020280
      3.64940      2.63239      4.96473        -0.023270      0.000362     -0.022832
     10.90632      5.37499      4.87665        -0.038916     -0.016088     -0.011369
      3.94194      6.12558      6.94061         0.003422      0.010929      0.006240
     13.66583      8.30907      1.32706        -0.022501      0.000886      0.000173
      5.33050      8.31981      1.15774        -0.001024     -0.008994     -0.011002
      4.15137      6.25096      1.35263        -0.010815     -0.015362     -0.006716
      8.31382      2.30686      2.94581        -0.001507     -0.006193     -0.008372
      9.55955      9.18725      2.98660        -0.003705      0.020667      0.020708
      2.49010      3.71927      7.04121        -0.003047      0.007649     -0.004285
     13.11834      3.56071      0.96848        -0.011120     -0.001043      0.010089
     10.85546      2.11101      2.92734        -0.004045     -0.004483      0.001770
     13.60960      5.17381      4.89082         0.001721     -0.006167      0.007681
      3.98187      1.11359      7.01883         0.011553     -0.007355      0.004420
      9.53011      6.05943      7.04029         0.000272     -0.002476     -0.011084
      3.72295      1.02177      1.14775         0.003613      0.021398     -0.000336
      9.52897      6.08620      1.06190         0.016186     -0.012218     -0.021772
      5.57467      3.88692      1.24062        -0.004452      0.039578     -0.001576
     12.20371      9.09515      3.04645         0.008778      0.013839      0.017103
     12.23941      7.60867      4.84512        -0.013639      0.000922     -0.006027
     13.27602      6.57845      2.88759        -0.000198      0.001621      0.009115
      9.50663      4.54405      2.86078        -0.023480     -0.036604      0.011448
      8.21930      8.49617      6.98518         0.009553      0.001995      0.005633
      8.25881      8.48561      1.05092        -0.014128      0.019259     -0.035081
     10.82063      6.97853      2.87480         0.004875     -0.002446      0.019422
      2.73446      0.20477      5.02604         0.049769     -0.002024     -0.088401
      8.12045      3.73171      0.90507        -0.012748     -0.013864      0.002872
      5.22590      1.98656      3.04205         0.010606      0.020506     -0.009990
      5.74604      6.79715      3.19720         0.004992     -0.007506      0.020921
      8.10302      0.61407      4.82325         0.030056      0.034572      0.028861
      9.54151      1.29524      6.87989         0.006506     -0.008638     -0.000852
     10.90101      8.44027      6.95644        -0.000560     -0.005870      0.004130
      9.45814      1.21436      0.94142         0.004392      0.008996      0.008168
     10.92369      8.53630      0.96035         0.024224     -0.003981     -0.002446
      5.18311      5.07718      4.82785         0.001994      0.011835     -0.018469
     12.18992      2.95028      4.94440        -0.022104      0.022674      0.042819
     15.12750      9.48115      3.01305         0.017374      0.011855      0.008287
      9.62342      2.92429      4.96778        -0.014907     -0.020507      0.045529
      6.71700      2.86959      4.87447         0.051150     -0.013785      0.026750
     12.08786      4.33093      2.89997        -0.004654     -0.013724     -0.007321
      2.36955      1.91053      2.94325         0.012343     -0.028198      0.001377
     12.00821      5.89283      1.01651        -0.011759     -0.003678     -0.010444
      6.79951      6.06260      1.14952         0.025104     -0.021301      0.007656
      8.29854      6.94668      2.92447         0.006941      0.016144      0.027853
      6.91972      4.39763      2.97376         0.004580     -0.006380     -0.005849
     10.92342      3.76385      7.03387         0.018323     -0.002076     -0.016463
     10.70385      3.55782      0.99591        -0.021558     -0.001713      0.000224
     10.94963      0.69951      4.87913        -0.027487      0.021327      0.019547
      9.61422      7.69602      5.00361         0.000615      0.001449      0.016509
      7.08463      7.72063      5.00857        -0.012583     -0.009837     -0.004854
      5.25680      0.23778      4.94587         0.019209      0.018592     -0.044778
      9.54730      2.75339      9.90102        -0.027664     -0.002372      0.027442
 -----------------------------------------------------------------------------------
    total drift:                               -0.029144      0.029049      0.006225


--------------------------------------------------------------------------------------------------------



  FREE ENERGIE OF THE ION-ELECTRON SYSTEM (eV)
  ---------------------------------------------------
  free  energy   TOTEN  =      -502.84775533 eV

  energy  without entropy=     -502.87524891  energy(sigma->0) =     -502.85691986
 
 d Force = 0.2344163E-02[ 0.966E-03, 0.372E-02]  d Energy = 0.2281421E-02 0.627E-04
 d Force =-0.6242571E+02[-0.624E+02,-0.624E+02]  d Ewald  =-0.6242569E+02-0.168E-04


--------------------------------------------------------------------------------------------------------


    POTLOK:  cpu time    0.4942: real time    0.5107


--------------------------------------------------------------------------------------------------------


 Conjugate gradient step on ions:
 trial-energy change:   -0.002281  1 .order   -0.002344   -0.003722   -0.000966
  (g-gl).g = 0.147E-02      g.g   = 0.174E-02  gl.gl    = 0.434E-02
 g(Force)  = 0.174E-02   g(Stress)= 0.000E+00 ortho     =-0.674E-04
 gamma     =   0.33980
 trial     =   2.16339
 opt step  =   3.10624  (harmonic =   2.92137) maximal distance =0.00474155
 next E    =  -502.847961   (d E  =  -0.00249)


--------------------------------------------------------------------------------------------------------


  
 reached required accuracy - stopping structural energy minimisation
     LOOP+:  cpu time  900.6414: real time  903.5849
    4ORBIT:  cpu time    0.0000: real time    0.0000

 total amount of memory used by VASP MPI-rank0   251625. kBytes
=======================================================================

   base      :      30000. kBytes
   nonlr-proj:      36168. kBytes
   fftplans  :      18294. kBytes
   grid      :      55120. kBytes
   one-center:        653. kBytes
   wavefun   :     111390. kBytes
 
  
  
 General timing and accounting informations for this job:
 ========================================================
  
                  Total CPU time used (sec):    15872.180
                            User time (sec):    15448.402
                          System time (sec):      423.778
                         Elapsed time (sec):    15952.072
  
                   Maximum memory used (kb):      442608.
                   Average memory used (kb):           0.
  
                          Minor page faults:      3975636
                          Major page faults:          231
                 Voluntary context switches:         9845
