 vasp.5.4.4.18Apr17-6-g9f103f2a35 (build Oct 25 2019 11:13:22) complex          
  
 executed on             LinuxIFC date 2022.02.12  06:49:51
 running on   48 total cores
 distrk:  each k-point on   48 cores,    1 groups
 distr:  one band on NCORES_PER_BAND=   4 cores,   12 groups


--------------------------------------------------------------------------------------------------------


 INCAR:
 POTCAR:    PAW_PBE Pt 04Feb2005                  
 POTCAR:    PAW_PBE Co 02Aug2007                  
 POTCAR:    PAW_PBE Ni 02Aug2007                  
 POTCAR:    PAW_PBE H 15Jun2001                   
 POTCAR:    PAW_PBE Pt 04Feb2005                  
   VRHFIN =Pt: s1d9                                                             
   LEXCH  = PE                                                                  
   EATOM  =   729.1176 eV,   53.5886 Ry                                         
                                                                                
   TITEL  = PAW_PBE Pt 04Feb2005                                                
   LULTRA =        F    use ultrasoft PP ?                                      
   IUNSCR =        1    unscreen: 0-lin 1-nonlin 2-no                           
   RPACOR =    2.330    partial core radius                                     
   POMASS =  195.080; ZVAL   =   10.000    mass and valenz                      
   RCORE  =    2.600    outmost cutoff radius                                   
   RWIGS  =    2.750; RWIGS  =    1.455    wigner-seitz radius (au A)           
   ENMAX  =  230.283; ENMIN  =  172.712 eV                                      
   ICORE  =        3    local potential                                         
   LCOR   =        T    correct aug charges                                     
   LPAW   =        T    paw PP                                                  
   EAUG   =  358.966                                                            
   DEXC   =    0.000                                                            
   RMAX   =    2.658    core radius for proj-oper                               
   RAUG   =    1.300    factor for augmentation sphere                          
   RDEP   =    2.761    radius for radial grids                                 
   RDEPT  =    2.203    core radius for aug-charge                              
                                                                                
   Atomic configuration                                                         
   16 entries                                                                   
     n  l   j            E        occ.                                          
     1  0  0.50    -78401.1885   2.0000                                         
     2  0  0.50    -13770.7750   2.0000                                         
     2  1  1.50    -11931.0468   6.0000                                         
     3  0  0.50     -3234.7234   2.0000                                         
     3  1  1.50     -2699.2216   6.0000                                         
     3  2  2.50     -2119.5714  10.0000                                         
     4  0  0.50      -695.1528   2.0000                                         
     4  1  1.50      -519.6034   6.0000                                         
     4  2  2.50      -306.6786  10.0000                                         
     4  3  3.50       -70.1041  14.0000                                         
     5  0  0.50      -101.7747   2.0000                                         
     5  1  1.50       -55.9873   6.0000                                         
     5  2  2.50        -6.1423   9.0000                                         
     6  0  0.50        -5.6573   1.0000                                         
     6  1  1.50        -6.8029   0.0000                                         
     5  3  2.50        -1.3606   0.0000                                         
   Description                                                                  
     l       E           TYP  RCUT    TYP  RCUT                                 
     2     -6.1423404     23  2.500                                             
     2     -7.5029230     23  2.500                                             
     0     -5.6573207     23  2.500                                             
     0      0.7416693     23  2.500                                             
     1     -2.7211652     23  2.600                                             
     1     20.4087390     23  2.600                                             
     3     -1.3605826     23  2.500                                             
  local pseudopotential read in
  partial core-charges read in
  partial kinetic energy density read in
  atomic valenz-charges read in
  non local Contribution for L=           2  read in
    real space projection operators read in
  non local Contribution for L=           2  read in
    real space projection operators read in
  non local Contribution for L=           0  read in
    real space projection operators read in
  non local Contribution for L=           0  read in
    real space projection operators read in
  non local Contribution for L=           1  read in
    real space projection operators read in
  non local Contribution for L=           1  read in
    real space projection operators read in
    PAW grid and wavefunctions read in
 
   number of l-projection  operators is LMAX  =           6
   number of lm-projection operators is LMMAX =          18
 
 POTCAR:    PAW_PBE Co 02Aug2007                  
   VRHFIN =Co: d8 s1                                                            
   LEXCH  = PE                                                                  
   EATOM  =   813.3670 eV,   59.7808 Ry                                         
                                                                                
   TITEL  = PAW_PBE Co 02Aug2007                                                
   LULTRA =        F    use ultrasoft PP ?                                      
   IUNSCR =        1    unscreen: 0-lin 1-nonlin 2-no                           
   RPACOR =    2.000    partial core radius                                     
   POMASS =   58.933; ZVAL   =    9.000    mass and valenz                      
   RCORE  =    2.300    outmost cutoff radius                                   
   RWIGS  =    2.460; RWIGS  =    1.302    wigner-seitz radius (au A)           
   ENMAX  =  267.968; ENMIN  =  200.976 eV                                      
   RCLOC  =    1.203    cutoff for local pot                                    
   LCOR   =        T    correct aug charges                                     
   LPAW   =        T    paw PP                                                  
   EAUG   =  477.818                                                            
   DEXC   =    0.000                                                            
   RMAX   =    2.360    core radius for proj-oper                               
   RAUG   =    1.300    factor for augmentation sphere                          
   RDEP   =    2.393    radius for radial grids                                 
   RDEPT  =    1.864    core radius for aug-charge                              
                                                                                
   Atomic configuration                                                         
    9 entries                                                                   
     n  l   j            E        occ.                                          
     1  0  0.50     -7587.6674   2.0000                                         
     2  0  0.50      -893.6084   2.0000                                         
     2  1  1.50      -764.5805   6.0000                                         
     3  0  0.50       -97.5973   2.0000                                         
     3  1  1.50       -60.9648   6.0000                                         
     3  2  2.50        -4.2382   8.0000                                         
     4  0  0.50        -4.3746   1.0000                                         
     4  1  1.50        -4.0817   0.0000                                         
     4  3  2.50        -1.3606   0.0000                                         
   Description                                                                  
     l       E           TYP  RCUT    TYP  RCUT                                 
     2     -4.2382362     23  2.300                                             
     2     -5.5988188     23  2.300                                             
     0     -4.3745797     23  2.300                                             
     0      5.7660125     23  2.300                                             
     1     -2.7211652     23  2.300                                             
     1     16.9860234     23  2.300                                             
  local pseudopotential read in
  partial core-charges read in
  partial kinetic energy density read in
  atomic valenz-charges read in
  non local Contribution for L=           2  read in
    real space projection operators read in
  non local Contribution for L=           2  read in
    real space projection operators read in
  non local Contribution for L=           0  read in
    real space projection operators read in
  non local Contribution for L=           0  read in
    real space projection operators read in
  non local Contribution for L=           1  read in
    real space projection operators read in
  non local Contribution for L=           1  read in
    real space projection operators read in
    PAW grid and wavefunctions read in
 
   number of l-projection  operators is LMAX  =           6
   number of lm-projection operators is LMMAX =          18
 
 POTCAR:    PAW_PBE Ni 02Aug2007                  
   VRHFIN =Ni:                                                                  
   LEXCH  = PE                                                                  
   EATOM  =  1077.6739 eV,   79.2068 Ry                                         
                                                                                
   TITEL  = PAW_PBE Ni 02Aug2007                                                
   LULTRA =        F    use ultrasoft PP ?                                      
   IUNSCR =        1    unscreen: 0-lin 1-nonlin 2-no                           
   RPACOR =    2.000    partial core radius                                     
   POMASS =   58.690; ZVAL   =   10.000    mass and valenz                      
   RCORE  =    2.300    outmost cutoff radius                                   
   RWIGS  =    2.430; RWIGS  =    1.286    wigner-seitz radius (au A)           
   ENMAX  =  269.532; ENMIN  =  202.149 eV                                      
   RCLOC  =    1.201    cutoff for local pot                                    
   LCOR   =        T    correct aug charges                                     
   LPAW   =        T    paw PP                                                  
   EAUG   =  544.565                                                            
   DEXC   =    0.000                                                            
   RMAX   =    2.357    core radius for proj-oper                               
   RAUG   =    1.300    factor for augmentation sphere                          
   RDEP   =    2.390    radius for radial grids                                 
   RDEPT  =    1.838    core radius for aug-charge                              
                                                                                
   Atomic configuration                                                         
    9 entries                                                                   
     n  l   j            E        occ.                                          
     1  0  0.50     -8206.4253   2.0000                                         
     2  0  0.50      -976.1748   2.0000                                         
     2  1  1.50      -839.0571   6.0000                                         
     3  0  0.50      -105.9991   2.0000                                         
     3  1  1.50       -66.4603   6.0000                                         
     3  2  2.50        -4.6458   9.0000                                         
     4  0  0.50        -4.4926   1.0000                                         
     4  1  1.50        -4.0817   0.0000                                         
     4  3  2.50        -1.3606   0.0000                                         
   Description                                                                  
     l       E           TYP  RCUT    TYP  RCUT                                 
     2     -4.6457903     23  2.300                                             
     2     -6.0063729     23  2.300                                             
     0     -4.4925590     23  2.300                                             
     0      5.0102601     23  2.300                                             
     1     -2.7211652     23  2.300                                             
     1     16.5183231     23  2.300                                             
  local pseudopotential read in
  partial core-charges read in
  partial kinetic energy density read in
  atomic valenz-charges read in
  non local Contribution for L=           2  read in
    real space projection operators read in
  non local Contribution for L=           2  read in
    real space projection operators read in
  non local Contribution for L=           0  read in
    real space projection operators read in
  non local Contribution for L=           0  read in
    real space projection operators read in
  non local Contribution for L=           1  read in
    real space projection operators read in
  non local Contribution for L=           1  read in
    real space projection operators read in
    PAW grid and wavefunctions read in
 
   number of l-projection  operators is LMAX  =           6
   number of lm-projection operators is LMMAX =          18
 
 POTCAR:    PAW_PBE H 15Jun2001                   
   VRHFIN =H: ultrasoft test                                                    
   LEXCH  = PE                                                                  
   EATOM  =    12.4884 eV,    0.9179 Ry                                         
                                                                                
   TITEL  = PAW_PBE H 15Jun2001                                                 
   LULTRA =        F    use ultrasoft PP ?                                      
   IUNSCR =        0    unscreen: 0-lin 1-nonlin 2-no                           
   RPACOR =    0.000    partial core radius                                     
   POMASS =    1.000; ZVAL   =    1.000    mass and valenz                      
   RCORE  =    1.100    outmost cutoff radius                                   
   RWIGS  =    0.700; RWIGS  =    0.370    wigner-seitz radius (au A)           
   ENMAX  =  250.000; ENMIN  =  200.000 eV                                      
   RCLOC  =    0.701    cutoff for local pot                                    
   LCOR   =        T    correct aug charges                                     
   LPAW   =        T    paw PP                                                  
   EAUG   =  400.000                                                            
   RMAX   =    1.123    core radius for proj-oper                               
   RAUG   =    1.200    factor for augmentation sphere                          
   RDEP   =    1.112    radius for radial grids                                 
   RDEPT  =    0.926    core radius for aug-charge                              
                                                                                
   Atomic configuration                                                         
    2 entries                                                                   
     n  l   j            E        occ.                                          
     1  0  0.50        -6.4927   1.0000                                         
     2  1  0.50        -3.4015   0.0000                                         
   Description                                                                  
     l       E           TYP  RCUT    TYP  RCUT                                 
     0     -6.4927494     23  1.100                                             
     0      6.8029130     23  1.100                                             
     1     -4.0817478     23  1.100                                             
  local pseudopotential read in
  atomic valenz-charges read in
  non local Contribution for L=           0  read in
    real space projection operators read in
  non local Contribution for L=           0  read in
    real space projection operators read in
  non local Contribution for L=           1  read in
    real space projection operators read in
    PAW grid and wavefunctions read in
 
   number of l-projection  operators is LMAX  =           3
   number of lm-projection operators is LMMAX =           5
 
 Optimization of the real space projectors (new method)

 maximal supplied QI-value         = 14.36
 optimisation between [QCUT,QGAM] = [ 11.92, 23.98] = [ 39.79,161.09] Ry 
 Optimized for a Real-space Cutoff    1.49 Angstroem

   l    n(q)    QCUT    max X(q) W(low)/X(q) W(high)/X(q)  e(spline) 
   2     10    11.920    66.195    0.79E-04    0.18E-03    0.24E-06
   2     10    11.920    64.643    0.81E-04    0.19E-03    0.24E-06
   0     11    11.920    95.520    0.28E-04    0.54E-04    0.18E-06
   0     11    11.920    63.403    0.27E-04    0.52E-04    0.17E-06
   1     10    11.920    19.961    0.18E-04    0.11E-03    0.23E-06
   1     10    11.920    13.289    0.25E-04    0.87E-04    0.19E-06
 Optimization of the real space projectors (new method)

 maximal supplied QI-value         = 16.25
 optimisation between [QCUT,QGAM] = [ 11.86, 23.89] = [ 39.41,159.82] Ry 
 Optimized for a Real-space Cutoff    1.33 Angstroem

   l    n(q)    QCUT    max X(q) W(low)/X(q) W(high)/X(q)  e(spline) 
   2      9    11.864    65.824    0.22E-03    0.53E-03    0.26E-06
   2      9    11.864    61.429    0.22E-03    0.53E-03    0.26E-06
   0      9    11.864    56.174    0.21E-03    0.32E-04    0.15E-06
   0      9    11.864    31.263    0.19E-03    0.30E-04    0.14E-06
   1      9    11.864    19.828    0.63E-04    0.30E-03    0.16E-06
   1      9    11.864    15.139    0.49E-04    0.25E-03    0.13E-06
 Optimization of the real space projectors (new method)

 maximal supplied QI-value         = 16.25
 optimisation between [QCUT,QGAM] = [ 11.86, 23.89] = [ 39.41,159.82] Ry 
 Optimized for a Real-space Cutoff    1.33 Angstroem

   l    n(q)    QCUT    max X(q) W(low)/X(q) W(high)/X(q)  e(spline) 
   2      9    11.864    60.317    0.21E-03    0.51E-03    0.25E-06
   2      9    11.864    55.921    0.21E-03    0.51E-03    0.26E-06
   0      9    11.864    51.690    0.22E-03    0.30E-04    0.17E-06
   0      9    11.864    30.015    0.20E-03    0.28E-04    0.15E-06
   1      9    11.864    18.849    0.76E-04    0.33E-03    0.17E-06
   1      9    11.864    14.624    0.60E-04    0.28E-03    0.15E-06
 Optimization of the real space projectors (new method)

 maximal supplied QI-value         = 34.20
 optimisation between [QCUT,QGAM] = [ 11.97, 23.94] = [ 40.13,160.53] Ry 
 Optimized for a Real-space Cutoff    1.18 Angstroem

   l    n(q)    QCUT    max X(q) W(low)/X(q) W(high)/X(q)  e(spline) 
   0      8    11.971    19.460    0.15E-03    0.31E-03    0.25E-06
   0      8    11.971    12.209    0.13E-03    0.29E-03    0.25E-06
   1      8    11.971     4.655    0.22E-03    0.24E-03    0.21E-06
  PAW_PBE Pt 04Feb2005                  :
 energy of atom  1       EATOM= -729.1176
 kinetic energy error for atom=    0.0021 (will be added to EATOM!!)
  PAW_PBE Co 02Aug2007                  :
 energy of atom  2       EATOM= -813.3670
 kinetic energy error for atom=    0.0026 (will be added to EATOM!!)
  PAW_PBE Ni 02Aug2007                  :
 energy of atom  3       EATOM=-1077.6739
 kinetic energy error for atom=    0.0027 (will be added to EATOM!!)
  PAW_PBE H 15Jun2001                   :
 energy of atom  4       EATOM=  -12.4884
 kinetic energy error for atom=    0.0008 (will be added to EATOM!!)
 
 
 POSCAR: 11.26                                   
  positions in direct lattice
  velocities in cartesian coordinates
 exchange correlation table for  LEXCH =        8
   RHO(1)=    0.500       N(1)  =     2000
   RHO(2)=  100.500       N(2)  =     4000
 


--------------------------------------------------------------------------------------------------------


 ion  position               nearest neighbor table
   1  0.789  0.879  0.301-  49 2.47  59 2.56  60 2.64  28 2.69   4 2.73   2 2.74  29 2.75  19 2.80
                            11 2.85  12 2.85  61 2.89  33 2.94
   2  0.033  0.879  0.293-  79 2.49  77 2.57  60 2.72   1 2.74  28 2.76   4 2.81   6 2.89  30 2.90
                            16 2.94  33 2.99  22 3.17  52 3.23
   3  0.276  0.362  0.311-  64 2.54  68 2.62  31 2.63  39 2.67  33 2.70   5 2.71  30 2.76  13 2.76
                            25 2.78  19 2.81  43 2.82  18 2.87
   4  0.875  0.964  0.400-  60 2.71   9 2.72  17 2.72   1 2.73   6 2.79  16 2.79  12 2.81   2 2.81
                            11 2.83
   5  0.113  0.467  0.410-  39 2.60  33 2.70   3 2.71  12 2.72  16 2.73  10 2.76   7 2.77  25 2.85
                            13 2.98
   6  0.125  0.959  0.400-  52 2.62  22 2.70   4 2.79   8 2.83  16 2.86   9 2.88   2 2.89  10 2.90
                            14 2.91
   7  0.873  0.455  0.412-  75 2.54  39 2.58   5 2.77  10 2.79  27 2.80   9 2.80  29 2.82  15 2.84
                            12 2.93
   8  0.377  0.956  0.415-  43 2.53  52 2.56  61 2.68  13 2.75  27 2.80  11 2.81   6 2.83  10 2.84
                            14 2.90
   9  0.864  0.211  0.396-  75 2.60  22 2.67   4 2.72  17 2.73  15 2.74  60 2.77   7 2.80   6 2.88
                            10 3.01
  10  0.129  0.214  0.413-  22 2.64  43 2.69  13 2.72   5 2.76  39 2.77   7 2.79   8 2.84   6 2.90
                             9 3.01
  11  0.629  0.952  0.410-  81 1.72  61 2.65  12 2.71  19 2.73  27 2.76  17 2.79  13 2.81   8 2.81
                             4 2.83   1 2.85
  12  0.875  0.714  0.408-  29 2.66  16 2.68  11 2.71   5 2.72   4 2.81  33 2.81  27 2.83   1 2.85
                             7 2.93
  13  0.378  0.200  0.413-  81 1.56  43 2.70  10 2.72  19 2.73   8 2.75   3 2.76  25 2.78  17 2.80
                            11 2.81   5 2.98
  14  0.381  0.696  0.403-  52 2.55  44 2.56  15 2.69  25 2.81  27 2.84  30 2.88  16 2.90   8 2.90
                             6 2.91
  15  0.620  0.456  0.399-  75 2.53  44 2.61  14 2.69   9 2.74  25 2.79  17 2.83   7 2.84  18 2.85
                            27 2.87
  16  0.116  0.709  0.404-  12 2.68  30 2.69   5 2.73  33 2.76   4 2.79   6 2.86  14 2.90  25 2.92
                             2 2.94
  17  0.627  0.201  0.404-  81 1.96  18 2.69   4 2.72   9 2.73  19 2.79  11 2.79  25 2.79  13 2.80
                            60 2.82  15 2.83
  18  0.538  0.348  0.301-  67 2.46  26 2.59  68 2.67  17 2.69  60 2.69  19 2.70  25 2.82  15 2.85
                             3 2.87  30 2.95  75 3.20
  19  0.527  0.113  0.308-  59 2.47  80 2.51  68 2.57  43 2.61  61 2.63  18 2.70  13 2.73  11 2.73
                            17 2.79   1 2.80   3 2.81  60 2.92
  20  0.546  0.126  0.067-  48 2.50  57 2.52  47 2.52  62 2.53  37 2.60  56 2.66  34 2.70  63 2.89

  21  0.118  0.408  0.119-  47 2.44  40 2.48  36 2.49  69 2.60  57 2.64  42 2.67  64 2.70  70 2.72
                            31 2.74  50 3.30
  22  0.055  0.148  0.310-  77 2.43  65 2.51  55 2.51  43 2.57  39 2.62  10 2.64   9 2.67   6 2.70
                            75 2.90  31 3.04  52 3.05   2 3.17  60 3.23
  23  0.009  0.102  0.049-  40 2.49  62 2.55  70 2.57  41 2.59  45 2.66  76 2.69  24 2.70  35 2.74
                            53 3.07
  24  0.138  0.927  0.142-  79 2.46  35 2.50  77 2.54  58 2.54  53 2.56  55 2.59  38 2.59  73 2.64
                            70 2.65  23 2.70  66 2.83
  25  0.376  0.448  0.407-  30 2.76  13 2.78   3 2.78  15 2.79  17 2.79  14 2.81  18 2.82   5 2.85
                            16 2.92
  26  0.480  0.554  0.230-  74 2.50  73 2.52  44 2.52  51 2.59  18 2.59  79 2.60  78 2.62  30 2.63
                            32 2.66  67 2.70
  27  0.627  0.707  0.413-  44 2.49  61 2.70  11 2.76   7 2.80   8 2.80  29 2.80  12 2.83  14 2.84
                            15 2.87
  28  0.953  0.759  0.204-  58 2.53  50 2.61  66 2.61  42 2.62  36 2.63  33 2.66   1 2.69   2 2.76
                            64 2.80  49 2.88  34 3.22  59 3.23  35 3.30
  29  0.797  0.631  0.311-  39 2.59  32 2.61  49 2.62  75 2.62  42 2.63  33 2.64  44 2.65  12 2.66
                             1 2.75  27 2.80   7 2.82  61 2.84
  30  0.274  0.608  0.304-  79 2.43  33 2.60  26 2.63  64 2.65  16 2.69  25 2.76   3 2.76  14 2.88
                             2 2.90  18 2.95  52 3.26
  31  0.187  0.262  0.225-  70 2.52  57 2.57  65 2.58  55 2.59  39 2.62   3 2.63  43 2.63  42 2.72
                            80 2.73  21 2.74  68 2.76  64 2.79  22 3.04
  32  0.711  0.561  0.214-  69 2.53  51 2.56  54 2.61  29 2.61  49 2.62  26 2.66  65 2.66  50 2.66
                            42 2.68  75 2.69  78 2.71  67 2.73  44 2.73
  33  0.042  0.609  0.305-  42 2.47  64 2.50  39 2.51  30 2.60  29 2.64  28 2.66   5 2.70   3 2.70
                            16 2.76  12 2.81   1 2.94   2 2.99
  34  0.782  0.884  0.080-  48 2.38  35 2.38  50 2.53  66 2.54  36 2.55  62 2.67  20 2.70  28 3.22

  35  0.002  0.866  0.072-  36 2.37  34 2.38  66 2.43  24 2.50  58 2.60  23 2.74  62 2.75  28 3.30

  36  0.006  0.657  0.094-  50 2.33  35 2.37  58 2.38  21 2.49  34 2.55  28 2.63
  37  0.628  0.234  0.150-  41 2.41  56 2.42  59 2.43  67 2.44  62 2.45  68 2.50  51 2.50  74 2.51
                            20 2.60  66 2.60
  38  0.361  0.942  0.135-  53 2.40  45 2.41  63 2.42  57 2.43  48 2.45  55 2.45  54 2.46  78 2.48
                            80 2.54  73 2.59  24 2.59  70 2.83
  39  0.024  0.396  0.316-  42 2.46  33 2.51   7 2.58  75 2.58  65 2.58  29 2.59   5 2.60  31 2.62
                            22 2.62   3 2.67  10 2.77
  40  0.013  0.321  0.044-  69 2.32  76 2.45  21 2.48  23 2.49  70 2.51  45 2.63  71 2.93
  41  0.844  0.228  0.139-  67 2.35  76 2.37  77 2.38  37 2.41  62 2.44  51 2.48  69 2.48  66 2.49
                            65 2.58  23 2.59  70 2.61
  42  0.967  0.520  0.219-  39 2.46  33 2.47  50 2.48  64 2.48  65 2.50  28 2.62  29 2.63  69 2.65
                            21 2.67  32 2.68  31 2.72
  43  0.303  0.099  0.319-  52 2.45  80 2.46  55 2.51   8 2.53  61 2.56  22 2.57  19 2.61  31 2.63
                            10 2.69  13 2.70   3 2.82
  44  0.553  0.648  0.317-  61 2.45  78 2.47  27 2.49  26 2.52  14 2.56  52 2.57  15 2.61  29 2.65
                            75 2.73  32 2.73
  45  0.251  0.091  0.049-  38 2.41  57 2.45  53 2.48  70 2.50  63 2.54  40 2.63  23 2.66
  46  0.529  0.612  0.047-  54 2.37  73 2.44  51 2.45  71 2.47  72 2.53  53 2.63  56 2.72  76 2.87
                            63 3.07
  47  0.334  0.361  0.072-  74 2.29  56 2.44  21 2.44  57 2.50  72 2.50  20 2.52
  48  0.581  0.937  0.137-  49 2.29  63 2.35  34 2.38  54 2.38  80 2.38  38 2.45  59 2.46  20 2.50
                            57 2.63  50 2.74
  49  0.677  0.809  0.223-  48 2.29  50 2.34  61 2.46  78 2.47   1 2.47  59 2.54  80 2.57  29 2.62
                            32 2.62  54 2.79  28 2.88
  50  0.810  0.679  0.140-  36 2.33  49 2.34  54 2.38  71 2.39  42 2.48  69 2.52  34 2.53  28 2.61
                            32 2.66  48 2.74  21 3.30
  51  0.629  0.454  0.133-  56 2.40  76 2.44  46 2.45  41 2.48  37 2.50  67 2.53  32 2.56  26 2.59
                            74 2.59  69 2.66  73 2.78  54 2.83
  52  0.320  0.872  0.317-  55 2.38  79 2.41  61 2.43  43 2.45  78 2.46  14 2.55   8 2.56  44 2.57
                             6 2.62  22 3.05   2 3.23  30 3.26
  53  0.299  0.850  0.050-  73 2.39  38 2.40  45 2.48  24 2.56  63 2.58  46 2.63  72 2.82  23 3.07

  54  0.581  0.726  0.124-  46 2.37  50 2.38  48 2.38  73 2.40  71 2.42  63 2.42  38 2.46  78 2.50
                            32 2.61  49 2.79  51 2.83
  55  0.229  0.013  0.230-  52 2.38  80 2.44  79 2.44  38 2.45  43 2.51  22 2.51  78 2.56  24 2.59
                            31 2.59  77 2.61  70 2.62
  56  0.549  0.361  0.055-  51 2.40  37 2.42  47 2.44  74 2.52  76 2.56  62 2.60  72 2.61  20 2.66
                            46 2.72
  57  0.344  0.167  0.132-  38 2.43  45 2.45  80 2.47  47 2.50  20 2.52  68 2.55  31 2.57  48 2.63
                            21 2.64  70 2.71
  58  0.176  0.684  0.148-  36 2.38  72 2.39  64 2.41  73 2.43  28 2.53  79 2.53  24 2.54  74 2.56
                            35 2.60
  59  0.661  0.042  0.213-  66 2.38  37 2.43  48 2.46  19 2.47  49 2.54  68 2.55   1 2.56  80 2.59
                            60 2.68  28 3.23
  60  0.785  0.116  0.297-  67 2.47  77 2.53   1 2.64  59 2.68  18 2.69   4 2.71   2 2.72   9 2.77
                            17 2.82  19 2.92  22 3.23
  61  0.536  0.875  0.316-  52 2.43  44 2.45  49 2.46  78 2.48  80 2.51  43 2.56  19 2.63  11 2.65
                             8 2.68  27 2.70  29 2.84   1 2.89
  62  0.773  0.123  0.060-  66 2.43  41 2.44  37 2.45  20 2.53  23 2.55  56 2.60  76 2.63  34 2.67
                            35 2.75
  63  0.500  0.898  0.045-  48 2.35  54 2.42  38 2.42  45 2.54  53 2.58  20 2.89  46 3.07
  64  0.196  0.505  0.214-  58 2.41  42 2.48  33 2.50  74 2.52   3 2.54  30 2.65  68 2.66  21 2.70
                            31 2.79  28 2.80
  65  0.935  0.315  0.226-  75 2.39  69 2.40  67 2.41  77 2.43  42 2.50  22 2.51  70 2.53  41 2.58
                            31 2.58  39 2.58  32 2.66
  66  0.858  0.002  0.156-  77 2.38  59 2.38  62 2.43  35 2.43  41 2.49  34 2.54  37 2.60  28 2.61
                            24 2.83
  67  0.721  0.315  0.230-  41 2.35  75 2.39  65 2.41  37 2.44  18 2.46  60 2.47  51 2.53  26 2.70
                            77 2.70  32 2.73
  68  0.430  0.266  0.214-  74 2.43  37 2.50  57 2.55  59 2.55  19 2.57   3 2.62  80 2.64  64 2.66
                            18 2.67  31 2.76
  69  0.877  0.430  0.129-  40 2.32  71 2.34  65 2.40  41 2.48  76 2.49  50 2.52  32 2.53  21 2.60
                            42 2.65  70 2.65  51 2.66
  70  0.096  0.181  0.140-  45 2.50  40 2.51  31 2.52  65 2.53  23 2.57  41 2.61  55 2.62  24 2.65
                            69 2.65  57 2.71  21 2.72  77 2.83  38 2.83
  71  0.760  0.589  0.052-  69 2.34  50 2.39  54 2.42  46 2.47  76 2.56  40 2.93
  72  0.315  0.592  0.059-  58 2.39  74 2.39  73 2.42  47 2.50  46 2.53  56 2.61  53 2.82
  73  0.382  0.701  0.136-  53 2.39  54 2.40  72 2.42  58 2.43  46 2.44  79 2.49  26 2.52  38 2.59
                            78 2.60  24 2.64  74 2.69  51 2.78
  74  0.400  0.454  0.149-  47 2.29  72 2.39  68 2.43  26 2.50  37 2.51  56 2.52  64 2.52  58 2.56
                            51 2.59  73 2.69
  75  0.792  0.401  0.314-  67 2.39  65 2.39  15 2.53   7 2.54  39 2.58   9 2.60  29 2.62  32 2.69
                            44 2.73  22 2.90  18 3.20
  76  0.781  0.351  0.046-  41 2.37  51 2.44  40 2.45  69 2.49  71 2.56  56 2.56  62 2.63  23 2.69
                            46 2.87
  77  0.970  0.084  0.222-  41 2.38  66 2.38  65 2.43  22 2.43  60 2.53  24 2.54   2 2.57  55 2.61
                            67 2.70  70 2.83
  78  0.465  0.795  0.225-  52 2.46  49 2.47  44 2.47  61 2.48  79 2.48  38 2.48  80 2.48  54 2.50
                            55 2.56  73 2.60  26 2.62  32 2.71
  79  0.249  0.786  0.233-  52 2.41  30 2.43  55 2.44  24 2.46  78 2.48  73 2.49   2 2.49  58 2.53
                            26 2.60
  80  0.439  0.028  0.225-  48 2.38  55 2.44  43 2.46  57 2.47  78 2.48  19 2.51  61 2.51  38 2.54
                            49 2.57  59 2.59  68 2.64  31 2.73
  81  0.528  0.114  0.438-  13 1.56  11 1.72  17 1.96
 
  LATTYP: Found a hexagonal cell.
 ALAT       =    11.2227001190
 C/A-ratio  =     1.9603125600
  
  Lattice vectors:
  
 A1 = (   5.6113500595,  -9.7191434021,   0.0000000000)
 A2 = ( -11.2227001190,   0.0000000000,   0.0000000000)
 A3 = (   0.0000000000,   0.0000000000, -22.0000000000)


Analysis of symmetry for initial positions (statically):
=====================================================================
 Subroutine PRICEL returns:
 Original cell was already a primitive cell.
 

 Routine SETGRP: Setting up the symmetry group for a 
 hexagonal supercell.


 Subroutine GETGRP returns: Found  1 space group operations
 (whereof  1 operations were pure point group operations)
 out of a pool of 24 trial point group operations.


The static configuration has the point symmetry C_1 .


Analysis of symmetry for dynamics (positions and initial velocities):
=====================================================================
 Subroutine PRICEL returns:
 Original cell was already a primitive cell.
 

 Routine SETGRP: Setting up the symmetry group for a 
 hexagonal supercell.


 Subroutine GETGRP returns: Found  1 space group operations
 (whereof  1 operations were pure point group operations)
 out of a pool of 24 trial point group operations.


The dynamic configuration has the point symmetry C_1 .


Analysis of constrained symmetry for selective dynamics:
=====================================================================
 Subroutine PRICEL returns:
 Original cell was already a primitive cell.
 

 Routine SETGRP: Setting up the symmetry group for a 
 hexagonal supercell.


 Subroutine GETGRP returns: Found  1 space group operations
 (whereof  1 operations were pure point group operations)
 out of a pool of 24 trial point group operations.


The constrained configuration has the point symmetry C_1 .


Analysis of structural, dynamic, and magnetic symmetry:
=====================================================================
 Subroutine PRICEL returns:
 Original cell was already a primitive cell.
 

 Routine SETGRP: Setting up the symmetry group for a 
 hexagonal supercell.


 Subroutine GETGRP returns: Found  1 space group operations
 (whereof  1 operations were pure point group operations)
 out of a pool of 24 trial point group operations.


The magnetic configuration has the point symmetry C_1 .


 Subroutine INISYM returns: Found  1 space group operations
 (whereof  1 operations are pure point group operations),
 and found     1 'primitive' translations

 
 
 KPOINTS: mesh auto                               

Automatic generation of k-mesh.
Space group operators:
 irot       det(A)        alpha          n_x          n_y          n_z        tau_x        tau_y        tau_z
    1     1.000000     0.000000     1.000000     0.000000     0.000000     0.000000     0.000000     0.000000
 
 Subroutine IBZKPT returns following result:
 ===========================================
 
 Found      4 irreducible k-points:
 
 Following reciprocal coordinates:
            Coordinates               Weight
  0.000000  0.000000  0.000000      1.000000
  0.500000  0.000000  0.000000      1.000000
  0.000000  0.500000  0.000000      1.000000
  0.500000  0.500000  0.000000      1.000000
 
 Following cartesian coordinates:
            Coordinates               Weight
  0.000000  0.000000  0.000000      1.000000
  0.044553 -0.025722  0.000000      1.000000
  0.000000  0.051445  0.000000      1.000000
  0.044553  0.025722  0.000000      1.000000
 


--------------------------------------------------------------------------------------------------------




 Dimension of arrays:
   k-points           NKPTS =      4   k-points in BZ     NKDIM =      4   number of bands    NBANDS=    576
   number of dos      NEDOS =    301   number of ions     NIONS =     81
   non local maximal  LDIM  =      6   non local SUM 2l+1 LMDIM =     18
   total plane-waves  NPLWV = ******
   max r-space proj   IRMAX =   7929   max aug-charges    IRDMAX=  34542
   dimension x,y,z NGX =    90 NGY =   90 NGZ =  168
   dimension x,y,z NGXF=   180 NGYF=  180 NGZF=  336
   support grid    NGXF=   180 NGYF=  180 NGZF=  336
   ions per type =              32  23  25   1
   NGX,Y,Z   is equivalent  to a cutoff of  13.33, 13.33, 12.70 a.u.
   NGXF,Y,Z  is equivalent  to a cutoff of  26.66, 26.66, 25.39 a.u.

 SYSTEM =  Pt111                                   
 POSCAR =  11.26                                   

 Startparameter for this run:
   NWRITE =      2    write-flag & timer
   PREC   = accura    normal or accurate (medium, high low for compatibility)
   ISTART =      0    job   : 0-new  1-cont  2-samecut
   ICHARG =      2    charge: 1-file 2-atom 10-const
   ISPIN  =      2    spin polarized calculation?
   LNONCOLLINEAR =      F non collinear calculations
   LSORBIT =      F    spin-orbit coupling
   INIWAV =      1    electr: 0-lowe 1-rand  2-diag
   LASPH  =      F    aspherical Exc in radial PAW
   METAGGA=      F    non-selfconsistent MetaGGA calc.

 Electronic Relaxation 1
   ENCUT  =  550.0 eV  40.42 Ry    6.36 a.u.  21.46 21.46 42.07*2*pi/ulx,y,z
   ENINI  =  550.0     initial cutoff
   ENAUG  =  544.6 eV  augmentation charge cutoff
   NELM   =    200;   NELMIN=  2; NELMDL= -5     # of ELM steps 
   EDIFF  = 0.1E-04   stopping-criterion for ELM
   LREAL  =      T    real-space projection
   NLSPLINE    = F    spline interpolate recip. space projectors
   LCOMPAT=      F    compatible to vasp.4.4
   GGA_COMPAT  = T    GGA compatible to vasp.4.4-vasp.4.6
   LMAXPAW     = -100 max onsite density
   LMAXMIX     =    2 max onsite mixed and CHGCAR
   VOSKOWN=      0    Vosko Wilk Nusair interpolation
   ROPT   =   -0.00025  -0.00025  -0.00025  -0.00025
 Ionic relaxation
   EDIFFG = -.5E-01   stopping-criterion for IOM
   NSW    =    300    number of steps for IOM
   NBLOCK =      1;   KBLOCK =    300    inner block; outer block 
   IBRION =      2    ionic relax: 0-MD 1-quasi-New 2-CG
   NFREE  =      1    steps in history (QN), initial steepest desc. (CG)
   ISIF   =      2    stress and relaxation
   IWAVPR =     11    prediction:  0-non 1-charg 2-wave 3-comb
   ISYM   =      2    0-nonsym 1-usesym 2-fastsym
   LCORR  =      T    Harris-Foulkes like correction to forces

   POTIM  = 0.5000    time-step for ionic-motion
   TEIN   =    0.0    initial temperature
   TEBEG  =    0.0;   TEEND  =   0.0 temperature during run
   SMASS  =  -3.00    Nose mass-parameter (am)
   estimated Nose-frequenzy (Omega)   =  0.10E-29 period in steps =****** mass=  -0.288E-26a.u.
   SCALEE = 1.0000    scale energy and forces
   NPACO  =    256;   APACO  = 16.0  distance and # of slots for P.C.
   PSTRESS=    0.0 pullay stress

  Mass of Ions in am
   POMASS = 195.08 58.93 58.69  1.00
  Ionic Valenz
   ZVAL   =  10.00  9.00 10.00  1.00
  Atomic Wigner-Seitz radii
   RWIGS  =  -1.00 -1.00 -1.00 -1.00
  virtual crystal weights 
   VCA    =   1.00  1.00  1.00  1.00
   NELECT =     778.0000    total number of electrons
   NUPDOWN=      -1.0000    fix difference up-down

 DOS related values:
   EMIN   =  10.00;   EMAX   =-10.00  energy-range for DOS
   EFERMI =   0.00
   ISMEAR =     1;   SIGMA  =   0.10  broadening in eV -4-tet -1-fermi 0-gaus

 Electronic relaxation 2 (details)
   IALGO  =     68    algorithm
   LDIAG  =      T    sub-space diagonalisation (order eigenvalues)
   LSUBROT=      F    optimize rotation matrix (better conditioning)
   TURBO    =      0    0=normal 1=particle mesh
   IRESTART =      0    0=no restart 2=restart with 2 vectors
   NREBOOT  =      0    no. of reboots
   NMIN     =      0    reboot dimension
   EREF     =   0.00    reference energy to select bands
   IMIX   =      4    mixing-type and parameters
     AMIX     =   0.40;   BMIX     =  1.00
     AMIX_MAG =   1.60;   BMIX_MAG =  1.00
     AMIN     =   0.10
     WC   =   100.;   INIMIX=   1;  MIXPRE=   1;  MAXMIX= -45

 Intra band minimization:
   WEIMIN = 0.0010     energy-eigenvalue tresh-hold
   EBREAK =  0.43E-08  absolut break condition
   DEPER  =   0.30     relativ break condition  

   TIME   =   0.40     timestep for ELM

  volume/ion in A,a.u.               =      29.63       199.92
  Fermi-wavevector in a.u.,A,eV,Ry     =   1.124653  2.125287 17.209264  1.264845
  Thomas-Fermi vector in A             =   2.261326
 
 Write flags
   LWAVE        =      F    write WAVECAR
   LDOWNSAMPLE  =      F    k-point downsampling of WAVECAR
   LCHARG       =      F    write CHGCAR
   LVTOT        =      F    write LOCPOT, total local potential
   LVHAR        =      F    write LOCPOT, Hartree potential only
   LELF         =      F    write electronic localiz. function (ELF)
   LORBIT       =      0    0 simple, 1 ext, 2 COOP (PROOUT), +10 PAW based schemes


 Dipole corrections
   LMONO  =      F    monopole corrections only (constant potential shift)
   LDIPOL =      F    correct potential (dipole corrections)
   IDIPOL =      0    1-x, 2-y, 3-z, 4-all directions 
   EPSILON=  1.0000000 bulk dielectric constant

 Exchange correlation treatment:
   GGA     =    --    GGA type
   LEXCH   =     8    internal setting for exchange type
   VOSKOWN=      0    Vosko Wilk Nusair interpolation
   LHFCALC =     F    Hartree Fock is set to
   LHFONE  =     F    Hartree Fock one center treatment
   AEXX    =    0.0000 exact exchange contribution

 Linear response parameters
   LEPSILON=     F    determine dielectric tensor
   LRPA    =     F    only Hartree local field effects (RPA)
   LNABLA  =     F    use nabla operator in PAW spheres
   LVEL    =     F    velocity operator in full k-point grid
   LINTERFAST=   F  fast interpolation
   KINTER  =     0    interpolate to denser k-point grid
   CSHIFT  =0.1000    complex shift for real part using Kramers Kronig
   OMEGAMAX=  -1.0    maximum frequency
   DEG_THRESHOLD= 0.2000000E-02 threshold for treating states as degnerate
   RTIME   =   -0.100 relaxation time in fs
  (WPLASMAI=    0.000 imaginary part of plasma frequency in eV, 0.658/RTIME)
   DFIELD  = 0.0000000 0.0000000 0.0000000 field for delta impulse in time
 
 Orbital magnetization related:
   ORBITALMAG=     F  switch on orbital magnetization
   LCHIMAG   =     F  perturbation theory with respect to B field
   DQ        =  0.001000  dq finite difference perturbation B field
   LLRAUG    =     F  two centre corrections for induced B field



--------------------------------------------------------------------------------------------------------


 conjugate gradient relaxation of ions
   using selective dynamics as specified on POSCAR
 charge density and potential will be updated during run
 spin polarized calculation
 RMM-DIIS sequential band-by-band and
  variant of blocked Davidson during initial phase
 perform sub-space diagonalisation
    before iterative eigenvector-optimisation
 modified Broyden-mixing scheme, WC =      100.0
 initial mixing is a Kerker type mixing with AMIX =  0.4000 and BMIX =      1.0000
 Hartree-type preconditioning will be used
 using additional bands          187
 real space projection scheme for non local part
 use partial core corrections
 calculate Harris-corrections to forces 
   (improved forces if not selfconsistent)
 use gradient corrections 
 use of overlap-Matrix (Vanderbilt PP)
 Methfessel and Paxton  Order N= 1 SIGMA  =   0.10


--------------------------------------------------------------------------------------------------------


  energy-cutoff  :      550.00
  volume of cell :     2399.65
      direct lattice vectors                 reciprocal lattice vectors
    11.222700119  0.000000000  0.000000000     0.089105116 -0.051444863  0.000000000
     5.611350060  9.719143402  0.000000000     0.000000000  0.102889726  0.000000000
     0.000000000  0.000000000 22.000000000     0.000000000  0.000000000  0.045454545

  length of vectors
    11.222700119 11.222700119 22.000000000     0.102889726  0.102889726  0.045454545


 
 k-points in units of 2pi/SCALE and weight: mesh auto                               
   0.00000000  0.00000000  0.00000000       0.250
   0.04455256 -0.02572243  0.00000000       0.250
   0.00000000  0.05144486  0.00000000       0.250
   0.04455256  0.02572243  0.00000000       0.250
 
 k-points in reciprocal lattice and weights: mesh auto                               
   0.00000000  0.00000000  0.00000000       0.250
   0.50000000  0.00000000  0.00000000       0.250
   0.00000000  0.50000000  0.00000000       0.250
   0.50000000  0.50000000  0.00000000       0.250
 
 position of ions in fractional coordinates (direct lattice) 
   0.78925998  0.87878802  0.30121222
   0.03270259  0.87918048  0.29281978
   0.27595481  0.36227641  0.31085980
   0.87452803  0.96417189  0.39986541
   0.11347695  0.46739997  0.41031125
   0.12514630  0.95929033  0.39950627
   0.87301284  0.45480225  0.41217167
   0.37701318  0.95585584  0.41523770
   0.86441231  0.21135176  0.39649291
   0.12938104  0.21430742  0.41300922
   0.62945289  0.95163036  0.40962071
   0.87531965  0.71431373  0.40848710
   0.37811308  0.20035718  0.41347329
   0.38084327  0.69648099  0.40256170
   0.62040281  0.45628506  0.39873021
   0.11607802  0.70916439  0.40358339
   0.62681720  0.20137626  0.40429930
   0.53828593  0.34754319  0.30086371
   0.52741195  0.11320966  0.30844004
   0.54569241  0.12647739  0.06683304
   0.11791659  0.40792499  0.11908862
   0.05457374  0.14826096  0.31034432
   0.00892895  0.10176852  0.04917651
   0.13783207  0.92691145  0.14197368
   0.37604756  0.44835740  0.40652188
   0.47979716  0.55399880  0.22971747
   0.62713798  0.70737237  0.41347945
   0.95252345  0.75898977  0.20420405
   0.79731901  0.63088403  0.31069021
   0.27421233  0.60849866  0.30376107
   0.18749030  0.26198206  0.22539890
   0.71089206  0.56100734  0.21410215
   0.04247202  0.60866576  0.30471865
   0.78196837  0.88367072  0.08012597
   0.00167860  0.86570870  0.07172203
   0.00649475  0.65686199  0.09367822
   0.62789021  0.23379040  0.14972974
   0.36050112  0.94235243  0.13470415
   0.02367156  0.39570538  0.31624423
   0.01296097  0.32139498  0.04442433
   0.84423970  0.22761319  0.13891977
   0.96744603  0.52048649  0.21885007
   0.30318925  0.09874004  0.31911861
   0.55336689  0.64796514  0.31680171
   0.25085454  0.09128101  0.04878728
   0.52913784  0.61162204  0.04697948
   0.33389242  0.36126594  0.07221963
   0.58147332  0.93651314  0.13694302
   0.67732667  0.80921239  0.22305304
   0.80979447  0.67906481  0.14024348
   0.62937817  0.45366950  0.13325724
   0.32036889  0.87194096  0.31726179
   0.29919813  0.84983568  0.05000644
   0.58103448  0.72612545  0.12392179
   0.22907234  0.01294552  0.22967573
   0.54871865  0.36069037  0.05545242
   0.34411655  0.16690962  0.13164412
   0.17554400  0.68420617  0.14761894
   0.66082635  0.04249037  0.21304482
   0.78516879  0.11592854  0.29690217
   0.53581451  0.87478900  0.31589053
   0.77284397  0.12278263  0.06048458
   0.50030742  0.89844953  0.04455515
   0.19571508  0.50522867  0.21438636
   0.93546177  0.31542046  0.22552712
   0.85824468  0.00195101  0.15611973
   0.72104290  0.31497628  0.22969726
   0.43002289  0.26577701  0.21377066
   0.87703755  0.42955743  0.12878365
   0.09634819  0.18069822  0.13969274
   0.75988870  0.58867799  0.05155611
   0.31527374  0.59151669  0.05925234
   0.38179216  0.70126590  0.13646584
   0.40042658  0.45377032  0.14884727
   0.79153862  0.40082537  0.31361618
   0.78089926  0.35148021  0.04598080
   0.96954404  0.08430315  0.22196820
   0.46486898  0.79463888  0.22533144
   0.24890496  0.78598962  0.23267623
   0.43862206  0.02771317  0.22450195
   0.52798802  0.11396791  0.43844976
 
 position of ions in cartesian coordinates  (Angst):
  13.78881523  8.54106679  6.62666878
   5.30040079  8.54488114  6.44203507
   5.12981781  3.52101637  6.83891552
  15.22487182  9.37092486  8.79703905
   3.89626264  4.54272733  9.02684743
   6.78739321  9.32348026  8.78913801
  12.34961596  4.42028825  9.06777677
   9.59474762  9.29009995  9.13522950
  10.88700891  2.05415809  8.72284412
   2.65455856  2.08288452  9.08620280
  12.40409210  9.24903192  9.01165573
  13.83171432  6.94251760  8.98671616
   5.36772404  1.94730018  9.09641244
   8.18228845  6.76919863  8.85635749
   9.52296988  4.43469994  8.77206466
   5.28207851  6.89247041  8.87883451
   8.16457415  1.95720479  8.89458451
   7.99120805  3.37782207  6.61900172
   6.55424518  1.10030096  6.78568086
   6.83385120  1.22925189  1.47032698
   3.61235247  3.96468152  2.61994962
   1.44440888  1.44096951  6.82757507
   0.67126575  0.98910281  1.08188317
   6.74807265  9.00878530  3.12342105
   6.73615930  4.35764984  8.94348133
   8.49330084  5.38439383  5.05378437
  11.00749549  6.87505349  9.09654801
  14.94884239  7.37673046  4.49248916
  12.48818327  6.13165233  6.83518465
   6.49190180  5.91408578  6.68274363
   3.57422044  2.54624125  4.95877580
  11.12613698  5.45251083  4.71024739
   3.89208734  5.91570976  6.70381020
  13.73438227  8.58852246  1.76277137
   4.87663302  8.41394697  1.57788465
   3.75877116  6.38413590  2.06092090
   8.35850333  2.27224245  3.29405432
   9.33366537  9.15885838  2.96349132
   2.48610016  3.84591731  6.95737300
   1.94891684  3.12368389  0.97733531
  10.75186628  2.21220519  3.05623495
  13.77798860  5.05868282  4.81470165
   3.95666700  0.95966865  7.02060946
   9.84622993  6.29766610  6.96963760
   3.32747495  0.88717326  1.07332023
   9.37038068  5.94444230  1.03354859
   5.77436416  3.51119550  1.58883193
  11.78080373  9.10210551  3.01274644
  12.14220806  7.86485128  4.90716692
  12.89855082  6.59992829  3.08535659
   9.60902083  4.40927897  2.93165935
   8.48817002  8.47451927  6.97975946
   8.12653637  8.25967484  1.10014163
  10.59531978  7.05731733  2.72627938
   2.64345207  0.12581940  5.05286608
   8.18206475  3.50560142  1.21995326
   4.79850516  1.62221856  2.89617069
   5.80939796  6.64989784  3.24761674
   7.65468432  0.41297001  4.68698615
   9.46222948  1.12672610  6.53184779
  10.92203289  8.50219970  6.94959171
   9.36237240  1.19334199  1.33066085
  10.65631497  8.73215981  0.98021322
   5.03146660  4.91038993  4.71649990
  12.26834149  3.06561666  4.96159659
   9.64277050  0.01896212  3.43463404
   9.85949038  3.06129963  5.05333976
   6.31738572  2.58312482  4.70295446
  12.25312658  4.17493029  2.83324027
   2.09524784  1.75623189  3.07324021
  11.83128130  5.72144585  1.13423452
   6.85742987  5.74903551  1.30355140
   8.21978744  6.81570388  3.00224843
   7.04013147  4.41025877  3.27463986
  11.13237201  3.89567921  6.89955600
  10.73607676  3.41608656  1.01157751
  11.35395654  0.81935443  4.88330047
   9.67608211  7.72320924  4.95729164
   7.20384860  7.63914586  5.11887697
   5.07803210  0.26934830  4.93904295
   6.56496512  1.10767050  9.64589479
 


--------------------------------------------------------------------------------------------------------


 k-point  1 :   0.0000 0.0000 0.0000  plane waves:   70321
 k-point  2 :   0.5000 0.0000 0.0000  plane waves:   70264
 k-point  3 :   0.0000 0.5000 0.0000  plane waves:   70264
 k-point  4 :   0.5000 0.5000 0.0000  plane waves:   70264

 maximum and minimum number of plane-waves per node :     17611    17530

 maximum number of plane-waves:     70321
 maximum index in each direction: 
   IXMAX=   21   IYMAX=   21   IZMAX=   42
   IXMIN=  -21   IYMIN=  -21   IZMIN=  -42


 real space projection operators:
  total allocation   :      70752.19 KBytes
  max/ min on nodes  :      18090.47      17295.44


 parallel 3D FFT for wavefunctions:
    minimum data exchange during FFTs selected (reduces bandwidth)
 parallel 3D FFT for charge:
    minimum data exchange during FFTs selected (reduces bandwidth)


 total amount of memory used by VASP MPI-rank0   243557. kBytes
=======================================================================

   base      :      30000. kBytes
   nonlr-proj:      33158. kBytes
   fftplans  :      18297. kBytes
   grid      :      51226. kBytes
   one-center:        653. kBytes
   wavefun   :     110223. kBytes
 
     INWAV:  cpu time    0.0001: real time    0.0005
 Broyden mixing: mesh for mixing (old mesh)
   NGX = 43   NGY = 43   NGZ = 85
  (NGX  =180   NGY  =180   NGZ  =336)
  gives a total of 157165 points

 initial charge density was supplied:
 charge density of overlapping atoms calculated
 number of electron     778.0000000 magnetization     206.0000000
 keeping initial charge density in first step


--------------------------------------------------------------------------------------------------------


 Maximum index for non-local projection operator         2137
 Maximum index for augmentation-charges         1121 (set IRDMAX)


--------------------------------------------------------------------------------------------------------


 First call to EWALD:  gamma=   0.132
 Maximum number of real-space cells 4x 4x 2
 Maximum number of reciprocal cells 2x 2x 4

    FEWALD:  cpu time    0.0046: real time    0.0046


--------------------------------------- Iteration      1(   1)  ---------------------------------------


    POTLOK:  cpu time    0.4202: real time    0.4250
    SETDIJ:  cpu time    0.0337: real time    0.0372
     EDDAV:  cpu time   63.4213: real time   63.6329
       DOS:  cpu time    0.0026: real time    0.0031
    --------------------------------------------
      LOOP:  cpu time   63.8778: real time   64.0983

 eigenvalue-minimisations  :  9216
 total energy-change (2. order) : 0.6871624E+04  (-0.3404488E+05)
 number of electron     778.0000000 magnetization     206.0000000
 augmentation part      778.0000000 magnetization     206.0000000

 Free energy of the ion-electron system (eV)
  ---------------------------------------------------
  alpha Z        PSCENC =      1751.32544349
  Ewald energy   TEWEN  =    237217.72567361
  -Hartree energ DENC   =   -307272.08429219
  -exchange      EXHF   =         0.00000000
  -V(xc)+E(xc)   XCENC  =      1334.87064991
  PAW double counting   =     62871.68470781   -64853.88848185
  entropy T*S    EENTRO =         0.00214072
  eigenvalues    EBANDS =      6828.64218864
  atomic energy  EATOM  =     68993.34587830
  Solvation  Ediel_sol  =         0.00000000
  ---------------------------------------------------
  free energy    TOTEN  =      6871.62390844 eV

  energy without entropy =     6871.62176772  energy(sigma->0) =     6871.62319486


--------------------------------------------------------------------------------------------------------




--------------------------------------- Iteration      1(   2)  ---------------------------------------


     EDDAV:  cpu time   63.4710: real time   63.6607
       DOS:  cpu time    0.0026: real time    0.0431
    --------------------------------------------
      LOOP:  cpu time   63.4735: real time   63.7038

 eigenvalue-minimisations  :  9216
 total energy-change (2. order) :-0.6438636E+04  (-0.5814334E+04)
 number of electron     778.0000000 magnetization     206.0000000
 augmentation part      778.0000000 magnetization     206.0000000

 Free energy of the ion-electron system (eV)
  ---------------------------------------------------
  alpha Z        PSCENC =      1751.32544349
  Ewald energy   TEWEN  =    237217.72567361
  -Hartree energ DENC   =   -307272.08429219
  -exchange      EXHF   =         0.00000000
  -V(xc)+E(xc)   XCENC  =      1334.87064991
  PAW double counting   =     62871.68470781   -64853.88848185
  entropy T*S    EENTRO =        -0.00322515
  eigenvalues    EBANDS =       390.01116446
  atomic energy  EATOM  =     68993.34587830
  Solvation  Ediel_sol  =         0.00000000
  ---------------------------------------------------
  free energy    TOTEN  =       432.98751839 eV

  energy without entropy =      432.99074354  energy(sigma->0) =      432.98859344


--------------------------------------------------------------------------------------------------------




--------------------------------------- Iteration      1(   3)  ---------------------------------------


     EDDAV:  cpu time   66.1269: real time   66.3875
       DOS:  cpu time    0.0029: real time    0.0050
    --------------------------------------------
      LOOP:  cpu time   66.1298: real time   66.3925

 eigenvalue-minimisations  :  9756
 total energy-change (2. order) :-0.8801102E+03  (-0.7318214E+03)
 number of electron     778.0000000 magnetization     206.0000000
 augmentation part      778.0000000 magnetization     206.0000000

 Free energy of the ion-electron system (eV)
  ---------------------------------------------------
  alpha Z        PSCENC =      1751.32544349
  Ewald energy   TEWEN  =    237217.72567361
  -Hartree energ DENC   =   -307272.08429219
  -exchange      EXHF   =         0.00000000
  -V(xc)+E(xc)   XCENC  =      1334.87064991
  PAW double counting   =     62871.68470781   -64853.88848185
  entropy T*S    EENTRO =        -0.00217292
  eigenvalues    EBANDS =      -490.10006067
  atomic energy  EATOM  =     68993.34587830
  Solvation  Ediel_sol  =         0.00000000
  ---------------------------------------------------
  free energy    TOTEN  =      -447.12265452 eV

  energy without entropy =     -447.12048160  energy(sigma->0) =     -447.12193021


--------------------------------------------------------------------------------------------------------




--------------------------------------- Iteration      1(   4)  ---------------------------------------


     EDDAV:  cpu time   68.6731: real time   68.8765
       DOS:  cpu time    0.0028: real time    0.0192
    --------------------------------------------
      LOOP:  cpu time   68.6759: real time   68.8957

 eigenvalue-minimisations  : 10224
 total energy-change (2. order) :-0.5686233E+02  (-0.5472729E+02)
 number of electron     778.0000000 magnetization     206.0000000
 augmentation part      778.0000000 magnetization     206.0000000

 Free energy of the ion-electron system (eV)
  ---------------------------------------------------
  alpha Z        PSCENC =      1751.32544349
  Ewald energy   TEWEN  =    237217.72567361
  -Hartree energ DENC   =   -307272.08429219
  -exchange      EXHF   =         0.00000000
  -V(xc)+E(xc)   XCENC  =      1334.87064991
  PAW double counting   =     62871.68470781   -64853.88848185
  entropy T*S    EENTRO =        -0.00477210
  eigenvalues    EBANDS =      -546.95979140
  atomic energy  EATOM  =     68993.34587830
  Solvation  Ediel_sol  =         0.00000000
  ---------------------------------------------------
  free energy    TOTEN  =      -503.98498443 eV

  energy without entropy =     -503.98021232  energy(sigma->0) =     -503.98339372


--------------------------------------------------------------------------------------------------------




--------------------------------------- Iteration      1(   5)  ---------------------------------------


     EDDAV:  cpu time   71.9752: real time   72.2539
       DOS:  cpu time    0.0033: real time    0.0045
    CHARGE:  cpu time    4.4127: real time    4.5102
    MIXING:  cpu time    0.0129: real time    0.0130
    --------------------------------------------
      LOOP:  cpu time   76.4041: real time   76.7815

 eigenvalue-minimisations  : 10872
 total energy-change (2. order) :-0.1106477E+01  (-0.1104508E+01)
 number of electron     778.0000030 magnetization     194.1412772
 augmentation part      338.0899535 magnetization     164.4756877

 Broyden mixing:
  rms(total) = 0.10680E+02    rms(broyden)= 0.10680E+02
  rms(prec ) = 0.11049E+02
  weight for this iteration     100.00

 Free energy of the ion-electron system (eV)
  ---------------------------------------------------
  alpha Z        PSCENC =      1751.32544349
  Ewald energy   TEWEN  =    237217.72567361
  -Hartree energ DENC   =   -307272.08429219
  -exchange      EXHF   =         0.00000000
  -V(xc)+E(xc)   XCENC  =      1334.87064991
  PAW double counting   =     62871.68470781   -64853.88848185
  entropy T*S    EENTRO =        -0.00496622
  eigenvalues    EBANDS =      -548.06607391
  atomic energy  EATOM  =     68993.34587830
  Solvation  Ediel_sol  =         0.00000000
  ---------------------------------------------------
  free energy    TOTEN  =      -505.09146105 eV

  energy without entropy =     -505.08649483  energy(sigma->0) =     -505.08980565


--------------------------------------------------------------------------------------------------------




--------------------------------------- Iteration      1(   6)  ---------------------------------------


    POTLOK:  cpu time    0.4057: real time    0.4077
    SETDIJ:  cpu time    0.0329: real time    0.0331
    EDDIAG:  cpu time   11.8105: real time   11.8440
  RMM-DIIS:  cpu time   40.8405: real time   41.8056
    ORTHCH:  cpu time    1.2599: real time    1.2677
       DOS:  cpu time    0.0026: real time    0.0026
    CHARGE:  cpu time    4.2720: real time    4.2847
    MIXING:  cpu time    0.0115: real time    0.0120
    --------------------------------------------
      LOOP:  cpu time   58.6357: real time   59.6574

 eigenvalue-minimisations  :  9408
 total energy-change (2. order) :-0.2507379E+03  (-0.9960285E+02)
 number of electron     778.0000040 magnetization     190.8253475
 augmentation part      408.7078225 magnetization     162.5142844

 Broyden mixing:
  rms(total) = 0.20825E+02    rms(broyden)= 0.20825E+02
  rms(prec ) = 0.25908E+02
  weight for this iteration     100.00

 eigenvalues of (default mixing * dielectric matrix)
  average eigenvalue GAMMA=   0.1758
  0.1758

 Free energy of the ion-electron system (eV)
  ---------------------------------------------------
  alpha Z        PSCENC =      1751.32544349
  Ewald energy   TEWEN  =    237217.72567361
  -Hartree energ DENC   =   -305988.84061832
  -exchange      EXHF   =         0.00000000
  -V(xc)+E(xc)   XCENC  =      1289.50172559
  PAW double counting   =     67986.57228212   -69738.97025662
  entropy T*S    EENTRO =         0.00322815
  eigenvalues    EBANDS =     -2266.49272131
  atomic energy  EATOM  =     68993.34587830
  Solvation  Ediel_sol  =         0.00000000
  ---------------------------------------------------
  free energy    TOTEN  =      -755.82936499 eV

  energy without entropy =     -755.83259314  energy(sigma->0) =     -755.83044104


--------------------------------------------------------------------------------------------------------




--------------------------------------- Iteration      1(   7)  ---------------------------------------


    POTLOK:  cpu time    0.4039: real time    0.4206
    SETDIJ:  cpu time    0.0328: real time    0.0330
    EDDIAG:  cpu time   11.7961: real time   11.8308
  RMM-DIIS:  cpu time   40.5534: real time   40.6714
    ORTHCH:  cpu time    1.2688: real time    1.2724
       DOS:  cpu time    0.0025: real time    0.0025
    CHARGE:  cpu time    4.3020: real time    4.3139
    MIXING:  cpu time    0.0121: real time    0.0122
    --------------------------------------------
      LOOP:  cpu time   58.3718: real time   58.5568

 eigenvalue-minimisations  :  9238
 total energy-change (2. order) : 0.2392291E+03  (-0.1721533E+02)
 number of electron     778.0000031 magnetization     187.8895518
 augmentation part      372.0630013 magnetization     152.9622243

 Broyden mixing:
  rms(total) = 0.14974E+02    rms(broyden)= 0.14974E+02
  rms(prec ) = 0.18181E+02
  weight for this iteration     100.00

 eigenvalues of (default mixing * dielectric matrix)
  average eigenvalue GAMMA=   0.2163
  0.2163  0.2163

 Free energy of the ion-electron system (eV)
  ---------------------------------------------------
  alpha Z        PSCENC =      1751.32544349
  Ewald energy   TEWEN  =    237217.72567361
  -Hartree energ DENC   =   -306594.14617466
  -exchange      EXHF   =         0.00000000
  -V(xc)+E(xc)   XCENC  =      1306.04946767
  PAW double counting   =     69035.43814835   -70952.80186855
  entropy T*S    EENTRO =        -0.00349755
  eigenvalues    EBANDS =     -1273.53334150
  atomic energy  EATOM  =     68993.34587830
  Solvation  Ediel_sol  =         0.00000000
  ---------------------------------------------------
  free energy    TOTEN  =      -516.60027083 eV

  energy without entropy =     -516.59677328  energy(sigma->0) =     -516.59910498


--------------------------------------------------------------------------------------------------------




--------------------------------------- Iteration      1(   8)  ---------------------------------------


    POTLOK:  cpu time    0.4046: real time    0.4069
    SETDIJ:  cpu time    0.0329: real time    0.0330
    EDDIAG:  cpu time   11.7999: real time   11.8327
  RMM-DIIS:  cpu time   40.6620: real time   40.7748
    ORTHCH:  cpu time    1.2684: real time    1.2728
       DOS:  cpu time    0.0027: real time    0.0027
    CHARGE:  cpu time    4.2906: real time    4.3025
    MIXING:  cpu time    0.0121: real time    0.0124
    --------------------------------------------
      LOOP:  cpu time   58.4731: real time   58.6377

 eigenvalue-minimisations  :  9261
 total energy-change (2. order) : 0.8621242E+02  (-0.1325340E+02)
 number of electron     778.0000041 magnetization     180.8109925
 augmentation part      380.5831132 magnetization     142.4735585

 Broyden mixing:
  rms(total) = 0.11849E+02    rms(broyden)= 0.11849E+02
  rms(prec ) = 0.13850E+02
  weight for this iteration     100.00

 eigenvalues of (default mixing * dielectric matrix)
  average eigenvalue GAMMA=   0.3175
  0.5789  0.2812  0.0923

 Free energy of the ion-electron system (eV)
  ---------------------------------------------------
  alpha Z        PSCENC =      1751.32544349
  Ewald energy   TEWEN  =    237217.72567361
  -Hartree energ DENC   =   -306456.59452570
  -exchange      EXHF   =         0.00000000
  -V(xc)+E(xc)   XCENC  =      1310.59537141
  PAW double counting   =     69747.20708208   -71686.81731046
  entropy T*S    EENTRO =         0.00304281
  eigenvalues    EBANDS =     -1307.17851057
  atomic energy  EATOM  =     68993.34587830
  Solvation  Ediel_sol  =         0.00000000
  ---------------------------------------------------
  free energy    TOTEN  =      -430.38785504 eV

  energy without entropy =     -430.39089785  energy(sigma->0) =     -430.38886931


--------------------------------------------------------------------------------------------------------




--------------------------------------- Iteration      1(   9)  ---------------------------------------


    POTLOK:  cpu time    0.4014: real time    0.4153
    SETDIJ:  cpu time    0.0327: real time    0.0329
    EDDIAG:  cpu time   11.8348: real time   11.8702
  RMM-DIIS:  cpu time   40.5785: real time   40.6969
    ORTHCH:  cpu time    1.2639: real time    1.2676
       DOS:  cpu time    0.0025: real time    0.0026
    CHARGE:  cpu time    4.1995: real time    4.2110
    MIXING:  cpu time    0.0124: real time    0.0125
    --------------------------------------------
      LOOP:  cpu time   58.3258: real time   58.5089

 eigenvalue-minimisations  :  9224
 total energy-change (2. order) :-0.1003224E+03  (-0.1723508E+02)
 number of electron     778.0000029 magnetization     174.6540759
 augmentation part      380.6528934 magnetization     141.4691355

 Broyden mixing:
  rms(total) = 0.16603E+02    rms(broyden)= 0.16602E+02
  rms(prec ) = 0.19065E+02
  weight for this iteration     100.00

 eigenvalues of (default mixing * dielectric matrix)
  average eigenvalue GAMMA=   0.3458
  0.8529  0.3090  0.1107  0.1107

 Free energy of the ion-electron system (eV)
  ---------------------------------------------------
  alpha Z        PSCENC =      1751.32544349
  Ewald energy   TEWEN  =    237217.72567361
  -Hartree energ DENC   =   -306205.97405977
  -exchange      EXHF   =         0.00000000
  -V(xc)+E(xc)   XCENC  =      1328.00227577
  PAW double counting   =     71395.66683250   -73399.35372393
  entropy T*S    EENTRO =         0.01443223
  eigenvalues    EBANDS =     -1611.46297182
  atomic energy  EATOM  =     68993.34587830
  Solvation  Ediel_sol  =         0.00000000
  ---------------------------------------------------
  free energy    TOTEN  =      -530.71021962 eV

  energy without entropy =     -530.72465185  energy(sigma->0) =     -530.71503036


--------------------------------------------------------------------------------------------------------




--------------------------------------- Iteration      1(  10)  ---------------------------------------


    POTLOK:  cpu time    0.4153: real time    0.6528
    SETDIJ:  cpu time    0.0331: real time    0.0332
    EDDIAG:  cpu time   11.8183: real time   11.8596
  RMM-DIIS:  cpu time   40.5931: real time   40.7065
    ORTHCH:  cpu time    1.2682: real time    1.2734
       DOS:  cpu time    0.0024: real time    0.0024
    CHARGE:  cpu time    4.2619: real time    4.2738
    MIXING:  cpu time    0.0125: real time    0.0128
    --------------------------------------------
      LOOP:  cpu time   58.4049: real time   58.8146

 eigenvalue-minimisations  :  9241
 total energy-change (2. order) : 0.1141450E+03  (-0.1245949E+02)
 number of electron     778.0000036 magnetization     169.1690412
 augmentation part      381.5326123 magnetization     126.1468811

 Broyden mixing:
  rms(total) = 0.10521E+02    rms(broyden)= 0.10521E+02
  rms(prec ) = 0.13442E+02
  weight for this iteration     100.00

 eigenvalues of (default mixing * dielectric matrix)
  average eigenvalue GAMMA=   0.3522
  0.9522  0.4254  0.1467  0.1467  0.0902

 Free energy of the ion-electron system (eV)
  ---------------------------------------------------
  alpha Z        PSCENC =      1751.32544349
  Ewald energy   TEWEN  =    237217.72567361
  -Hartree energ DENC   =   -306612.80522726
  -exchange      EXHF   =         0.00000000
  -V(xc)+E(xc)   XCENC  =      1337.28769969
  PAW double counting   =     72714.07348910   -74778.81663302
  entropy T*S    EENTRO =        -0.00085334
  eigenvalues    EBANDS =     -1038.70068521
  atomic energy  EATOM  =     68993.34587830
  Solvation  Ediel_sol  =         0.00000000
  ---------------------------------------------------
  free energy    TOTEN  =      -416.56521465 eV

  energy without entropy =     -416.56436131  energy(sigma->0) =     -416.56493020


--------------------------------------------------------------------------------------------------------




--------------------------------------- Iteration      1(  11)  ---------------------------------------


    POTLOK:  cpu time    0.4057: real time    0.4080
    SETDIJ:  cpu time    0.0327: real time    0.0329
    EDDIAG:  cpu time   11.8176: real time   11.8628
  RMM-DIIS:  cpu time   40.6076: real time   40.7431
    ORTHCH:  cpu time    1.2714: real time    1.2753
       DOS:  cpu time    0.0026: real time    0.0026
    CHARGE:  cpu time    4.2661: real time    4.2783
    MIXING:  cpu time    0.0134: real time    0.0134
    --------------------------------------------
      LOOP:  cpu time   58.4170: real time   58.6164

 eigenvalue-minimisations  :  9264
 total energy-change (2. order) : 0.5914043E+02  (-0.8745982E+01)
 number of electron     778.0000033 magnetization     165.0484773
 augmentation part      373.4508332 magnetization     122.8192196

 Broyden mixing:
  rms(total) = 0.96006E+01    rms(broyden)= 0.96005E+01
  rms(prec ) = 0.10443E+02
  weight for this iteration     100.00

 eigenvalues of (default mixing * dielectric matrix)
  average eigenvalue GAMMA=   0.3547
  1.0735  0.4743  0.1663  0.1663  0.1543  0.0935

 Free energy of the ion-electron system (eV)
  ---------------------------------------------------
  alpha Z        PSCENC =      1751.32544349
  Ewald energy   TEWEN  =    237217.72567361
  -Hartree energ DENC   =   -306830.17942253
  -exchange      EXHF   =         0.00000000
  -V(xc)+E(xc)   XCENC  =      1337.37672731
  PAW double counting   =     73610.73894263   -75711.45908559
  entropy T*S    EENTRO =        -0.00643166
  eigenvalues    EBANDS =      -726.29251131
  atomic energy  EATOM  =     68993.34587830
  Solvation  Ediel_sol  =         0.00000000
  ---------------------------------------------------
  free energy    TOTEN  =      -357.42478574 eV

  energy without entropy =     -357.41835409  energy(sigma->0) =     -357.42264186


--------------------------------------------------------------------------------------------------------




--------------------------------------- Iteration      1(  12)  ---------------------------------------


    POTLOK:  cpu time    0.4112: real time    0.4627
    SETDIJ:  cpu time    0.0328: real time    0.0329
    EDDIAG:  cpu time   11.8290: real time   11.8620
  RMM-DIIS:  cpu time   40.7184: real time   40.8322
    ORTHCH:  cpu time    1.2596: real time    1.2766
       DOS:  cpu time    0.0027: real time    0.0027
    CHARGE:  cpu time    4.2813: real time    4.2941
    MIXING:  cpu time    0.0132: real time    0.0133
    --------------------------------------------
      LOOP:  cpu time   58.5482: real time   58.7766

 eigenvalue-minimisations  :  9268
 total energy-change (2. order) :-0.9573702E+01  (-0.5398485E+01)
 number of electron     778.0000033 magnetization     160.5518548
 augmentation part      372.4226129 magnetization     121.9163158

 Broyden mixing:
  rms(total) = 0.11410E+02    rms(broyden)= 0.11410E+02
  rms(prec ) = 0.12827E+02
  weight for this iteration     100.00

 eigenvalues of (default mixing * dielectric matrix)
  average eigenvalue GAMMA=   0.3543
  1.1960  0.4430  0.3431  0.1455  0.1455  0.0972  0.1101

 Free energy of the ion-electron system (eV)
  ---------------------------------------------------
  alpha Z        PSCENC =      1751.32544349
  Ewald energy   TEWEN  =    237217.72567361
  -Hartree energ DENC   =   -306809.59844877
  -exchange      EXHF   =         0.00000000
  -V(xc)+E(xc)   XCENC  =      1333.55889368
  PAW double counting   =     74119.73254569   -76233.24305974
  entropy T*S    EENTRO =        -0.00262818
  eigenvalues    EBANDS =      -739.84278592
  atomic energy  EATOM  =     68993.34587830
  Solvation  Ediel_sol  =         0.00000000
  ---------------------------------------------------
  free energy    TOTEN  =      -366.99848783 eV

  energy without entropy =     -366.99585966  energy(sigma->0) =     -366.99761177


--------------------------------------------------------------------------------------------------------




--------------------------------------- Iteration      1(  13)  ---------------------------------------


    POTLOK:  cpu time    0.4057: real time    0.4077
    SETDIJ:  cpu time    0.0329: real time    0.0331
    EDDIAG:  cpu time   11.7821: real time   11.8517
  RMM-DIIS:  cpu time   40.7696: real time   40.8822
    ORTHCH:  cpu time    1.2727: real time    1.2765
       DOS:  cpu time    0.0026: real time    0.0026
    CHARGE:  cpu time    4.2807: real time    4.2928
    MIXING:  cpu time    0.0139: real time    0.0139
    --------------------------------------------
      LOOP:  cpu time   58.5603: real time   58.7606

 eigenvalue-minimisations  :  9267
 total energy-change (2. order) : 0.1509317E+01  (-0.3784627E+01)
 number of electron     778.0000030 magnetization     155.9537054
 augmentation part      372.7664114 magnetization     117.3253518

 Broyden mixing:
  rms(total) = 0.10008E+02    rms(broyden)= 0.10008E+02
  rms(prec ) = 0.11147E+02
  weight for this iteration     100.00

 eigenvalues of (default mixing * dielectric matrix)
  average eigenvalue GAMMA=   0.3554
  1.2922  0.4702  0.4702  0.1490  0.1490  0.1299  0.0961  0.0868

 Free energy of the ion-electron system (eV)
  ---------------------------------------------------
  alpha Z        PSCENC =      1751.32544349
  Ewald energy   TEWEN  =    237217.72567361
  -Hartree energ DENC   =   -306911.83119291
  -exchange      EXHF   =         0.00000000
  -V(xc)+E(xc)   XCENC  =      1329.28731379
  PAW double counting   =     74648.76943515   -76772.17976781
  entropy T*S    EENTRO =         0.00020560
  eigenvalues    EBANDS =      -621.93216013
  atomic energy  EATOM  =     68993.34587830
  Solvation  Ediel_sol  =         0.00000000
  ---------------------------------------------------
  free energy    TOTEN  =      -365.48917092 eV

  energy without entropy =     -365.48937651  energy(sigma->0) =     -365.48923945


--------------------------------------------------------------------------------------------------------




--------------------------------------- Iteration      1(  14)  ---------------------------------------


    POTLOK:  cpu time    0.4060: real time    0.4084
    SETDIJ:  cpu time    0.0327: real time    0.0328
    EDDIAG:  cpu time   11.9179: real time   11.9510
  RMM-DIIS:  cpu time   40.6741: real time   40.8737
    ORTHCH:  cpu time    1.2707: real time    1.2742
       DOS:  cpu time    0.0027: real time    0.0027
    CHARGE:  cpu time    4.2797: real time    4.2919
    MIXING:  cpu time    0.0141: real time    0.0142
    --------------------------------------------
      LOOP:  cpu time   58.5980: real time   58.8489

 eigenvalue-minimisations  :  9263
 total energy-change (2. order) : 0.2747047E+02  (-0.2821725E+01)
 number of electron     778.0000034 magnetization     153.5196222
 augmentation part      371.4793629 magnetization     112.9980705

 Broyden mixing:
  rms(total) = 0.62609E+01    rms(broyden)= 0.62608E+01
  rms(prec ) = 0.67547E+01
  weight for this iteration     100.00

 eigenvalues of (default mixing * dielectric matrix)
  average eigenvalue GAMMA=   0.3394
  1.2996  0.5057  0.5057  0.1630  0.1630  0.1209  0.1209  0.0881  0.0881

 Free energy of the ion-electron system (eV)
  ---------------------------------------------------
  alpha Z        PSCENC =      1751.32544349
  Ewald energy   TEWEN  =    237217.72567361
  -Hartree energ DENC   =   -306979.94021044
  -exchange      EXHF   =         0.00000000
  -V(xc)+E(xc)   XCENC  =      1328.15953443
  PAW double counting   =     75161.16566621   -77294.29750259
  entropy T*S    EENTRO =        -0.00899971
  eigenvalues    EBANDS =      -515.49418189
  atomic energy  EATOM  =     68993.34587830
  Solvation  Ediel_sol  =         0.00000000
  ---------------------------------------------------
  free energy    TOTEN  =      -338.01869860 eV

  energy without entropy =     -338.00969889  energy(sigma->0) =     -338.01569870


--------------------------------------------------------------------------------------------------------




--------------------------------------- Iteration      1(  15)  ---------------------------------------


    POTLOK:  cpu time    0.4059: real time    0.4091
    SETDIJ:  cpu time    0.0324: real time    0.0324
    EDDIAG:  cpu time   11.7769: real time   11.8180
  RMM-DIIS:  cpu time   40.7172: real time   40.8304
    ORTHCH:  cpu time    1.2689: real time    1.2724
       DOS:  cpu time    0.0025: real time    0.0026
    CHARGE:  cpu time    4.2487: real time    4.2606
    MIXING:  cpu time    0.0141: real time    0.0142
    --------------------------------------------
      LOOP:  cpu time   58.4666: real time   58.6396

 eigenvalue-minimisations  :  9264
 total energy-change (2. order) : 0.3267514E+01  (-0.1123976E+01)
 number of electron     778.0000035 magnetization     150.7225889
 augmentation part      371.1273194 magnetization     111.6480860

 Broyden mixing:
  rms(total) = 0.51908E+01    rms(broyden)= 0.51907E+01
  rms(prec ) = 0.55795E+01
  weight for this iteration     100.00

 eigenvalues of (default mixing * dielectric matrix)
  average eigenvalue GAMMA=   0.3431
  1.3237  0.5763  0.5763  0.2066  0.2066  0.1320  0.1320  0.0987  0.0987  0.0803

 Free energy of the ion-electron system (eV)
  ---------------------------------------------------
[...]
   -.389E+02 0.169E+02 -.270E+04   0.396E+02 -.163E+02 0.270E+04   -.634E+00 -.557E+00 0.171E+01   -.115E-01 -.153E-01 0.190E-01
   -.648E+02 -.351E+02 -.283E+04   0.641E+02 0.357E+02 0.283E+04   0.759E+00 -.559E+00 0.246E+01   0.774E-02 -.275E-01 0.375E-01
   0.101E+03 0.111E+02 -.270E+04   -.100E+03 -.119E+02 0.270E+04   -.497E+00 0.850E+00 0.203E+01   -.121E-02 0.869E-02 0.326E-01
   0.134E+02 0.353E+01 -.291E+04   -.133E+02 -.445E+01 0.291E+04   -.945E-01 0.861E+00 0.277E+01   0.360E-03 0.204E-01 0.103E-01
   0.496E+02 0.467E+01 -.297E+04   -.502E+02 -.443E+01 0.296E+04   0.591E+00 -.207E+00 0.348E+01   0.396E-01 -.163E-01 -.339E-02
   0.202E+02 0.743E+02 -.272E+04   -.210E+02 -.738E+02 0.272E+04   0.777E+00 -.579E+00 0.194E+01   0.765E-02 -.167E-02 0.262E-01
   0.591E+02 0.161E+02 -.288E+04   -.582E+02 -.156E+02 0.288E+04   -.925E+00 -.489E+00 0.268E+01   -.118E-01 -.722E-02 0.137E-01
   -.945E+02 -.896E+01 -.283E+04   0.942E+02 0.770E+01 0.283E+04   0.346E+00 0.129E+01 0.121E+01   -.243E-01 -.232E-01 -.262E-01
   -.637E+02 -.346E+02 -.278E+04   0.639E+02 0.345E+02 0.278E+04   -.243E+00 0.627E-01 0.187E+01   -.217E-01 0.172E-01 -.524E-02
   -.377E+02 -.687E+02 -.285E+04   0.371E+02 0.684E+02 0.285E+04   0.649E+00 0.265E+00 0.134E+01   -.715E-02 -.427E-02 -.139E-01
   0.110E+03 0.538E+02 -.275E+04   -.109E+03 -.538E+02 0.275E+04   -.694E+00 0.170E-01 0.242E+01   0.508E-01 0.168E-01 0.314E-01
   0.827E+02 0.373E+02 -.274E+04   -.823E+02 -.365E+02 0.273E+04   -.457E+00 -.792E+00 0.206E+01   -.478E-02 0.188E-01 0.817E-02
   -.292E+02 -.348E+02 -.270E+04   0.287E+02 0.344E+02 0.269E+04   0.512E+00 0.392E+00 0.172E+01   0.901E-02 0.230E-01 0.474E-01
   -.377E+02 -.253E+02 -.276E+04   0.386E+02 0.254E+02 0.276E+04   -.783E+00 -.700E-01 0.133E+01   -.231E-01 -.198E-01 -.549E-02
   0.472E+02 -.563E+02 -.133E+04   -.460E+02 0.552E+02 0.133E+04   -.109E+01 0.107E+01 0.198E+01   -.109E-01 -.650E-02 0.341E-01
   -.109E+03 -.831E+02 -.150E+04   0.108E+03 0.826E+02 0.150E+04   0.121E+01 0.484E+00 0.256E+01   -.385E-01 -.320E-01 0.206E-01
   0.596E+02 0.540E+02 0.278E+04   -.589E+02 -.537E+02 -.278E+04   -.657E+00 -.429E+00 -.194E+01   -.493E-01 0.244E-01 0.771E-02
   -.119E+03 -.144E+03 0.197E+04   0.119E+03 0.144E+03 -.197E+04   -.149E+00 -.380E+00 0.134E+01   0.656E-01 -.295E-01 -.631E-02
   0.749E+02 0.681E+02 -.154E+04   -.742E+02 -.676E+02 0.153E+04   -.825E+00 -.468E+00 0.170E+01   0.276E-01 -.129E-01 0.133E-01
   0.782E+01 0.189E+03 0.297E+04   -.753E+01 -.187E+03 -.296E+04   -.200E+00 -.165E+01 -.202E+01   0.174E-01 -.290E-01 -.752E-03
   0.158E+03 0.252E+02 0.147E+04   -.158E+03 -.261E+02 -.147E+04   -.785E+00 0.947E+00 -.375E+00   0.133E-01 0.188E-01 0.940E-02
   -.216E+02 -.297E+02 -.275E+04   0.216E+02 0.297E+02 0.275E+04   -.702E-01 0.924E-01 0.195E+01   0.156E-01 -.263E-02 0.162E-01
   0.109E+03 0.919E+02 -.231E+03   -.109E+03 -.916E+02 0.231E+03   0.474E-01 -.382E+00 0.171E+00   0.211E-01 0.147E-01 0.320E-01
   -.691E+01 0.447E+02 -.292E+04   0.694E+01 -.443E+02 0.292E+04   -.479E-01 -.417E+00 0.273E+01   -.727E-02 0.222E-01 -.212E-01
   -.443E+02 -.458E+02 0.332E+03   0.441E+02 0.446E+02 -.332E+03   0.138E+00 0.122E+01 -.354E-01   -.829E-02 0.157E-01 -.433E-02
   -.860E+02 -.538E+02 -.144E+04   0.865E+02 0.532E+02 0.144E+04   -.418E+00 0.679E+00 0.204E+01   -.342E-01 0.389E-01 0.532E-01
   0.125E+02 0.702E+01 -.133E+04   -.132E+02 -.650E+01 0.133E+04   0.750E+00 -.468E+00 0.197E+01   0.291E-01 0.194E-02 0.193E-01
   -.676E+02 -.100E+03 -.266E+02   0.673E+02 0.996E+02 0.263E+02   0.368E+00 0.515E+00 0.269E+00   0.222E-01 -.442E-01 -.565E-02
   -.219E+02 -.290E+02 0.127E+03   0.224E+02 0.290E+02 -.128E+03   -.504E+00 -.703E-01 0.824E+00   -.208E-01 0.279E-01 0.372E-01
   -.671E+02 -.123E+03 -.121E+04   0.671E+02 0.122E+03 0.121E+04   0.739E-01 0.835E+00 0.667E+00   -.153E-01 0.137E-01 0.257E-01
   -.200E+01 0.110E+03 0.236E+04   0.330E+01 -.109E+03 -.236E+04   -.113E+01 -.360E+00 -.153E+01   -.126E-01 0.660E-02 -.260E-02
   0.794E+01 0.138E+03 0.248E+04   -.906E+01 -.137E+03 -.248E+04   0.106E+01 -.770E+00 -.242E+01   -.695E-02 -.675E-02 -.521E-02
   -.735E+01 0.874E+02 0.223E+04   0.722E+01 -.858E+02 -.223E+04   0.668E-01 -.136E+01 -.215E+01   0.113E-01 -.675E-02 -.878E-02
   0.127E+03 0.699E+02 0.108E+04   -.127E+03 -.700E+02 -.108E+04   -.277E+00 0.127E-01 0.324E-01   -.403E-01 -.446E-02 -.486E-03
   0.488E+02 -.607E+02 0.143E+04   -.483E+02 0.606E+02 -.143E+04   -.516E+00 0.203E-01 -.342E+00   0.264E-01 0.407E-01 0.223E-01
   -.715E+02 0.120E+02 -.140E+04   0.713E+02 -.117E+02 0.140E+04   0.175E+00 -.325E+00 0.317E+00   -.472E-02 -.162E-01 0.246E-01
   -.256E+03 -.128E+03 0.278E+04   0.255E+03 0.126E+03 -.277E+04   0.151E+01 0.153E+01 -.399E+01   0.417E-01 -.218E-01 0.405E-02
   -.163E+02 0.991E+02 0.132E+04   0.159E+02 -.989E+02 -.132E+04   0.424E+00 -.260E+00 -.680E+00   0.260E-02 -.148E-01 0.142E-01
   -.985E+02 -.862E+02 0.137E+03   0.985E+02 0.864E+02 -.137E+03   0.247E-01 -.180E+00 -.322E+00   -.703E-02 -.987E-02 -.436E-03
   0.102E+02 -.133E+03 -.147E+04   -.104E+02 0.132E+03 0.147E+04   0.113E+00 0.559E+00 0.342E+00   0.306E-01 -.129E-01 -.717E-02
   0.825E+02 0.132E+03 -.141E+04   -.825E+02 -.131E+03 0.141E+04   -.567E-01 -.618E+00 -.680E+00   0.145E-01 0.237E-01 0.151E-01
   -.799E+02 -.138E+03 0.273E+04   0.781E+02 0.137E+03 -.272E+04   0.156E+01 0.163E+01 -.329E+01   0.407E-01 0.604E-02 0.113E-01
   0.167E+02 -.253E+02 0.276E+04   -.173E+02 0.254E+02 -.276E+04   0.397E+00 -.130E+00 -.330E+01   -.291E-02 0.456E-02 -.116E-01
   0.228E+03 -.395E+02 0.247E+04   -.226E+03 0.393E+02 -.247E+04   -.130E+01 0.243E+00 -.200E+01   -.136E-01 -.230E-01 -.139E-02
   -.186E+03 -.304E+02 0.146E+04   0.186E+03 0.305E+02 -.146E+04   0.265E+00 -.109E-01 0.203E+00   -.225E-01 0.323E-01 0.768E-02
   -.192E+03 0.574E+02 0.655E+01   0.192E+03 -.571E+02 -.616E+01   0.348E+00 -.407E+00 -.492E+00   -.358E-01 0.277E-01 0.353E-01
   -.188E+03 -.408E+02 0.139E+04   0.188E+03 0.413E+02 -.139E+04   -.895E-01 -.443E+00 0.493E+00   0.139E-02 0.147E-01 -.209E-04
   0.268E+02 -.679E+02 0.135E+04   -.267E+02 0.676E+02 -.135E+04   -.594E-01 0.499E+00 -.398E-01   -.166E-01 0.972E-02 0.155E-01
   0.193E+03 0.441E+02 -.147E+04   -.193E+03 -.442E+02 0.147E+04   -.715E+00 0.111E+00 -.382E-01   0.522E-01 -.128E-03 0.556E-02
   0.180E+03 0.551E+01 0.274E+04   -.178E+03 -.564E+01 -.273E+04   -.187E+01 0.105E+00 -.327E+01   0.145E-01 0.250E-01 -.592E-02
   -.976E+02 0.350E+02 0.159E+04   0.977E+02 -.347E+02 -.159E+04   -.184E+00 -.421E+00 0.285E+00   0.135E-02 0.268E-01 0.172E-01
   0.112E+03 -.583E+02 -.100E+03   -.112E+03 0.582E+02 0.100E+03   -.418E+00 0.101E+00 -.142E+00   0.427E-01 0.132E-01 0.248E-02
   0.134E+03 0.312E+02 0.297E+04   -.134E+03 -.307E+02 -.297E+04   -.156E+00 -.299E+00 -.150E+01   -.669E-01 -.732E-02 -.208E-02
   -.534E+02 -.163E+03 0.172E+04   0.534E+02 0.162E+03 -.172E+04   -.745E-01 0.334E+00 0.150E+00   0.974E-02 0.697E-02 -.124E-01
   0.193E+03 -.961E+01 0.134E+04   -.193E+03 0.974E+01 -.134E+04   0.399E+00 -.710E-01 0.498E+00   -.986E-02 -.135E-01 -.124E-01
   -.122E+03 0.259E+02 0.197E+03   0.121E+03 -.258E+02 -.197E+03   0.397E+00 -.650E-01 -.299E+00   -.465E-01 -.118E-02 0.128E-01
   0.722E+01 0.567E+02 -.127E+04   -.720E+01 -.568E+02 0.127E+04   -.606E-03 0.125E+00 0.540E+00   -.229E-01 -.121E-01 0.308E-01
   -.133E+03 0.112E+02 -.161E+04   0.133E+03 -.109E+02 0.161E+04   0.294E+00 -.339E+00 0.518E+00   0.169E-02 0.300E-02 0.219E-01
   0.830E+02 0.199E+03 0.290E+04   -.830E+02 -.199E+03 -.290E+04   -.322E-01 -.547E-01 -.120E+01   -.246E-01 -.151E-01 -.573E-02
   -.194E+03 -.248E+02 0.312E+04   0.192E+03 0.252E+02 -.312E+04   0.214E+01 -.410E+00 -.408E+01   0.584E-02 0.397E-01 0.156E-02
   -.441E+01 -.401E+02 0.205E+03   0.469E+01 0.402E+02 -.205E+03   -.391E+00 -.837E-01 -.307E+00   0.125E-01 -.321E-01 -.238E-01
   -.832E+02 -.111E+02 -.760E+02   0.829E+02 0.107E+02 0.759E+02   0.276E+00 0.448E+00 -.210E-01   0.208E-01 -.111E-01 0.124E-01
   0.320E+02 0.203E+03 0.111E+04   -.323E+02 -.203E+03 -.111E+04   0.291E+00 -.426E+00 -.145E-01   -.115E-01 -.951E-02 0.114E-02
   0.146E+03 0.170E+02 -.218E+03   -.146E+03 -.176E+02 0.218E+03   0.244E+00 0.747E+00 -.494E+00   -.105E-01 0.170E-01 0.125E-01
   -.117E+02 -.921E+02 0.167E+03   0.122E+02 0.920E+02 -.166E+03   -.455E+00 -.432E-01 -.297E+00   -.263E-01 -.296E-01 -.778E-02
   -.170E+03 -.110E+03 0.165E+04   0.170E+03 0.110E+03 -.165E+04   0.267E-01 -.182E+00 -.318E+00   0.998E-02 0.924E-02 0.317E-01
   -.706E+02 0.671E+01 0.148E+04   0.709E+02 -.661E+01 -.148E+04   -.239E+00 -.128E+00 -.699E+00   0.499E-01 -.289E-01 0.187E-01
   -.272E+03 -.156E+03 0.302E+04   0.270E+03 0.155E+03 -.302E+04   0.224E+01 0.136E+01 -.366E+01   0.172E-02 0.318E-01 -.955E-02
   0.296E+03 -.677E+02 0.296E+04   -.294E+03 0.670E+02 -.296E+04   -.219E+01 0.771E+00 -.282E+01   -.302E-01 -.441E-01 -.631E-02
   0.873E+02 0.279E+02 0.151E+04   -.874E+02 -.282E+02 -.151E+04   0.111E+00 0.199E+00 0.224E-01   0.107E-01 0.972E-03 0.215E-01
   0.140E+03 0.131E+02 0.120E+04   -.140E+03 -.130E+02 -.119E+04   0.113E+00 0.229E-02 -.334E+00   -.364E-01 -.343E-01 -.261E-01
   0.894E+02 0.229E+02 -.156E+04   -.893E+02 -.229E+02 0.156E+04   -.181E+00 -.708E-01 -.290E+00   -.807E-02 0.299E-01 0.314E-01
   -.711E+00 -.992E+01 0.308E+04   0.725E+00 0.104E+02 -.308E+04   -.715E-01 -.406E+00 -.173E+01   -.240E-01 0.175E-02 -.103E-01
   0.647E+02 0.177E+03 -.519E+02   -.652E+02 -.177E+03 0.526E+02   0.436E+00 0.236E+00 -.822E+00   0.271E-01 -.934E-02 0.580E-02
   0.546E+01 0.957E+02 -.279E+02   -.571E+01 -.951E+02 0.278E+02   0.256E+00 -.684E+00 -.153E+00   0.269E-01 0.212E-01 0.422E-01
   0.229E+03 0.514E+02 -.243E+03   -.229E+03 -.511E+02 0.243E+03   0.363E+00 -.359E+00 -.555E+00   0.302E-01 0.907E-02 0.107E-01
   -.649E+02 -.119E+03 -.110E+02   0.651E+02 0.119E+03 0.108E+02   -.129E+00 0.278E+00 0.203E+00   -.101E-01 -.467E-03 0.213E-01
   -.864E+01 -.288E+01 -.327E+03   0.886E+01 0.285E+01 0.328E+03   -.185E+00 0.520E-01 -.133E+01   0.125E-02 -.238E-02 -.146E-02
 -----------------------------------------------------------------------------------------------
   -.206E+01 -.149E+01 -.794E+01   0.622E-13 -.379E-12 -.205E-11   0.203E+01 0.152E+01 0.715E+01   0.825E-02 0.283E-01 0.770E+00
 
 
 POSITION                                       TOTAL-FORCE (eV/Angst)
 -----------------------------------------------------------------------------------
     13.77482      8.54821      6.63477         0.030875     -0.010571      0.005494
      5.28675      8.54877      6.41677         0.021268     -0.003605     -0.008665
      5.12874      3.50238      6.84344        -0.001481      0.010545     -0.021587
     15.27563      9.35234      8.77831        -0.012863      0.006787      0.012085
      3.90195      4.52309      9.02955        -0.014748      0.013830     -0.006887
      6.78457      9.24060      8.73820         0.013577     -0.010474      0.002834
     12.35051      4.43316      9.06988        -0.012569     -0.014617     -0.005508
      9.53227      9.25251      9.13601         0.003461      0.003814     -0.018715
     10.89209      2.06890      8.73483         0.010455     -0.019765     -0.006105
      2.59940      2.06957      9.09429         0.006475     -0.004975     -0.007402
     12.39647      9.21347      9.04840        -0.006247      0.007217     -0.008109
     13.84979      6.93086      8.97790        -0.011801     -0.008609      0.002499
      5.29440      1.97662      9.13789         0.006632     -0.007147     -0.003776
      8.12290      6.79629      8.80706        -0.004312      0.006409     -0.016165
      9.50984      4.45038      8.78308        -0.000529      0.012956      0.003834
      5.31653      6.90162      8.81215        -0.007913      0.018963      0.008304
      8.20401      1.95821      8.93411         0.011453      0.014854     -0.007918
      7.99057      3.36322      6.61917        -0.015812     -0.015762      0.011121
      6.55015      1.09527      6.80893        -0.021463      0.022799     -0.024651
      6.83385      1.22925      1.47033        -0.005732      0.032482      0.008231
      3.61235      3.96468      2.61995        -0.005578      0.005531     -0.002191
      1.43006      1.43344      6.82904         0.002702     -0.015895     -0.021344
      0.67127      0.98910      1.08188        -0.018169     -0.021356     -0.002832
      6.74807      9.00879      3.12342        -0.026442      0.009972     -0.023690
      6.73781      4.39531      8.92064         0.011137      0.025631      0.018332
      8.49330      5.38439      5.05378         0.006944     -0.005809      0.010010
     10.99546      6.86868      9.09510        -0.011028      0.001731      0.006643
     14.94884      7.37673      4.49249         0.014766     -0.029236      0.003666
     12.47896      6.13476      6.83293         0.018919      0.014814      0.023772
      6.47708      5.89216      6.64276         0.002614      0.011489     -0.000920
      3.57422      2.54624      4.95878         0.007758     -0.020635     -0.022641
     11.12614      5.45251      4.71025         0.002693     -0.002025     -0.017031
      3.87738      5.90293      6.71318         0.030922      0.001468     -0.019230
     13.73438      8.58852      1.76277        -0.001799     -0.026449     -0.041332
      4.87663      8.41395      1.57788         0.006078      0.013088      0.020363
      3.75877      6.38414      2.06092         0.020099      0.001364      0.012102
      8.35850      2.27224      3.29405        -0.007692      0.002392      0.014846
      9.33367      9.15886      2.96349         0.018698      0.002800      0.027283
      2.47655      3.84349      6.95655        -0.003883      0.004694      0.005094
      1.94892      3.12368      0.97734        -0.007700      0.009789      0.010047
     10.75187      2.21221      3.05623         0.001929      0.007965      0.000179
     13.77799      5.05868      4.81470        -0.014511      0.005127     -0.008036
      3.94976      0.95770      7.02298         0.017640     -0.013918      0.005309
      9.82766      6.29365      6.97540         0.000913      0.011160     -0.004538
      3.32747      0.88717      1.07332        -0.004354     -0.002807     -0.008100
      9.37038      5.94444      1.03355         0.026163      0.004514     -0.039385
      5.77436      3.51120      1.58883         0.007797      0.006137      0.007312
     11.78080      9.10211      3.01275        -0.010558     -0.001865      0.026434
     12.14221      7.86485      4.90717        -0.021702     -0.008828     -0.005207
     12.89855      6.59993      3.08536        -0.002012     -0.005287      0.021953
      9.60902      4.40928      2.93166        -0.007259     -0.017994      0.002422
      8.50480      8.47763      6.95955        -0.007852     -0.024240     -0.013292
      8.12654      8.25967      1.10014        -0.020987      0.013497     -0.004998
     10.59532      7.05732      2.72628         0.004521     -0.001012      0.004287
      2.64345      0.12582      5.05287         0.007962     -0.003964     -0.011870
      8.18206      3.50560      1.21995        -0.012208     -0.027420      0.007677
      4.79851      1.62222      2.89617        -0.007053     -0.002934      0.020987
      5.80940      6.64990      3.24762        -0.018740     -0.003536     -0.015214
      7.65468      0.41297      4.68699        -0.048302      0.031578      0.087259
      9.45827      1.13253      6.52763        -0.001004     -0.008655     -0.000837
     10.92841      8.49428      6.95526        -0.007094      0.002075      0.009220
      9.36237      1.19334      1.33066         0.027177      0.004816     -0.005843
     10.65631      8.73216      0.98021        -0.008181     -0.007833     -0.006849
      5.03147      4.91039      4.71650        -0.029504      0.017527     -0.048362
     12.26834      3.06562      4.96160        -0.009931      0.026149     -0.020769
      9.64277      0.01896      3.43463         0.014359     -0.000855      0.018310
      9.85949      3.06130      5.05334        -0.000804      0.006160      0.013226
      6.31739      2.58312      4.70295        -0.000040     -0.053771      0.041071
     12.25313      4.17493      2.83324        -0.000995     -0.005524     -0.004995
      2.09525      1.75623      3.07324         0.001608      0.004554      0.010373
     11.83128      5.72145      1.13423         0.027549      0.004336     -0.000791
      6.85743      5.74904      1.30355        -0.002607     -0.001819      0.005094
      8.21979      6.81570      3.00225         0.007081      0.007332     -0.000795
      7.04013      4.41026      3.27464        -0.000513     -0.006421      0.002885
     11.12213      3.90177      6.90320        -0.000560     -0.008294      0.009679
     10.73608      3.41609      1.01158         0.006836     -0.012201      0.004155
     11.35396      0.81935      4.88330        -0.011024     -0.008496     -0.038403
      9.67608      7.72321      4.95729         0.009863     -0.015133     -0.013412
      7.20385      7.63915      5.11888        -0.011836      0.019437     -0.006339
      5.07803      0.26935      4.93904         0.021668      0.013415      0.052047
      6.76998      1.18612      9.86105         0.026796      0.018541     -0.011708
 -----------------------------------------------------------------------------------
    total drift:                               -0.027273      0.056542     -0.018477


--------------------------------------------------------------------------------------------------------



  FREE ENERGIE OF THE ION-ELECTRON SYSTEM (eV)
  ---------------------------------------------------
  free  energy   TOTEN  =      -503.49779116 eV

  energy  without entropy=     -503.53307899  energy(sigma->0) =     -503.50955377
 
 d Force = 0.1929552E-02[ 0.492E-03, 0.337E-02]  d Energy = 0.1823962E-02 0.106E-03
 d Force = 0.2950963E+01[ 0.291E+01, 0.299E+01]  d Ewald  = 0.2950961E+01 0.232E-05


--------------------------------------------------------------------------------------------------------


    POTLOK:  cpu time    0.4359: real time    0.4377


--------------------------------------------------------------------------------------------------------


 Conjugate gradient step on ions:
 trial-energy change:   -0.001824  1 .order   -0.001930   -0.003367   -0.000492
  (g-gl).g = 0.218E-02      g.g   = 0.191E-02  gl.gl    = 0.285E-02
 g(Force)  = 0.191E-02   g(Stress)= 0.000E+00 ortho     =-0.348E-03
 gamma     =   0.76345
 trial     =   2.04758
 opt step  =   2.52906  (harmonic =   2.39801) maximal distance =0.01818381
 next E    =  -503.497848   (d E  =  -0.00188)


--------------------------------------------------------------------------------------------------------


  
 reached required accuracy - stopping structural energy minimisation
     LOOP+:  cpu time  817.4399: real time  820.2957
    4ORBIT:  cpu time    0.0000: real time    0.0000

 total amount of memory used by VASP MPI-rank0   243557. kBytes
=======================================================================

   base      :      30000. kBytes
   nonlr-proj:      33158. kBytes
   fftplans  :      18297. kBytes
   grid      :      51226. kBytes
   one-center:        653. kBytes
   wavefun   :     110223. kBytes
 
  
  
 General timing and accounting informations for this job:
 ========================================================
  
                  Total CPU time used (sec):    16735.650
                            User time (sec):    16270.494
                          System time (sec):      465.157
                         Elapsed time (sec):    16812.386
  
                   Maximum memory used (kb):      436060.
                   Average memory used (kb):           0.
  
                          Minor page faults:      4003689
                          Major page faults:          264
                 Voluntary context switches:        10037
