 vasp.5.4.4.18Apr17-6-g9f103f2a35 (build Oct 25 2019 11:13:22) complex          
  
 executed on             LinuxIFC date 2021.10.15  17:23:21
 running on   48 total cores
 distrk:  each k-point on   48 cores,    1 groups
 distr:  one band on NCORES_PER_BAND=   4 cores,   12 groups


--------------------------------------------------------------------------------------------------------


 INCAR:
 POTCAR:    PAW_PBE Pt 04Feb2005                  
 POTCAR:    PAW_PBE Fe 06Sep2000                  
 POTCAR:    PAW_PBE Co 02Aug2007                  
 POTCAR:    PAW_PBE Cu 22Jun2005                  
 POTCAR:    PAW_PBE Ni 02Aug2007                  
 POTCAR:    PAW_PBE H 15Jun2001                   
 POTCAR:    PAW_PBE Pt 04Feb2005                  
   VRHFIN =Pt: s1d9                                                             
   LEXCH  = PE                                                                  
   EATOM  =   729.1176 eV,   53.5886 Ry                                         
                                                                                
   TITEL  = PAW_PBE Pt 04Feb2005                                                
   LULTRA =        F    use ultrasoft PP ?                                      
   IUNSCR =        1    unscreen: 0-lin 1-nonlin 2-no                           
   RPACOR =    2.330    partial core radius                                     
   POMASS =  195.080; ZVAL   =   10.000    mass and valenz                      
   RCORE  =    2.600    outmost cutoff radius                                   
   RWIGS  =    2.750; RWIGS  =    1.455    wigner-seitz radius (au A)           
   ENMAX  =  230.283; ENMIN  =  172.712 eV                                      
   ICORE  =        3    local potential                                         
   LCOR   =        T    correct aug charges                                     
   LPAW   =        T    paw PP                                                  
   EAUG   =  358.966                                                            
   DEXC   =    0.000                                                            
   RMAX   =    2.658    core radius for proj-oper                               
   RAUG   =    1.300    factor for augmentation sphere                          
   RDEP   =    2.761    radius for radial grids                                 
   RDEPT  =    2.203    core radius for aug-charge                              
                                                                                
   Atomic configuration                                                         
   16 entries                                                                   
     n  l   j            E        occ.                                          
     1  0  0.50    -78401.1885   2.0000                                         
     2  0  0.50    -13770.7750   2.0000                                         
     2  1  1.50    -11931.0468   6.0000                                         
     3  0  0.50     -3234.7234   2.0000                                         
     3  1  1.50     -2699.2216   6.0000                                         
     3  2  2.50     -2119.5714  10.0000                                         
     4  0  0.50      -695.1528   2.0000                                         
     4  1  1.50      -519.6034   6.0000                                         
     4  2  2.50      -306.6786  10.0000                                         
     4  3  3.50       -70.1041  14.0000                                         
     5  0  0.50      -101.7747   2.0000                                         
     5  1  1.50       -55.9873   6.0000                                         
     5  2  2.50        -6.1423   9.0000                                         
     6  0  0.50        -5.6573   1.0000                                         
     6  1  1.50        -6.8029   0.0000                                         
     5  3  2.50        -1.3606   0.0000                                         
   Description                                                                  
     l       E           TYP  RCUT    TYP  RCUT                                 
     2     -6.1423404     23  2.500                                             
     2     -7.5029230     23  2.500                                             
     0     -5.6573207     23  2.500                                             
     0      0.7416693     23  2.500                                             
     1     -2.7211652     23  2.600                                             
     1     20.4087390     23  2.600                                             
     3     -1.3605826     23  2.500                                             
  local pseudopotential read in
  partial core-charges read in
  partial kinetic energy density read in
  atomic valenz-charges read in
  non local Contribution for L=           2  read in
    real space projection operators read in
  non local Contribution for L=           2  read in
    real space projection operators read in
  non local Contribution for L=           0  read in
    real space projection operators read in
  non local Contribution for L=           0  read in
    real space projection operators read in
  non local Contribution for L=           1  read in
    real space projection operators read in
  non local Contribution for L=           1  read in
    real space projection operators read in
    PAW grid and wavefunctions read in
 
   number of l-projection  operators is LMAX  =           6
   number of lm-projection operators is LMMAX =          18
 
 POTCAR:    PAW_PBE Fe 06Sep2000                  
   VRHFIN =Fe:  d7 s1                                                           
   LEXCH  = PE                                                                  
   EATOM  =   594.3153 eV,   43.6809 Ry                                         
                                                                                
   TITEL  = PAW_PBE Fe 06Sep2000                                                
   LULTRA =        F    use ultrasoft PP ?                                      
   IUNSCR =        1    unscreen: 0-lin 1-nonlin 2-no                           
   RPACOR =    2.000    partial core radius                                     
   POMASS =   55.847; ZVAL   =    8.000    mass and valenz                      
   RCORE  =    2.300    outmost cutoff radius                                   
   RWIGS  =    2.460; RWIGS  =    1.302    wigner-seitz radius (au A)           
   ENMAX  =  267.882; ENMIN  =  200.911 eV                                      
   RCLOC  =    1.701    cutoff for local pot                                    
   LCOR   =        T    correct aug charges                                     
   LPAW   =        T    paw PP                                                  
   EAUG   =  511.368                                                            
   DEXC   =    0.000                                                            
   RMAX   =    2.356    core radius for proj-oper                               
   RAUG   =    1.300    factor for augmentation sphere                          
   RDEP   =    2.442    radius for radial grids                                 
   RDEPT  =    1.890    core radius for aug-charge                              
                                                                                
   Atomic configuration                                                         
    9 entries                                                                   
     n  l   j            E        occ.                                          
     1  0  0.50     -6993.8440   2.0000                                         
     2  0  0.50      -814.6047   2.0000                                         
     2  1  1.50      -693.3689   6.0000                                         
     3  0  0.50       -89.4732   2.0000                                         
     3  1  1.50       -55.6373   6.0000                                         
     3  2  2.50        -3.8151   7.0000                                         
     4  0  0.50        -4.2551   1.0000                                         
     4  1  1.50        -3.4015   0.0000                                         
     4  3  2.50        -1.3606   0.0000                                         
   Description                                                                  
     l       E           TYP  RCUT    TYP  RCUT                                 
     2     -3.8151135     23  2.300                                             
     2     -5.1756961     23  2.300                                             
     0     -4.2550963     23  2.300                                             
     0      7.2035603     23  2.300                                             
     1     -2.7211652     23  2.300                                             
     1     18.4316424     23  2.300                                             
  local pseudopotential read in
  partial core-charges read in
  partial kinetic energy density read in
  atomic valenz-charges read in
  non local Contribution for L=           2  read in
    real space projection operators read in
  non local Contribution for L=           2  read in
    real space projection operators read in
  non local Contribution for L=           0  read in
    real space projection operators read in
  non local Contribution for L=           0  read in
    real space projection operators read in
  non local Contribution for L=           1  read in
    real space projection operators read in
  non local Contribution for L=           1  read in
    real space projection operators read in
    PAW grid and wavefunctions read in
 
   number of l-projection  operators is LMAX  =           6
   number of lm-projection operators is LMMAX =          18
 
 POTCAR:    PAW_PBE Co 02Aug2007                  
   VRHFIN =Co: d8 s1                                                            
   LEXCH  = PE                                                                  
   EATOM  =   813.3670 eV,   59.7808 Ry                                         
                                                                                
   TITEL  = PAW_PBE Co 02Aug2007                                                
   LULTRA =        F    use ultrasoft PP ?                                      
   IUNSCR =        1    unscreen: 0-lin 1-nonlin 2-no                           
   RPACOR =    2.000    partial core radius                                     
   POMASS =   58.933; ZVAL   =    9.000    mass and valenz                      
   RCORE  =    2.300    outmost cutoff radius                                   
   RWIGS  =    2.460; RWIGS  =    1.302    wigner-seitz radius (au A)           
   ENMAX  =  267.968; ENMIN  =  200.976 eV                                      
   RCLOC  =    1.203    cutoff for local pot                                    
   LCOR   =        T    correct aug charges                                     
   LPAW   =        T    paw PP                                                  
   EAUG   =  477.818                                                            
   DEXC   =    0.000                                                            
   RMAX   =    2.360    core radius for proj-oper                               
   RAUG   =    1.300    factor for augmentation sphere                          
   RDEP   =    2.393    radius for radial grids                                 
   RDEPT  =    1.864    core radius for aug-charge                              
                                                                                
   Atomic configuration                                                         
    9 entries                                                                   
     n  l   j            E        occ.                                          
     1  0  0.50     -7587.6674   2.0000                                         
     2  0  0.50      -893.6084   2.0000                                         
     2  1  1.50      -764.5805   6.0000                                         
     3  0  0.50       -97.5973   2.0000                                         
     3  1  1.50       -60.9648   6.0000                                         
     3  2  2.50        -4.2382   8.0000                                         
     4  0  0.50        -4.3746   1.0000                                         
     4  1  1.50        -4.0817   0.0000                                         
     4  3  2.50        -1.3606   0.0000                                         
   Description                                                                  
     l       E           TYP  RCUT    TYP  RCUT                                 
     2     -4.2382362     23  2.300                                             
     2     -5.5988188     23  2.300                                             
     0     -4.3745797     23  2.300                                             
     0      5.7660125     23  2.300                                             
     1     -2.7211652     23  2.300                                             
     1     16.9860234     23  2.300                                             
  local pseudopotential read in
  partial core-charges read in
  partial kinetic energy density read in
  atomic valenz-charges read in
  non local Contribution for L=           2  read in
    real space projection operators read in
  non local Contribution for L=           2  read in
    real space projection operators read in
  non local Contribution for L=           0  read in
    real space projection operators read in
  non local Contribution for L=           0  read in
    real space projection operators read in
  non local Contribution for L=           1  read in
    real space projection operators read in
  non local Contribution for L=           1  read in
    real space projection operators read in
    PAW grid and wavefunctions read in
 
   number of l-projection  operators is LMAX  =           6
   number of lm-projection operators is LMMAX =          18
 
 POTCAR:    PAW_PBE Cu 22Jun2005                  
   VRHFIN =Cu: d10 p1                                                           
   LEXCH  = PE                                                                  
   EATOM  =  1390.9808 eV,  102.2342 Ry                                         
                                                                                
   TITEL  = PAW_PBE Cu 22Jun2005                                                
   LULTRA =        F    use ultrasoft PP ?                                      
   IUNSCR =        1    unscreen: 0-lin 1-nonlin 2-no                           
   RPACOR =    2.000    partial core radius                                     
   POMASS =   63.546; ZVAL   =   11.000    mass and valenz                      
   RCORE  =    2.300    outmost cutoff radius                                   
   RWIGS  =    2.200; RWIGS  =    1.164    wigner-seitz radius (au A)           
   ENMAX  =  295.446; ENMIN  =  221.585 eV                                      
   ICORE  =        3    local potential                                         
   LCOR   =        T    correct aug charges                                     
   LPAW   =        T    paw PP                                                  
   EAUG   =  586.980                                                            
   DEXC   =    0.000                                                            
   RMAX   =    2.344    core radius for proj-oper                               
   RAUG   =    1.300    factor for augmentation sphere                          
   RDEP   =    2.302    radius for radial grids                                 
   RDEPT  =    1.771    core radius for aug-charge                              
                                                                                
   Atomic configuration                                                         
    9 entries                                                                   
     n  l   j            E        occ.                                          
     1  0  0.50     -8850.2468   2.0000                                         
     2  0  0.50     -1062.3498   2.0000                                         
     2  1  1.50      -916.8226   6.0000                                         
     3  0  0.50      -114.6929   2.0000                                         
     3  1  1.50       -72.1325   6.0000                                         
     3  2  2.50        -5.0394  10.0000                                         
     4  0  0.50        -4.6097   1.0000                                         
     4  1  0.50        -4.0817   0.0000                                         
     4  3  2.50        -1.3606   0.0000                                         
   Description                                                                  
     l       E           TYP  RCUT    TYP  RCUT                                 
     2     -5.0393973     23  2.200                                             
     2     10.8846608     23  2.200                                             
     0     -4.6097109     23  2.200                                             
     0      8.2520465     23  2.200                                             
     1     -2.7211652     23  2.200                                             
     1     21.7055443     23  2.200                                             
     3      2.7211652     23  2.300                                             
  local pseudopotential read in
  partial core-charges read in
  partial kinetic energy density read in
  atomic valenz-charges read in
  non local Contribution for L=           2  read in
    real space projection operators read in
  non local Contribution for L=           2  read in
    real space projection operators read in
  non local Contribution for L=           0  read in
    real space projection operators read in
  non local Contribution for L=           0  read in
    real space projection operators read in
  non local Contribution for L=           1  read in
    real space projection operators read in
  non local Contribution for L=           1  read in
    real space projection operators read in
    PAW grid and wavefunctions read in
 
   number of l-projection  operators is LMAX  =           6
   number of lm-projection operators is LMMAX =          18
 
 POTCAR:    PAW_PBE Ni 02Aug2007                  
   VRHFIN =Ni:                                                                  
   LEXCH  = PE                                                                  
   EATOM  =  1077.6739 eV,   79.2068 Ry                                         
                                                                                
   TITEL  = PAW_PBE Ni 02Aug2007                                                
   LULTRA =        F    use ultrasoft PP ?                                      
   IUNSCR =        1    unscreen: 0-lin 1-nonlin 2-no                           
   RPACOR =    2.000    partial core radius                                     
   POMASS =   58.690; ZVAL   =   10.000    mass and valenz                      
   RCORE  =    2.300    outmost cutoff radius                                   
   RWIGS  =    2.430; RWIGS  =    1.286    wigner-seitz radius (au A)           
   ENMAX  =  269.532; ENMIN  =  202.149 eV                                      
   RCLOC  =    1.201    cutoff for local pot                                    
   LCOR   =        T    correct aug charges                                     
   LPAW   =        T    paw PP                                                  
   EAUG   =  544.565                                                            
   DEXC   =    0.000                                                            
   RMAX   =    2.357    core radius for proj-oper                               
   RAUG   =    1.300    factor for augmentation sphere                          
   RDEP   =    2.390    radius for radial grids                                 
   RDEPT  =    1.838    core radius for aug-charge                              
                                                                                
   Atomic configuration                                                         
    9 entries                                                                   
     n  l   j            E        occ.                                          
     1  0  0.50     -8206.4253   2.0000                                         
     2  0  0.50      -976.1748   2.0000                                         
     2  1  1.50      -839.0571   6.0000                                         
     3  0  0.50      -105.9991   2.0000                                         
     3  1  1.50       -66.4603   6.0000                                         
     3  2  2.50        -4.6458   9.0000                                         
     4  0  0.50        -4.4926   1.0000                                         
     4  1  1.50        -4.0817   0.0000                                         
     4  3  2.50        -1.3606   0.0000                                         
   Description                                                                  
     l       E           TYP  RCUT    TYP  RCUT                                 
     2     -4.6457903     23  2.300                                             
     2     -6.0063729     23  2.300                                             
     0     -4.4925590     23  2.300                                             
     0      5.0102601     23  2.300                                             
     1     -2.7211652     23  2.300                                             
     1     16.5183231     23  2.300                                             
  local pseudopotential read in
  partial core-charges read in
  partial kinetic energy density read in
  atomic valenz-charges read in
  non local Contribution for L=           2  read in
    real space projection operators read in
  non local Contribution for L=           2  read in
    real space projection operators read in
  non local Contribution for L=           0  read in
    real space projection operators read in
  non local Contribution for L=           0  read in
    real space projection operators read in
  non local Contribution for L=           1  read in
    real space projection operators read in
  non local Contribution for L=           1  read in
    real space projection operators read in
    PAW grid and wavefunctions read in
 
   number of l-projection  operators is LMAX  =           6
   number of lm-projection operators is LMMAX =          18
 
 POTCAR:    PAW_PBE H 15Jun2001                   
   VRHFIN =H: ultrasoft test                                                    
   LEXCH  = PE                                                                  
   EATOM  =    12.4884 eV,    0.9179 Ry                                         
                                                                                
   TITEL  = PAW_PBE H 15Jun2001                                                 
   LULTRA =        F    use ultrasoft PP ?                                      
   IUNSCR =        0    unscreen: 0-lin 1-nonlin 2-no                           
   RPACOR =    0.000    partial core radius                                     
   POMASS =    1.000; ZVAL   =    1.000    mass and valenz                      
   RCORE  =    1.100    outmost cutoff radius                                   
   RWIGS  =    0.700; RWIGS  =    0.370    wigner-seitz radius (au A)           
   ENMAX  =  250.000; ENMIN  =  200.000 eV                                      
   RCLOC  =    0.701    cutoff for local pot                                    
   LCOR   =        T    correct aug charges                                     
   LPAW   =        T    paw PP                                                  
   EAUG   =  400.000                                                            
   RMAX   =    1.123    core radius for proj-oper                               
   RAUG   =    1.200    factor for augmentation sphere                          
   RDEP   =    1.112    radius for radial grids                                 
   RDEPT  =    0.926    core radius for aug-charge                              
                                                                                
   Atomic configuration                                                         
    2 entries                                                                   
     n  l   j            E        occ.                                          
     1  0  0.50        -6.4927   1.0000                                         
     2  1  0.50        -3.4015   0.0000                                         
   Description                                                                  
     l       E           TYP  RCUT    TYP  RCUT                                 
     0     -6.4927494     23  1.100                                             
     0      6.8029130     23  1.100                                             
     1     -4.0817478     23  1.100                                             
  local pseudopotential read in
  atomic valenz-charges read in
  non local Contribution for L=           0  read in
    real space projection operators read in
  non local Contribution for L=           0  read in
    real space projection operators read in
  non local Contribution for L=           1  read in
    real space projection operators read in
    PAW grid and wavefunctions read in
 
   number of l-projection  operators is LMAX  =           3
   number of lm-projection operators is LMMAX =           5
 
 Optimization of the real space projectors (new method)

 maximal supplied QI-value         = 14.36
 optimisation between [QCUT,QGAM] = [ 11.92, 23.98] = [ 39.79,161.09] Ry 
 Optimized for a Real-space Cutoff    1.49 Angstroem

   l    n(q)    QCUT    max X(q) W(low)/X(q) W(high)/X(q)  e(spline) 
   2     10    11.920    66.195    0.79E-04    0.18E-03    0.24E-06
   2     10    11.920    64.643    0.81E-04    0.19E-03    0.24E-06
   0     11    11.920    95.520    0.28E-04    0.54E-04    0.18E-06
   0     11    11.920    63.403    0.27E-04    0.52E-04    0.17E-06
   1     10    11.920    19.961    0.18E-04    0.11E-03    0.23E-06
   1     10    11.920    13.289    0.25E-04    0.87E-04    0.19E-06
 Optimization of the real space projectors (new method)

 maximal supplied QI-value         = 16.25
 optimisation between [QCUT,QGAM] = [ 11.86, 23.89] = [ 39.41,159.82] Ry 
 Optimized for a Real-space Cutoff    1.49 Angstroem

   l    n(q)    QCUT    max X(q) W(low)/X(q) W(high)/X(q)  e(spline) 
   2     10    11.864    80.901    0.13E-03    0.23E-03    0.37E-06
   2     10    11.864    75.754    0.13E-03    0.23E-03    0.38E-06
   0     11    11.864    58.752    0.44E-04    0.11E-04    0.20E-06
   0     11    11.864    30.679    0.36E-04    0.10E-04    0.18E-06
   1     10    11.864    17.977    0.31E-04    0.45E-04    0.10E-06
   1     10    11.864    13.559    0.25E-04    0.37E-04    0.89E-07
 Optimization of the real space projectors (new method)

 maximal supplied QI-value         = 16.25
 optimisation between [QCUT,QGAM] = [ 11.86, 23.89] = [ 39.41,159.82] Ry 
 Optimized for a Real-space Cutoff    1.33 Angstroem

   l    n(q)    QCUT    max X(q) W(low)/X(q) W(high)/X(q)  e(spline) 
   2      9    11.864    65.824    0.22E-03    0.53E-03    0.26E-06
   2      9    11.864    61.429    0.22E-03    0.53E-03    0.26E-06
   0      9    11.864    56.174    0.21E-03    0.32E-04    0.15E-06
   0      9    11.864    31.263    0.19E-03    0.30E-04    0.14E-06
   1      9    11.864    19.828    0.63E-04    0.30E-03    0.16E-06
   1      9    11.864    15.139    0.49E-04    0.25E-03    0.13E-06
 Optimization of the real space projectors (new method)

 maximal supplied QI-value         = 16.25
 optimisation between [QCUT,QGAM] = [ 11.86, 23.89] = [ 39.41,159.82] Ry 
 Optimized for a Real-space Cutoff    1.49 Angstroem

   l    n(q)    QCUT    max X(q) W(low)/X(q) W(high)/X(q)  e(spline) 
   2     10    11.864     4.610    0.10E-03    0.20E-03    0.29E-06
   2     10    11.864     8.522    0.17E-03    0.33E-03    0.50E-06
   0     11    11.864    51.609    0.52E-04    0.55E-04    0.33E-06
   0     11    11.864    27.747    0.46E-04    0.52E-04    0.31E-06
   1     10    11.864    20.408    0.54E-04    0.25E-04    0.21E-06
   1     10    11.864    13.425    0.48E-04    0.22E-04    0.18E-06
 Optimization of the real space projectors (new method)

 maximal supplied QI-value         = 16.25
 optimisation between [QCUT,QGAM] = [ 11.86, 23.89] = [ 39.41,159.82] Ry 
 Optimized for a Real-space Cutoff    1.33 Angstroem

   l    n(q)    QCUT    max X(q) W(low)/X(q) W(high)/X(q)  e(spline) 
   2      9    11.864    60.317    0.21E-03    0.51E-03    0.25E-06
   2      9    11.864    55.921    0.21E-03    0.51E-03    0.26E-06
   0      9    11.864    51.690    0.22E-03    0.30E-04    0.17E-06
   0      9    11.864    30.015    0.20E-03    0.28E-04    0.15E-06
   1      9    11.864    18.849    0.76E-04    0.33E-03    0.17E-06
   1      9    11.864    14.624    0.60E-04    0.28E-03    0.15E-06
 Optimization of the real space projectors (new method)

 maximal supplied QI-value         = 34.20
 optimisation between [QCUT,QGAM] = [ 11.97, 23.94] = [ 40.13,160.53] Ry 
 Optimized for a Real-space Cutoff    1.18 Angstroem

   l    n(q)    QCUT    max X(q) W(low)/X(q) W(high)/X(q)  e(spline) 
   0      8    11.971    19.460    0.15E-03    0.31E-03    0.25E-06
   0      8    11.971    12.209    0.13E-03    0.29E-03    0.25E-06
   1      8    11.971     4.655    0.22E-03    0.24E-03    0.21E-06
  PAW_PBE Pt 04Feb2005                  :
 energy of atom  1       EATOM= -729.1176
 kinetic energy error for atom=    0.0021 (will be added to EATOM!!)
  PAW_PBE Fe 06Sep2000                  :
 energy of atom  2       EATOM= -594.3153
 kinetic energy error for atom=    0.0024 (will be added to EATOM!!)
  PAW_PBE Co 02Aug2007                  :
 energy of atom  3       EATOM= -813.3670
 kinetic energy error for atom=    0.0026 (will be added to EATOM!!)
  PAW_PBE Cu 22Jun2005                  :
 energy of atom  4       EATOM=-1390.9808
 kinetic energy error for atom=    0.0036 (will be added to EATOM!!)
  PAW_PBE Ni 02Aug2007                  :
 energy of atom  5       EATOM=-1077.6739
 kinetic energy error for atom=    0.0027 (will be added to EATOM!!)
  PAW_PBE H 15Jun2001                   :
 energy of atom  6       EATOM=  -12.4884
 kinetic energy error for atom=    0.0008 (will be added to EATOM!!)
 
 
 POSCAR: 10.86                                   
  positions in direct lattice
  velocities in cartesian coordinates
 exchange correlation table for  LEXCH =        8
   RHO(1)=    0.500       N(1)  =     2000
   RHO(2)=  100.500       N(2)  =     4000
 


--------------------------------------------------------------------------------------------------------


 ion  position               nearest neighbor table
   1  0.786  0.880  0.315-  49 2.61  28 2.62  59 2.63  19 2.70  61 2.72  33 2.73  60 2.74  11 2.74
                            29 2.74   2 2.80   4 2.81  12 2.83
   2  0.043  0.882  0.314-  79 2.56  77 2.60  28 2.68  60 2.70  30 2.70  33 2.73  52 2.73  22 2.76
                             6 2.79   1 2.80   4 2.86  16 2.92
   3  0.279  0.381  0.317-  64 2.56  39 2.64  31 2.64  33 2.67  68 2.69   5 2.76  19 2.77  13 2.78
                            30 2.78  43 2.79  25 2.81  18 2.89
   4  0.870  0.965  0.421-  17 2.67  11 2.70   9 2.72  12 2.76   6 2.77  60 2.78  16 2.79   1 2.81
                             2 2.86
   5  0.119  0.464  0.422-  16 2.67  12 2.68   7 2.68  39 2.68  33 2.70  10 2.70  25 2.75   3 2.76
                            13 2.78
   6  0.126  0.964  0.419-   8 2.67  10 2.71  14 2.74   9 2.74  52 2.76   4 2.77   2 2.79  16 2.79
                            22 2.83
   7  0.875  0.458  0.422-  81 1.74  39 2.66   9 2.68   5 2.68  15 2.68  10 2.70  75 2.71  12 2.72
                            27 2.75  29 2.76
   8  0.374  0.960  0.416-  43 2.58  52 2.66   6 2.67  14 2.68  27 2.69  61 2.70  13 2.70  10 2.72
                            11 2.72
   9  0.871  0.214  0.416-  81 1.86  75 2.65   7 2.68  15 2.68  60 2.69  17 2.70   4 2.72   6 2.74
                            10 2.76  22 2.79
  10  0.126  0.213  0.418-  81 1.94  39 2.65  13 2.68   5 2.70   7 2.70  43 2.70   6 2.71   8 2.72
                            22 2.75   9 2.76
  11  0.624  0.960  0.419-   4 2.70  13 2.70  12 2.70  27 2.71  17 2.72   8 2.72   1 2.74  61 2.78
                            19 2.81
  12  0.872  0.710  0.421-   5 2.68  33 2.68  11 2.70  27 2.71   7 2.72  16 2.74  29 2.75   4 2.76
                             1 2.83
  13  0.375  0.208  0.419-  10 2.68   8 2.70  11 2.70  43 2.72  17 2.72  25 2.74   5 2.78   3 2.78
                            19 2.78
  14  0.378  0.711  0.418-  27 2.65  44 2.65   8 2.68  52 2.70  15 2.70   6 2.74  25 2.74  30 2.75
                            16 2.76
  15  0.626  0.462  0.418-  44 2.66   9 2.68  75 2.68   7 2.68  27 2.69  14 2.70  18 2.74  17 2.74
                            25 2.74
  16  0.127  0.707  0.423-   5 2.67  33 2.68  25 2.68  12 2.74  14 2.76   6 2.79   4 2.79  30 2.81
                             2 2.92
  17  0.624  0.211  0.417-   4 2.67   9 2.70  25 2.72  11 2.72  13 2.72  18 2.73  15 2.74  60 2.74
                            19 2.83
  18  0.547  0.377  0.315-  67 2.55  68 2.63  26 2.67  60 2.68  75 2.69  44 2.70  17 2.73  15 2.74
                            30 2.79  19 2.81  25 2.83   3 2.89
  19  0.534  0.125  0.313-  80 2.54  68 2.57  59 2.59  43 2.62   1 2.70  61 2.72   3 2.77  13 2.78
                            11 2.81  18 2.81  17 2.83  60 2.84
  20  0.548  0.123  0.046-  57 2.55  37 2.56  48 2.57  62 2.70  63 2.72  56 2.74  34 2.77  47 2.78
                            45 2.79
  21  0.119  0.458  0.130-  47 2.52  40 2.52  36 2.52  42 2.59  64 2.63  69 2.66  70 2.71  50 2.71
                            31 2.72  57 2.77  58 2.80  74 2.82
  22  0.045  0.135  0.313-  65 2.53  55 2.55  77 2.56  43 2.65  39 2.66  75 2.72  10 2.75   2 2.76
                            60 2.77   9 2.79  52 2.80   6 2.83  31 3.39
  23  0.041  0.131  0.037-  70 2.56  41 2.60  40 2.63  76 2.66  45 2.69  24 2.69  62 2.70  53 2.82
                            35 2.83
  24  0.131  0.958  0.134-  79 2.51  77 2.55  35 2.56  53 2.57  55 2.59  70 2.67  23 2.69  73 2.70
                            58 2.70  38 2.71  66 2.77  41 2.81
  25  0.374  0.461  0.420-  16 2.68  17 2.72  13 2.74  14 2.74  15 2.74   5 2.75  30 2.80   3 2.81
                            18 2.83
  26  0.456  0.548  0.219-  73 2.51  74 2.54  51 2.56  79 2.65  30 2.66  18 2.67  78 2.71  44 2.72
                            64 2.72  32 2.72  68 2.75  67 2.82
  27  0.622  0.712  0.419-  14 2.65  44 2.68  15 2.69   8 2.69  11 2.71  12 2.71  61 2.73   7 2.75
                            29 2.77
  28  0.955  0.786  0.220-  58 2.56  50 2.57  66 2.58   1 2.62  42 2.64  49 2.66  33 2.68   2 2.68
                            64 2.70  59 2.80  79 2.93  77 2.93
  29  0.795  0.623  0.318-  42 2.54  39 2.60  32 2.63  75 2.64  49 2.66  33 2.72  44 2.74   1 2.74
                            61 2.74  12 2.75   7 2.76  27 2.77
  30  0.290  0.632  0.316-  79 2.55  64 2.59  26 2.66  52 2.67   2 2.70  33 2.70  44 2.71  14 2.75
                             3 2.78  18 2.79  25 2.80  16 2.81
  31  0.200  0.277  0.226-  70 2.50  43 2.57  57 2.59  55 2.60  65 2.61  39 2.64   3 2.64  21 2.72
                            80 2.77  42 2.79  68 2.89  64 2.93  22 3.39
  32  0.705  0.552  0.221-  54 2.54  69 2.56  51 2.59  49 2.62  29 2.63  78 2.66  44 2.67  42 2.68
                            75 2.69  65 2.69  26 2.72  67 2.76
  33  0.040  0.633  0.323-   3 2.67  28 2.68  16 2.68  12 2.68  64 2.69   5 2.70  30 2.70  42 2.71
                            29 2.72   2 2.73  39 2.73   1 2.73
  34  0.796  0.861  0.048-  50 2.37  48 2.49  66 2.51  36 2.61  71 2.62  63 2.66  20 2.77  35 2.86
                            62 2.86
  35  0.057  0.863  0.043-  58 2.52  24 2.56  72 2.57  36 2.58  66 2.62  53 2.74  62 2.83  23 2.83
                            34 2.86
  36  0.046  0.632  0.043-  21 2.52  58 2.57  35 2.58  50 2.60  34 2.61  72 2.67  47 2.71  71 2.78
                            40 2.85
  37  0.628  0.226  0.132-  51 2.50  67 2.50  56 2.50  68 2.55  59 2.56  20 2.56  74 2.57  62 2.59
                            41 2.59  66 2.75  57 2.86  48 3.06
  38  0.382  0.953  0.132-  53 2.44  80 2.47  45 2.47  78 2.53  63 2.54  55 2.56  73 2.58  48 2.60
                            54 2.61  24 2.71  57 2.71  70 2.76
  39  0.035  0.384  0.322-  29 2.60  42 2.62   3 2.64  31 2.64  75 2.65  10 2.65   7 2.66  22 2.66
                             5 2.68  65 2.71  33 2.73  43 2.89
  40  0.027  0.380  0.042-  69 2.41  21 2.52  76 2.55  70 2.56  71 2.56  23 2.63  36 2.85  45 2.88
                            47 2.94
  41  0.872  0.216  0.131-  76 2.44  77 2.50  65 2.53  67 2.53  62 2.56  37 2.59  23 2.60  51 2.63
                            69 2.64  70 2.71  66 2.72  24 2.81
  42  0.955  0.544  0.224-  50 2.54  29 2.54  21 2.59  69 2.60  39 2.62  28 2.64  65 2.67  32 2.68
                            49 2.69  33 2.71  64 2.75  31 2.79
  43  0.298  0.115  0.320-  55 2.52  31 2.57   8 2.58  80 2.62  19 2.62  52 2.63  61 2.63  22 2.65
                            10 2.70  13 2.72   3 2.79  39 2.89
  44  0.541  0.628  0.320-  78 2.62  61 2.65  14 2.65  52 2.65  15 2.66  32 2.67  27 2.68  18 2.70
                            75 2.70  30 2.71  26 2.72  29 2.74
  45  0.295  0.117  0.044-  38 2.47  70 2.47  57 2.57  53 2.58  63 2.67  23 2.69  20 2.79  40 2.88
                            47 2.89
  46  0.552  0.624  0.047-  51 2.40  54 2.41  73 2.41  71 2.63  76 2.68  63 2.70  53 2.71  56 2.73
                            72 2.79
  47  0.296  0.383  0.044-  74 2.37  21 2.52  57 2.61  72 2.64  56 2.64  36 2.71  20 2.78  45 2.89
                            40 2.94
  48  0.625  0.946  0.135-  49 2.39  80 2.48  54 2.49  34 2.49  63 2.54  20 2.57  59 2.57  38 2.60
                            50 2.63  57 2.77  66 2.80  37 3.06
  49  0.707  0.792  0.221-  48 2.39  50 2.47  54 2.49   1 2.61  80 2.62  32 2.62  61 2.63  28 2.66
                            29 2.66  78 2.67  42 2.69  59 2.80
  50  0.864  0.701  0.131-  34 2.37  71 2.39  49 2.47  54 2.50  42 2.54  28 2.57  69 2.60  36 2.60
                            48 2.63  21 2.71  66 2.91
  51  0.628  0.457  0.129-  46 2.40  76 2.45  37 2.50  56 2.52  26 2.56  32 2.59  67 2.62  41 2.63
                            69 2.68  74 2.70  73 2.73  54 2.82
  52  0.298  0.873  0.317-  55 2.43  79 2.51  78 2.53  61 2.61  43 2.63  44 2.65   8 2.66  30 2.67
                            14 2.70   2 2.73   6 2.76  22 2.80
  53  0.303  0.875  0.044-  73 2.42  38 2.44  24 2.57  45 2.58  63 2.62  46 2.71  35 2.74  72 2.75
                            23 2.82
  54  0.626  0.717  0.129-  46 2.41  71 2.48  63 2.49  48 2.49  49 2.49  50 2.50  32 2.54  38 2.61
                            78 2.63  73 2.63  69 2.76  51 2.82
  55  0.228  0.025  0.228-  52 2.43  78 2.50  43 2.52  79 2.53  80 2.54  22 2.55  38 2.56  24 2.59
                            31 2.60  70 2.73  77 2.82
  56  0.541  0.379  0.039-  74 2.49  37 2.50  51 2.52  47 2.64  72 2.69  76 2.73  46 2.73  20 2.74
                            62 2.77
  57  0.376  0.206  0.136-  68 2.47  20 2.55  80 2.56  45 2.57  31 2.59  47 2.61  74 2.71  70 2.71
                            38 2.71  48 2.77  21 2.77  37 2.86
  58  0.139  0.705  0.135-  72 2.44  64 2.48  35 2.52  79 2.55  28 2.56  36 2.57  74 2.69  24 2.70
                            73 2.73  21 2.80
  59  0.704  0.051  0.220-  66 2.51  37 2.56  48 2.57  19 2.59  60 2.61   1 2.63  68 2.67  67 2.68
                            77 2.74  80 2.78  49 2.80  28 2.80
  60  0.793  0.129  0.315-  67 2.52  77 2.56  59 2.61  18 2.68   9 2.69   2 2.70   1 2.74  17 2.74
                            75 2.75  22 2.77   4 2.78  19 2.84
  61  0.539  0.872  0.316-  78 2.48  80 2.51  52 2.61  49 2.63  43 2.63  44 2.65   8 2.70  19 2.72
                             1 2.72  27 2.73  29 2.74  11 2.78
  62  0.796  0.123  0.039-  66 2.51  41 2.56  37 2.59  20 2.70  23 2.70  76 2.72  56 2.77  35 2.83
                            34 2.86
  63  0.544  0.876  0.039-  54 2.49  48 2.54  38 2.54  53 2.62  34 2.66  45 2.67  46 2.70  20 2.72
                            71 2.76
  64  0.208  0.543  0.224-  58 2.48   3 2.56  30 2.59  21 2.63  74 2.65  33 2.69  28 2.70  68 2.70
                            26 2.72  42 2.75  79 2.82  31 2.93
  65  0.949  0.301  0.222-  69 2.51  41 2.53  22 2.53  67 2.57  75 2.59  31 2.61  70 2.62  77 2.63
                            42 2.67  32 2.69  39 2.71
  66  0.873  0.966  0.132-  59 2.51  34 2.51  62 2.51  77 2.56  28 2.58  35 2.62  41 2.72  37 2.75
                            24 2.77  48 2.80  50 2.91
  67  0.717  0.291  0.225-  37 2.50  60 2.52  41 2.53  18 2.55  77 2.57  65 2.57  75 2.60  51 2.62
                            59 2.68  32 2.76  26 2.82
  68  0.457  0.295  0.221-  57 2.47  74 2.51  37 2.55  19 2.57  18 2.63  59 2.67   3 2.69  64 2.70
                            26 2.75  80 2.88  31 2.89
  69  0.875  0.457  0.130-  40 2.41  71 2.45  76 2.46  65 2.51  32 2.56  50 2.60  42 2.60  41 2.64
                            21 2.66  51 2.68  70 2.74  54 2.76
  70  0.127  0.205  0.131-  45 2.47  31 2.50  40 2.56  23 2.56  65 2.62  24 2.67  21 2.71  57 2.71
                            41 2.71  55 2.73  69 2.74  38 2.76
  71  0.796  0.620  0.043-  50 2.39  69 2.45  54 2.48  40 2.56  34 2.62  46 2.63  76 2.68  63 2.76
                            36 2.78
  72  0.294  0.627  0.046-  58 2.44  74 2.45  73 2.50  35 2.57  47 2.64  36 2.67  56 2.69  53 2.75
                            46 2.79
  73  0.385  0.715  0.130-  46 2.41  53 2.42  72 2.50  26 2.51  78 2.56  38 2.58  79 2.61  54 2.63
                            24 2.70  51 2.73  58 2.73  74 2.87
  74  0.382  0.452  0.129-  47 2.37  72 2.45  56 2.49  68 2.51  26 2.54  37 2.57  64 2.65  58 2.69
                            51 2.70  57 2.71  21 2.82  73 2.87
  75  0.793  0.382  0.319-  65 2.59  67 2.60  29 2.64  39 2.65   9 2.65  15 2.68  32 2.69  18 2.69
                            44 2.70   7 2.71  22 2.72  60 2.75
  76  0.795  0.374  0.043-  41 2.44  51 2.45  69 2.46  40 2.55  23 2.66  46 2.68  71 2.68  62 2.72
                            56 2.73
  77  0.955  0.056  0.222-  41 2.50  24 2.55  60 2.56  22 2.56  66 2.56  67 2.57   2 2.60  65 2.63
                            59 2.74  55 2.82  79 2.84  28 2.93
  78  0.460  0.796  0.225-  61 2.48  55 2.50  80 2.53  38 2.53  52 2.53  73 2.56  79 2.61  44 2.62
                            54 2.63  32 2.66  49 2.67  26 2.71
  79  0.218  0.797  0.225-  52 2.51  24 2.51  55 2.53  30 2.55  58 2.55   2 2.56  78 2.61  73 2.61
                            26 2.65  64 2.82  77 2.84  28 2.93
  80  0.461  0.027  0.223-  38 2.47  48 2.48  61 2.51  78 2.53  19 2.54  55 2.54  57 2.56  49 2.62
                            43 2.62  31 2.77  59 2.78  68 2.88
  81  0.949  0.300  0.463-   7 1.74   9 1.86  10 1.94
 
  LATTYP: Found a hexagonal cell.
 ALAT       =    10.8599996567
 C/A-ratio  =     2.0257827528
  
  Lattice vectors:
  
 A1 = (   5.4299998284,  -9.4050355878,   0.0000000000)
 A2 = ( -10.8599996567,   0.0000000000,   0.0000000000)
 A3 = (   0.0000000000,   0.0000000000, -22.0000000000)


Analysis of symmetry for initial positions (statically):
=====================================================================
 Subroutine PRICEL returns:
 Original cell was already a primitive cell.
 

 Routine SETGRP: Setting up the symmetry group for a 
 hexagonal supercell.


 Subroutine GETGRP returns: Found  1 space group operations
 (whereof  1 operations were pure point group operations)
 out of a pool of 24 trial point group operations.


The static configuration has the point symmetry C_1 .


Analysis of symmetry for dynamics (positions and initial velocities):
=====================================================================
 Subroutine PRICEL returns:
 Original cell was already a primitive cell.
 

 Routine SETGRP: Setting up the symmetry group for a 
 hexagonal supercell.


 Subroutine GETGRP returns: Found  1 space group operations
 (whereof  1 operations were pure point group operations)
 out of a pool of 24 trial point group operations.


The dynamic configuration has the point symmetry C_1 .


Analysis of constrained symmetry for selective dynamics:
=====================================================================
 Subroutine PRICEL returns:
 Original cell was already a primitive cell.
 

 Routine SETGRP: Setting up the symmetry group for a 
 hexagonal supercell.


 Subroutine GETGRP returns: Found  1 space group operations
 (whereof  1 operations were pure point group operations)
 out of a pool of 24 trial point group operations.


The constrained configuration has the point symmetry C_1 .


Analysis of structural, dynamic, and magnetic symmetry:
=====================================================================
 Subroutine PRICEL returns:
 Original cell was already a primitive cell.
 

 Routine SETGRP: Setting up the symmetry group for a 
 hexagonal supercell.


 Subroutine GETGRP returns: Found  1 space group operations
 (whereof  1 operations were pure point group operations)
 out of a pool of 24 trial point group operations.


The magnetic configuration has the point symmetry C_1 .


 Subroutine INISYM returns: Found  1 space group operations
 (whereof  1 operations are pure point group operations),
 and found     1 'primitive' translations

 
 
 KPOINTS: mesh auto                               

Automatic generation of k-mesh.
Space group operators:
 irot       det(A)        alpha          n_x          n_y          n_z        tau_x        tau_y        tau_z
    1     1.000000     0.000001     1.000000     0.000000     0.000000     0.000000     0.000000     0.000000
 
 Subroutine IBZKPT returns following result:
 ===========================================
 
 Found      4 irreducible k-points:
 
 Following reciprocal coordinates:
            Coordinates               Weight
  0.000000  0.000000  0.000000      1.000000
  0.500000  0.000000  0.000000      1.000000
  0.000000  0.500000  0.000000      1.000000
  0.500000  0.500000  0.000000      1.000000
 
 Following cartesian coordinates:
            Coordinates               Weight
  0.000000  0.000000  0.000000      1.000000
  0.046041 -0.026582  0.000000      1.000000
  0.000000  0.053163  0.000000      1.000000
  0.046041  0.026582  0.000000      1.000000
 


--------------------------------------------------------------------------------------------------------




 Dimension of arrays:
   k-points           NKPTS =      4   k-points in BZ     NKDIM =      4   number of bands    NBANDS=    588
   number of dos      NEDOS =    301   number of ions     NIONS =     81
   non local maximal  LDIM  =      6   non local SUM 2l+1 LMDIM =     18
   total plane-waves  NPLWV = ******
   max r-space proj   IRMAX =   7380   max aug-charges    IRDMAX=  32147
   dimension x,y,z NGX =    84 NGY =   84 NGZ =  168
   dimension x,y,z NGXF=   168 NGYF=  168 NGZF=  336
   support grid    NGXF=   168 NGYF=  168 NGZF=  336
   ions per type =              32  13  10  13  12   1
   NGX,Y,Z   is equivalent  to a cutoff of  12.86, 12.86, 12.70 a.u.
   NGXF,Y,Z  is equivalent  to a cutoff of  25.72, 25.72, 25.39 a.u.

 SYSTEM =  Pt111                                   
 POSCAR =  10.86                                   

 Startparameter for this run:
   NWRITE =      2    write-flag & timer
   PREC   = accura    normal or accurate (medium, high low for compatibility)
   ISTART =      0    job   : 0-new  1-cont  2-samecut
   ICHARG =      2    charge: 1-file 2-atom 10-const
   ISPIN  =      2    spin polarized calculation?
   LNONCOLLINEAR =      F non collinear calculations
   LSORBIT =      F    spin-orbit coupling
   INIWAV =      1    electr: 0-lowe 1-rand  2-diag
   LASPH  =      F    aspherical Exc in radial PAW
   METAGGA=      F    non-selfconsistent MetaGGA calc.

 Electronic Relaxation 1
   ENCUT  =  550.0 eV  40.42 Ry    6.36 a.u.  20.77 20.77 42.07*2*pi/ulx,y,z
   ENINI  =  550.0     initial cutoff
   ENAUG  =  587.0 eV  augmentation charge cutoff
   NELM   =    200;   NELMIN=  2; NELMDL= -5     # of ELM steps 
   EDIFF  = 0.1E-04   stopping-criterion for ELM
   LREAL  =      T    real-space projection
   NLSPLINE    = F    spline interpolate recip. space projectors
   LCOMPAT=      F    compatible to vasp.4.4
   GGA_COMPAT  = T    GGA compatible to vasp.4.4-vasp.4.6
   LMAXPAW     = -100 max onsite density
   LMAXMIX     =    2 max onsite mixed and CHGCAR
   VOSKOWN=      0    Vosko Wilk Nusair interpolation
   ROPT   =   -0.00025  -0.00025  -0.00025  -0.00025
   ROPT   =   -0.00025  -0.00025
 Ionic relaxation
   EDIFFG = -.5E-01   stopping-criterion for IOM
   NSW    =    300    number of steps for IOM
   NBLOCK =      1;   KBLOCK =    300    inner block; outer block 
   IBRION =      2    ionic relax: 0-MD 1-quasi-New 2-CG
   NFREE  =      1    steps in history (QN), initial steepest desc. (CG)
   ISIF   =      2    stress and relaxation
   IWAVPR =     11    prediction:  0-non 1-charg 2-wave 3-comb
   ISYM   =      2    0-nonsym 1-usesym 2-fastsym
   LCORR  =      T    Harris-Foulkes like correction to forces

   POTIM  = 0.5000    time-step for ionic-motion
   TEIN   =    0.0    initial temperature
   TEBEG  =    0.0;   TEEND  =   0.0 temperature during run
   SMASS  =  -3.00    Nose mass-parameter (am)
   estimated Nose-frequenzy (Omega)   =  0.10E-29 period in steps =****** mass=  -0.270E-26a.u.
   SCALEE = 1.0000    scale energy and forces
   NPACO  =    256;   APACO  = 16.0  distance and # of slots for P.C.
   PSTRESS=    0.0 pullay stress

  Mass of Ions in am
   POMASS = 195.08 55.85 58.93 63.55 58.69  1.00
  Ionic Valenz
   ZVAL   =  10.00  8.00  9.00 11.00 10.00  1.00
  Atomic Wigner-Seitz radii
   RWIGS  =  -1.00 -1.00 -1.00 -1.00 -1.00 -1.00
  virtual crystal weights 
   VCA    =   1.00  1.00  1.00  1.00  1.00  1.00
   NELECT =     778.0000    total number of electrons
   NUPDOWN=      -1.0000    fix difference up-down

 DOS related values:
   EMIN   =  10.00;   EMAX   =-10.00  energy-range for DOS
   EFERMI =   0.00
   ISMEAR =     1;   SIGMA  =   0.10  broadening in eV -4-tet -1-fermi 0-gaus

 Electronic relaxation 2 (details)
   IALGO  =     68    algorithm
   LDIAG  =      T    sub-space diagonalisation (order eigenvalues)
   LSUBROT=      F    optimize rotation matrix (better conditioning)
   TURBO    =      0    0=normal 1=particle mesh
   IRESTART =      0    0=no restart 2=restart with 2 vectors
   NREBOOT  =      0    no. of reboots
   NMIN     =      0    reboot dimension
   EREF     =   0.00    reference energy to select bands
   IMIX   =      4    mixing-type and parameters
     AMIX     =   0.40;   BMIX     =  1.00
     AMIX_MAG =   1.60;   BMIX_MAG =  1.00
     AMIN     =   0.10
     WC   =   100.;   INIMIX=   1;  MIXPRE=   1;  MAXMIX= -45

 Intra band minimization:
   WEIMIN = 0.0010     energy-eigenvalue tresh-hold
   EBREAK =  0.43E-08  absolut break condition
   DEPER  =   0.30     relativ break condition  

   TIME   =   0.40     timestep for ELM

  volume/ion in A,a.u.               =      27.74       187.21
  Fermi-wavevector in a.u.,A,eV,Ry     =   1.149557  2.172347 17.979834  1.321481
  Thomas-Fermi vector in A             =   2.286226
 
 Write flags
   LWAVE        =      F    write WAVECAR
   LDOWNSAMPLE  =      F    k-point downsampling of WAVECAR
   LCHARG       =      F    write CHGCAR
   LVTOT        =      F    write LOCPOT, total local potential
   LVHAR        =      F    write LOCPOT, Hartree potential only
   LELF         =      F    write electronic localiz. function (ELF)
   LORBIT       =      0    0 simple, 1 ext, 2 COOP (PROOUT), +10 PAW based schemes


 Dipole corrections
   LMONO  =      F    monopole corrections only (constant potential shift)
   LDIPOL =      F    correct potential (dipole corrections)
   IDIPOL =      0    1-x, 2-y, 3-z, 4-all directions 
   EPSILON=  1.0000000 bulk dielectric constant

 Exchange correlation treatment:
   GGA     =    --    GGA type
   LEXCH   =     8    internal setting for exchange type
   VOSKOWN=      0    Vosko Wilk Nusair interpolation
   LHFCALC =     F    Hartree Fock is set to
   LHFONE  =     F    Hartree Fock one center treatment
   AEXX    =    0.0000 exact exchange contribution

 Linear response parameters
   LEPSILON=     F    determine dielectric tensor
   LRPA    =     F    only Hartree local field effects (RPA)
   LNABLA  =     F    use nabla operator in PAW spheres
   LVEL    =     F    velocity operator in full k-point grid
   LINTERFAST=   F  fast interpolation
   KINTER  =     0    interpolate to denser k-point grid
   CSHIFT  =0.1000    complex shift for real part using Kramers Kronig
   OMEGAMAX=  -1.0    maximum frequency
   DEG_THRESHOLD= 0.2000000E-02 threshold for treating states as degnerate
   RTIME   =   -0.100 relaxation time in fs
  (WPLASMAI=    0.000 imaginary part of plasma frequency in eV, 0.658/RTIME)
   DFIELD  = 0.0000000 0.0000000 0.0000000 field for delta impulse in time
 
 Orbital magnetization related:
   ORBITALMAG=     F  switch on orbital magnetization
   LCHIMAG   =     F  perturbation theory with respect to B field
   DQ        =  0.001000  dq finite difference perturbation B field
   LLRAUG    =     F  two centre corrections for induced B field



--------------------------------------------------------------------------------------------------------


 conjugate gradient relaxation of ions
   using selective dynamics as specified on POSCAR
 charge density and potential will be updated during run
 spin polarized calculation
 RMM-DIIS sequential band-by-band and
  variant of blocked Davidson during initial phase
 perform sub-space diagonalisation
    before iterative eigenvector-optimisation
 modified Broyden-mixing scheme, WC =      100.0
 initial mixing is a Kerker type mixing with AMIX =  0.4000 and BMIX =      1.0000
 Hartree-type preconditioning will be used
 using additional bands          199
 real space projection scheme for non local part
 use partial core corrections
 calculate Harris-corrections to forces 
   (improved forces if not selfconsistent)
 use gradient corrections 
 use of overlap-Matrix (Vanderbilt PP)
 Methfessel and Paxton  Order N= 1 SIGMA  =   0.10


--------------------------------------------------------------------------------------------------------


  energy-cutoff  :      550.00
  volume of cell :     2247.05
      direct lattice vectors                 reciprocal lattice vectors
    10.859999657  0.000000000  0.000000000     0.092081034 -0.053163010  0.000000000
     5.429999828  9.405035588  0.000000000     0.000000000  0.106326020  0.000000000
     0.000000000  0.000000000 22.000000000     0.000000000  0.000000000  0.045454545

  length of vectors
    10.859999657 10.859999657 22.000000000     0.106326020  0.106326020  0.045454545


 
 k-points in units of 2pi/SCALE and weight: mesh auto                               
   0.00000000  0.00000000  0.00000000       0.250
   0.04604052 -0.02658150  0.00000000       0.250
   0.00000000  0.05316301  0.00000000       0.250
   0.04604052  0.02658150  0.00000000       0.250
 
 k-points in reciprocal lattice and weights: mesh auto                               
   0.00000000  0.00000000  0.00000000       0.250
   0.50000000  0.00000000  0.00000000       0.250
   0.00000000  0.50000000  0.00000000       0.250
   0.50000000  0.50000000  0.00000000       0.250
 
 position of ions in fractional coordinates (direct lattice) 
   0.78590659  0.88020874  0.31524800
   0.04257364  0.88177964  0.31370973
   0.27915875  0.38064670  0.31692810
   0.87019317  0.96469293  0.42059480
   0.11910411  0.46412808  0.42183603
   0.12590040  0.96354724  0.41888153
   0.87497682  0.45849172  0.42177784
   0.37351107  0.96016846  0.41627808
   0.87133592  0.21392693  0.41557518
   0.12593070  0.21269212  0.41782953
   0.62423098  0.96005486  0.41886136
   0.87215243  0.70997132  0.42130498
   0.37466262  0.20841756  0.41949267
   0.37825765  0.71135960  0.41847626
   0.62610267  0.46220814  0.41803141
   0.12654405  0.70651036  0.42340325
   0.62422487  0.21060947  0.41708615
   0.54742151  0.37652352  0.31512903
   0.53351562  0.12532292  0.31279272
   0.54838833  0.12337347  0.04616746
   0.11897632  0.45840873  0.12986490
   0.04519691  0.13481382  0.31292212
   0.04066573  0.13149863  0.03673280
   0.13095494  0.95789127  0.13392649
   0.37415356  0.46077425  0.42048794
   0.45565223  0.54806677  0.21862214
   0.62164913  0.71224100  0.41944012
   0.95463232  0.78624459  0.22047772
   0.79516797  0.62339251  0.31784064
   0.28950236  0.63151888  0.31649645
   0.20027086  0.27704785  0.22602515
   0.70458292  0.55163211  0.22088515
   0.04025146  0.63259584  0.32276453
   0.79551100  0.86095123  0.04803851
   0.05739494  0.86293659  0.04269821
   0.04587539  0.63174243  0.04254194
   0.62839887  0.22641754  0.13184280
   0.38235880  0.95332843  0.13196947
   0.03496334  0.38411755  0.32212798
   0.02680797  0.37973819  0.04163164
   0.87237911  0.21580924  0.13075454
   0.95470242  0.54363827  0.22446703
   0.29778641  0.11532772  0.31966125
   0.54097877  0.62778136  0.32012546
   0.29450499  0.11703562  0.04414884
   0.55196850  0.62406631  0.04671093
   0.29607773  0.38273525  0.04410119
   0.62495157  0.94618873  0.13463855
   0.70730076  0.79195600  0.22069804
   0.86416424  0.70149040  0.13101985
   0.62840973  0.45654274  0.12888101
   0.29795006  0.87334357  0.31736468
   0.30340848  0.87503324  0.04361807
   0.62639551  0.71686996  0.12943899
   0.22824609  0.02519273  0.22797437
   0.54119566  0.37869383  0.03864044
   0.37588607  0.20624082  0.13551792
   0.13910459  0.70498816  0.13510658
   0.70439885  0.05140639  0.22049063
   0.79314448  0.12865017  0.31534633
   0.53912410  0.87242739  0.31621751
   0.79634723  0.12315750  0.03929397
   0.54409452  0.87593854  0.03924591
   0.20790243  0.54310364  0.22378593
   0.94893253  0.30075086  0.22244782
   0.87251125  0.96557984  0.13164478
   0.71714769  0.29144814  0.22456062
   0.45673307  0.29458484  0.22130469
   0.87502942  0.45728685  0.13000961
   0.12698014  0.20542845  0.13067041
   0.79570639  0.62023288  0.04302802
   0.29386926  0.62662746  0.04632212
   0.38503102  0.71488529  0.12987367
   0.38167182  0.45223852  0.12905631
   0.79263017  0.38181100  0.31912704
   0.79479377  0.37390398  0.04303644
   0.95461703  0.05594721  0.22179318
   0.45953371  0.79572721  0.22516979
   0.21814710  0.79732026  0.22492198
   0.46108295  0.02748800  0.22321297
   0.94856031  0.30018954  0.46303984
 
 position of ions in cartesian coordinates  (Angst):
  13.31447860  8.27839457  6.93545601
   5.25041305  8.29316891  6.90161400
   5.09857541  3.57999573  6.97241823
  14.68858001  9.07297136  9.25308569
   3.81368605  4.36514115  9.28039260
   6.59933968  9.06219610  9.21539374
  11.99185797  4.31213095  9.27911242
   9.27004463  9.03041851  9.15811781
  10.62433106  2.01199043  9.14265403
   2.52252555  2.00037700  9.19224965
  11.99224599  9.02935010  9.21494983
  13.32671927  6.67730555  9.26870945
   5.20054319  1.96017455  9.22883871
   7.97056043  6.69036233  9.20647782
   9.30926491  4.34708399  9.19669105
   5.21061952  6.64475508  9.31487152
   7.92269128  1.98078954  9.17589539
   7.98952006  3.54121711  6.93283870
   6.47448293  1.17866656  6.88143981
   6.62541500  1.16033190  1.01568419
   3.78124213  4.31135041  2.85702788
   1.22287740  1.26792875  6.88428671
   1.15566737  1.23674932  0.80812154
   6.62352002  9.00900149  2.94638274
   6.56531168  4.33359822  9.25073475
   7.92438554  5.15458743  4.80968704
  10.61857789  6.69865194  9.22768255
  14.63661464  7.39465836  4.85050991
  12.02054516  5.86302877  6.99249403
   6.57314290  5.93945753  6.96292184
   3.67931125  2.60564485  4.97255331
  10.64713259  5.18811965  4.85947330
   3.87212614  5.94958636  7.10081957
  13.31421424  8.09727694  1.05684727
   5.30905455  8.11594932  0.93936063
   3.92856797  5.94156004  0.93592272
   8.05385868  2.12946499  2.90054150
   9.32898959  8.96608780  2.90332824
   2.46546009  3.61263925  7.08681556
   2.35311289  3.57145122  0.91589603
  10.64588090  2.02969355  2.87659996
  13.32002369  5.11293728  4.93827471
   3.86018984  1.08466134  7.03254748
   9.28388194  5.90430608  7.04276009
   3.83382754  1.10072422  0.97127449
   9.38305771  5.86936583  1.02764050
   5.29365641  3.59963866  0.97022617
  11.92477847  8.89893867  2.96204804
  11.98160699  7.44837437  4.85535685
  13.19391605  6.59754215  2.88243667
   9.30355646  4.29380068  2.83538226
   7.97799297  8.21382733  6.98202303
   8.04644638  8.22971881  0.95959753
  10.69525881  6.74218749  2.84765773
   2.61554891  0.23693848  5.01543608
   7.93369212  3.56162890  0.85008961
   5.20201026  1.93970225  2.98139421
   5.33876141  6.63043871  2.97234485
   7.92890800  0.48347894  4.85079390
   9.31211921  1.20995941  6.93761933
  10.59216817  8.20521066  6.95678528
   9.31707587  1.15830066  0.86446726
  10.66521242  8.23823315  0.86341001
   5.20687297  5.10790903  4.92329037
  11.93848408  2.82857251  4.89385205
  14.71857022  9.08131274  2.89618505
   9.37078710  2.74108017  4.94033374
   6.55971659  2.77058089  4.86870315
  11.98588670  4.30079906  2.86021139
   2.49448074  1.93206192  2.87474900
  12.00923557  5.83331228  0.94661646
   6.59400710  5.89345359  1.01908661
   8.06326377  6.72352161  2.85722084
   6.60061090  4.25331933  2.83923887
  10.68119700  3.59094600  7.02079478
  10.66175863  3.51658022  0.94680163
  10.67093399  0.52618548  4.87945005
   9.31133460  7.48384275  4.95373546
   6.69852636  7.49882547  4.94828364
   5.15662057  0.25852564  4.91068524
  11.93139376  2.82329329 10.18687646
 


--------------------------------------------------------------------------------------------------------


 k-point  1 :   0.0000 0.0000 0.0000  plane waves:   65767
 k-point  2 :   0.5000 0.0000 0.0000  plane waves:   65808
 k-point  3 :   0.0000 0.5000 0.0000  plane waves:   65808
 k-point  4 :   0.5000 0.5000 0.0000  plane waves:   65808

 maximum and minimum number of plane-waves per node :     16481    16415

 maximum number of plane-waves:     65808
 maximum index in each direction: 
   IXMAX=   20   IYMAX=   20   IZMAX=   42
   IXMIN=  -21   IYMIN=  -21   IZMIN=  -42


 real space projection operators:
  total allocation   :      73594.23 KBytes
  max/ min on nodes  :      18405.77      18383.59


 parallel 3D FFT for wavefunctions:
    minimum data exchange during FFTs selected (reduces bandwidth)
 parallel 3D FFT for charge:
    minimum data exchange during FFTs selected (reduces bandwidth)


 total amount of memory used by VASP MPI-rank0   234351. kBytes
=======================================================================

   base      :      30000. kBytes
   nonlr-proj:      32780. kBytes
   fftplans  :      16141. kBytes
   grid      :      49182. kBytes
   one-center:        653. kBytes
   wavefun   :     105595. kBytes
 
     INWAV:  cpu time    0.0000: real time    0.0004
 Broyden mixing: mesh for mixing (old mesh)
   NGX = 41   NGY = 41   NGZ = 85
  (NGX  =168   NGY  =168   NGZ  =336)
  gives a total of 142885 points

 initial charge density was supplied:
 charge density of overlapping atoms calculated
 number of electron     778.0000000 magnetization     231.0000000
 keeping initial charge density in first step


--------------------------------------------------------------------------------------------------------


 Maximum index for non-local projection operator         1800
 Maximum index for augmentation-charges         1400 (set IRDMAX)


--------------------------------------------------------------------------------------------------------


 First call to EWALD:  gamma=   0.135
 Maximum number of real-space cells 4x 4x 2
 Maximum number of reciprocal cells 2x 2x 4

    FEWALD:  cpu time    0.0048: real time    0.0048


--------------------------------------- Iteration      1(   1)  ---------------------------------------


    POTLOK:  cpu time    0.3631: real time    0.3745
    SETDIJ:  cpu time    0.0320: real time    0.0322
     EDDAV:  cpu time   59.5947: real time   59.7640
       DOS:  cpu time    0.0039: real time    0.0360
    --------------------------------------------
      LOOP:  cpu time   59.9937: real time   60.2067

 eigenvalue-minimisations  :  9408
 total energy-change (2. order) : 0.7711212E+04  (-0.3285307E+05)
 number of electron     778.0000000 magnetization     231.0000000
 augmentation part      778.0000000 magnetization     231.0000000

 Free energy of the ion-electron system (eV)
  ---------------------------------------------------
  alpha Z        PSCENC =      2116.97411455
  Ewald energy   TEWEN  =    220595.78976443
  -Hartree energ DENC   =   -292510.41518829
  -exchange      EXHF   =         0.00000000
  -V(xc)+E(xc)   XCENC  =      1378.62311265
  PAW double counting   =     64136.80006862   -66038.70876209
  entropy T*S    EENTRO =         0.00210692
  eigenvalues    EBANDS =      7813.49188053
  atomic energy  EATOM  =     70218.65458108
  Solvation  Ediel_sol  =         0.00000000
  ---------------------------------------------------
  free energy    TOTEN  =      7711.21167841 eV

  energy without entropy =     7711.20957149  energy(sigma->0) =     7711.21097610


--------------------------------------------------------------------------------------------------------




--------------------------------------- Iteration      1(   2)  ---------------------------------------


     EDDAV:  cpu time   59.5747: real time   59.8219
       DOS:  cpu time    0.0026: real time    0.0210
    --------------------------------------------
      LOOP:  cpu time   59.5773: real time   59.8428

 eigenvalue-minimisations  :  9408
 total energy-change (2. order) :-0.6917309E+04  (-0.6196994E+04)
 number of electron     778.0000000 magnetization     231.0000000
 augmentation part      778.0000000 magnetization     231.0000000

 Free energy of the ion-electron system (eV)
  ---------------------------------------------------
  alpha Z        PSCENC =      2116.97411455
  Ewald energy   TEWEN  =    220595.78976443
  -Hartree energ DENC   =   -292510.41518829
  -exchange      EXHF   =         0.00000000
  -V(xc)+E(xc)   XCENC  =      1378.62311265
  PAW double counting   =     64136.80006862   -66038.70876209
  entropy T*S    EENTRO =        -0.00119139
  eigenvalues    EBANDS =       896.18597452
  atomic energy  EATOM  =     70218.65458108
  Solvation  Ediel_sol  =         0.00000000
  ---------------------------------------------------
  free energy    TOTEN  =       793.90247409 eV

  energy without entropy =      793.90366547  energy(sigma->0) =      793.90287122


--------------------------------------------------------------------------------------------------------




--------------------------------------- Iteration      1(   3)  ---------------------------------------


     EDDAV:  cpu time   59.6011: real time   59.7778
       DOS:  cpu time    0.0029: real time    0.0151
    --------------------------------------------
      LOOP:  cpu time   59.6039: real time   59.7929

 eigenvalue-minimisations  :  9408
 total energy-change (2. order) :-0.1170873E+04  (-0.9484299E+03)
 number of electron     778.0000000 magnetization     231.0000000
 augmentation part      778.0000000 magnetization     231.0000000

 Free energy of the ion-electron system (eV)
  ---------------------------------------------------
  alpha Z        PSCENC =      2116.97411455
  Ewald energy   TEWEN  =    220595.78976443
  -Hartree energ DENC   =   -292510.41518829
  -exchange      EXHF   =         0.00000000
  -V(xc)+E(xc)   XCENC  =      1378.62311265
  PAW double counting   =     64136.80006862   -66038.70876209
  entropy T*S    EENTRO =        -0.00062124
  eigenvalues    EBANDS =      -274.68745886
  atomic energy  EATOM  =     70218.65458108
  Solvation  Ediel_sol  =         0.00000000
  ---------------------------------------------------
  free energy    TOTEN  =      -376.97038914 eV

  energy without entropy =     -376.96976791  energy(sigma->0) =     -376.97018206


--------------------------------------------------------------------------------------------------------




--------------------------------------- Iteration      1(   4)  ---------------------------------------


     EDDAV:  cpu time   71.2870: real time   71.5326
       DOS:  cpu time    0.0030: real time    0.0270
    --------------------------------------------
      LOOP:  cpu time   71.2901: real time   71.5596

 eigenvalue-minimisations  : 11868
 total energy-change (2. order) :-0.1153479E+03  (-0.1053112E+03)
 number of electron     778.0000000 magnetization     231.0000000
 augmentation part      778.0000000 magnetization     231.0000000

 Free energy of the ion-electron system (eV)
  ---------------------------------------------------
  alpha Z        PSCENC =      2116.97411455
  Ewald energy   TEWEN  =    220595.78976443
  -Hartree energ DENC   =   -292510.41518829
  -exchange      EXHF   =         0.00000000
  -V(xc)+E(xc)   XCENC  =      1378.62311265
  PAW double counting   =     64136.80006862   -66038.70876209
  entropy T*S    EENTRO =        -0.00984780
  eigenvalues    EBANDS =      -390.02618109
  atomic energy  EATOM  =     70218.65458108
  Solvation  Ediel_sol  =         0.00000000
  ---------------------------------------------------
  free energy    TOTEN  =      -492.31833794 eV

  energy without entropy =     -492.30849014  energy(sigma->0) =     -492.31505534


--------------------------------------------------------------------------------------------------------




--------------------------------------- Iteration      1(   5)  ---------------------------------------


     EDDAV:  cpu time   67.9481: real time   68.2191
       DOS:  cpu time    0.0049: real time    0.0529
    CHARGE:  cpu time    3.7534: real time    3.7636
    MIXING:  cpu time    0.0101: real time    0.0102
    --------------------------------------------
      LOOP:  cpu time   71.7166: real time   72.0458

 eigenvalue-minimisations  : 11184
 total energy-change (2. order) :-0.4449687E+01  (-0.4411154E+01)
 number of electron     778.0000037 magnetization     216.7424106
 augmentation part      335.1122088 magnetization     183.5593900

 Broyden mixing:
  rms(total) = 0.11437E+02    rms(broyden)= 0.11437E+02
  rms(prec ) = 0.11794E+02
  weight for this iteration     100.00

 Free energy of the ion-electron system (eV)
  ---------------------------------------------------
  alpha Z        PSCENC =      2116.97411455
  Ewald energy   TEWEN  =    220595.78976443
  -Hartree energ DENC   =   -292510.41518829
  -exchange      EXHF   =         0.00000000
  -V(xc)+E(xc)   XCENC  =      1378.62311265
  PAW double counting   =     64136.80006862   -66038.70876209
  entropy T*S    EENTRO =        -0.01030515
  eigenvalues    EBANDS =      -394.47541071
  atomic energy  EATOM  =     70218.65458108
  Solvation  Ediel_sol  =         0.00000000
  ---------------------------------------------------
  free energy    TOTEN  =      -496.76802491 eV

  energy without entropy =     -496.75771976  energy(sigma->0) =     -496.76458986


--------------------------------------------------------------------------------------------------------




--------------------------------------- Iteration      1(   6)  ---------------------------------------


    POTLOK:  cpu time    0.3462: real time    0.3741
    SETDIJ:  cpu time    0.0310: real time    0.0311
    EDDIAG:  cpu time   10.6598: real time   10.7025
  RMM-DIIS:  cpu time   37.0870: real time   37.2391
    ORTHCH:  cpu time    1.2510: real time    1.2720
       DOS:  cpu time    0.0026: real time    0.0026
    CHARGE:  cpu time    3.6392: real time    3.6522
    MIXING:  cpu time    0.0111: real time    0.0115
    --------------------------------------------
      LOOP:  cpu time   53.0279: real time   53.2851

 eigenvalue-minimisations  :  9607
 total energy-change (2. order) :-0.2255058E+03  (-0.9803910E+02)
 number of electron     778.0000042 magnetization     213.0202804
 augmentation part      407.3293277 magnetization     179.2985758

 Broyden mixing:
  rms(total) = 0.20764E+02    rms(broyden)= 0.20764E+02
  rms(prec ) = 0.27330E+02
  weight for this iteration     100.00

 eigenvalues of (default mixing * dielectric matrix)
  average eigenvalue GAMMA=   0.2007
  0.2007

 Free energy of the ion-electron system (eV)
  ---------------------------------------------------
  alpha Z        PSCENC =      2116.97411455
  Ewald energy   TEWEN  =    220595.78976443
  -Hartree energ DENC   =   -290895.02727734
  -exchange      EXHF   =         0.00000000
  -V(xc)+E(xc)   XCENC  =      1332.80283070
  PAW double counting   =     68637.63473496   -70319.15715680
  entropy T*S    EENTRO =        -0.00121768
  eigenvalues    EBANDS =     -2409.94418337
  atomic energy  EATOM  =     70218.65458108
  Solvation  Ediel_sol  =         0.00000000
  ---------------------------------------------------
  free energy    TOTEN  =      -722.27380948 eV

  energy without entropy =     -722.27259180  energy(sigma->0) =     -722.27340359


--------------------------------------------------------------------------------------------------------




--------------------------------------- Iteration      1(   7)  ---------------------------------------


    POTLOK:  cpu time    0.3463: real time    0.3947
    SETDIJ:  cpu time    0.0311: real time    0.0312
    EDDIAG:  cpu time   10.6347: real time   10.6771
  RMM-DIIS:  cpu time   36.4684: real time   36.5984
    ORTHCH:  cpu time    1.2552: real time    1.2591
       DOS:  cpu time    0.0025: real time    0.0025
    CHARGE:  cpu time    3.6287: real time    3.6385
    MIXING:  cpu time    0.0113: real time    0.0114
    --------------------------------------------
      LOOP:  cpu time   52.3783: real time   52.6130

 eigenvalue-minimisations  :  9424
 total energy-change (2. order) : 0.2131524E+03  (-0.1587809E+02)
 number of electron     778.0000041 magnetization     208.2542505
 augmentation part      372.0117277 magnetization     165.1954226

 Broyden mixing:
  rms(total) = 0.14467E+02    rms(broyden)= 0.14467E+02
  rms(prec ) = 0.18944E+02
  weight for this iteration     100.00

 eigenvalues of (default mixing * dielectric matrix)
  average eigenvalue GAMMA=   0.2629
  0.3547  0.1710

 Free energy of the ion-electron system (eV)
  ---------------------------------------------------
  alpha Z        PSCENC =      2116.97411455
  Ewald energy   TEWEN  =    220595.78976443
  -Hartree energ DENC   =   -291549.20185745
  -exchange      EXHF   =         0.00000000
  -V(xc)+E(xc)   XCENC  =      1351.43606179
  PAW double counting   =     69588.06067028   -71421.53203420
  entropy T*S    EENTRO =        -0.01076097
  eigenvalues    EBANDS =     -1409.29191065
  atomic energy  EATOM  =     70218.65458108
  Solvation  Ediel_sol  =         0.00000000
  ---------------------------------------------------
  free energy    TOTEN  =      -509.12137115 eV

  energy without entropy =     -509.11061018  energy(sigma->0) =     -509.11778416


--------------------------------------------------------------------------------------------------------




--------------------------------------- Iteration      1(   8)  ---------------------------------------


    POTLOK:  cpu time    0.3473: real time    0.3649
    SETDIJ:  cpu time    0.0309: real time    0.0310
    EDDIAG:  cpu time   10.6640: real time   10.6946
  RMM-DIIS:  cpu time   36.8717: real time   37.0746
    ORTHCH:  cpu time    1.2546: real time    1.2606
       DOS:  cpu time    0.0028: real time    0.0028
    CHARGE:  cpu time    3.5841: real time    3.6029
    MIXING:  cpu time    0.0116: real time    0.0119
    --------------------------------------------
      LOOP:  cpu time   52.7671: real time   53.0432

 eigenvalue-minimisations  :  9438
 total energy-change (2. order) : 0.3318329E+02  (-0.1294443E+02)
 number of electron     778.0000048 magnetization     201.0522894
 augmentation part      373.9009384 magnetization     163.9420827

 Broyden mixing:
  rms(total) = 0.15974E+02    rms(broyden)= 0.15974E+02
  rms(prec ) = 0.18676E+02
  weight for this iteration     100.00

 eigenvalues of (default mixing * dielectric matrix)
  average eigenvalue GAMMA=   0.3096
  0.5797  0.2653  0.0839

 Free energy of the ion-electron system (eV)
  ---------------------------------------------------
  alpha Z        PSCENC =      2116.97411455
  Ewald energy   TEWEN  =    220595.78976443
  -Hartree energ DENC   =   -291784.67753396
  -exchange      EXHF   =         0.00000000
  -V(xc)+E(xc)   XCENC  =      1358.41003033
  PAW double counting   =     70765.25672885   -72676.17154519
  entropy T*S    EENTRO =        -0.01378282
  eigenvalues    EBANDS =     -1070.16043883
  atomic energy  EATOM  =     70218.65458108
  Solvation  Ediel_sol  =         0.00000000
  ---------------------------------------------------
  free energy    TOTEN  =      -475.93808158 eV

  energy without entropy =     -475.92429875  energy(sigma->0) =     -475.93348730


--------------------------------------------------------------------------------------------------------




--------------------------------------- Iteration      1(   9)  ---------------------------------------


    POTLOK:  cpu time    0.3455: real time    0.3796
    SETDIJ:  cpu time    0.0312: real time    0.0314
    EDDIAG:  cpu time   10.6569: real time   10.7164
  RMM-DIIS:  cpu time   36.6236: real time   36.7447
    ORTHCH:  cpu time    1.2540: real time    1.2581
       DOS:  cpu time    0.0027: real time    0.0027
    CHARGE:  cpu time    3.6224: real time    3.6323
    MIXING:  cpu time    0.0114: real time    0.0114
    --------------------------------------------
      LOOP:  cpu time   52.5475: real time   52.7766

 eigenvalue-minimisations  :  9450
 total energy-change (2. order) : 0.7634775E+02  (-0.1562929E+02)
 number of electron     778.0000032 magnetization     193.3710558
 augmentation part      376.7399707 magnetization     146.8771576

 Broyden mixing:
  rms(total) = 0.12836E+02    rms(broyden)= 0.12836E+02
  rms(prec ) = 0.14519E+02
  weight for this iteration     100.00

 eigenvalues of (default mixing * dielectric matrix)
  average eigenvalue GAMMA=   0.3489
  0.8257  0.3447  0.1127  0.1127

 Free energy of the ion-electron system (eV)
  ---------------------------------------------------
  alpha Z        PSCENC =      2116.97411455
  Ewald energy   TEWEN  =    220595.78976443
  -Hartree energ DENC   =   -291548.16875000
  -exchange      EXHF   =         0.00000000
  -V(xc)+E(xc)   XCENC  =      1375.38743452
  PAW double counting   =     72120.06720263   -74084.25660572
  entropy T*S    EENTRO =        -0.00062667
  eigenvalues    EBANDS =     -1194.03744467
  atomic energy  EATOM  =     70218.65458108
  Solvation  Ediel_sol  =         0.00000000
  ---------------------------------------------------
  free energy    TOTEN  =      -399.59032985 eV

  energy without entropy =     -399.58970318  energy(sigma->0) =     -399.59012096


[...]
   -.184E+01 0.348E+02 -.283E+04   0.213E+01 -.344E+02 0.283E+04   -.282E+00 -.343E+00 0.110E+01   -.848E-02 -.425E-02 0.481E-01
   -.141E+02 0.116E+02 -.282E+04   0.138E+02 -.108E+02 0.281E+04   0.308E+00 -.757E+00 0.197E+01   0.514E-02 0.858E-02 0.711E-02
   0.680E+01 -.552E+01 -.281E+04   -.681E+01 0.474E+01 0.281E+04   0.152E-01 0.745E+00 0.148E+01   0.225E-01 0.147E-01 0.362E-01
   -.200E+02 -.174E+02 -.285E+04   0.201E+02 0.172E+02 0.285E+04   -.164E+00 0.185E+00 0.914E+00   -.940E-02 -.112E-01 0.756E-03
   0.111E+02 -.210E+02 -.285E+04   -.115E+02 0.212E+02 0.284E+04   0.435E+00 -.191E+00 0.216E+01   -.150E-01 0.140E-01 -.383E-02
   -.170E+02 0.171E+02 -.284E+04   0.161E+02 -.175E+02 0.284E+04   0.921E+00 0.326E+00 0.111E+01   0.212E-01 0.100E-02 -.611E-02
   -.119E+02 -.540E+00 -.280E+04   0.134E+02 0.206E+00 0.280E+04   -.151E+01 0.395E+00 0.204E+01   -.942E-02 -.257E-01 -.939E-02
   -.134E+02 -.988E+01 -.285E+04   0.137E+02 0.952E+01 0.285E+04   -.344E+00 0.324E+00 0.116E+01   -.574E-02 0.298E-02 0.779E-02
   -.180E+02 -.398E+01 -.283E+04   0.181E+02 0.369E+01 0.283E+04   -.136E+00 0.310E+00 0.156E+01   0.653E-02 -.336E-02 0.426E-02
   -.374E+00 -.286E+02 -.282E+04   0.434E-01 0.281E+02 0.282E+04   0.356E+00 0.526E+00 0.131E+01   -.111E-01 -.119E-01 0.455E-02
   0.315E+02 0.176E+02 -.284E+04   -.309E+02 -.174E+02 0.284E+04   -.683E+00 -.282E+00 0.185E+01   -.705E-02 0.107E-01 0.740E-03
   0.241E+02 -.381E+01 -.283E+04   -.241E+02 0.443E+01 0.283E+04   -.478E-02 -.607E+00 0.189E+01   0.971E-02 0.940E-02 0.301E-02
   -.213E+01 -.218E-02 -.283E+04   0.181E+01 -.448E+00 0.283E+04   0.318E+00 0.450E+00 0.151E+01   -.195E-02 -.129E-01 0.348E-01
   0.324E+02 -.107E+02 -.284E+04   -.323E+02 0.109E+02 0.284E+04   -.130E+00 -.189E+00 0.148E+01   -.563E-02 -.101E-01 0.869E-02
   0.663E+02 -.633E+02 -.147E+04   -.650E+02 0.634E+02 0.147E+04   -.126E+01 -.185E+00 0.164E+01   0.130E-02 0.164E-01 -.107E-01
   0.244E+02 -.422E+02 -.145E+04   -.255E+02 0.418E+02 0.145E+04   0.112E+01 0.383E+00 0.241E+01   -.968E-02 -.845E-02 -.173E-02
   0.311E+02 0.250E+02 0.290E+04   -.311E+02 -.252E+02 -.290E+04   0.188E-01 0.225E+00 -.263E+01   0.407E-02 0.399E-02 -.810E-03
   0.212E+02 -.724E+01 0.155E+04   -.222E+02 0.793E+01 -.155E+04   0.996E+00 -.644E+00 0.887E+00   0.194E-02 -.249E-02 0.399E-02
   -.612E+02 0.837E+01 -.144E+04   0.621E+02 -.766E+01 0.144E+04   -.884E+00 -.671E+00 0.246E+01   0.181E-01 -.114E-01 -.162E-02
   -.459E+02 0.629E+02 0.298E+04   0.467E+02 -.617E+02 -.298E+04   -.771E+00 -.118E+01 -.246E+01   -.102E-01 0.933E-02 -.105E-02
   0.119E+02 -.507E+02 0.154E+04   -.117E+02 0.501E+02 -.154E+04   -.289E+00 0.542E+00 -.796E+00   0.174E-02 0.243E-02 0.238E-01
   0.101E+02 0.813E+00 -.283E+04   -.103E+02 -.845E+00 0.283E+04   0.241E+00 -.682E-02 0.123E+01   -.714E-02 0.150E-01 0.387E-02
   -.169E+02 0.171E+01 0.287E+02   0.170E+02 -.137E+01 -.299E+02   -.104E+00 -.415E+00 0.111E+01   0.111E-01 0.584E-02 0.131E-02
   -.126E+02 0.110E+02 -.285E+04   0.120E+02 -.110E+02 0.285E+04   0.577E+00 0.865E-01 0.175E+01   0.263E-02 -.514E-02 -.605E-02
   0.787E+01 0.476E+02 0.329E+02   -.894E+01 -.489E+02 -.331E+02   0.116E+01 0.130E+01 0.229E-01   0.116E-01 0.761E-03 0.731E-02
   -.641E+02 0.962E+01 -.145E+04   0.646E+02 -.110E+02 0.144E+04   -.472E+00 0.145E+01 0.248E+01   -.695E-02 0.171E-01 0.170E-01
   0.288E+02 0.291E+02 -.149E+04   -.286E+02 -.283E+02 0.148E+04   -.199E+00 -.732E+00 0.224E+01   0.389E-03 -.165E-02 -.348E-02
   0.366E+01 -.684E+02 -.715E+02   -.463E+01 0.678E+02 0.719E+02   0.100E+01 0.605E+00 -.314E+00   -.342E-02 -.139E-01 0.325E-02
   -.180E+02 -.173E+02 0.168E+02   0.187E+02 0.180E+02 -.174E+02   -.703E+00 -.865E+00 0.642E+00   -.154E-01 0.273E-02 -.106E-01
   0.192E+02 0.142E+02 -.119E+04   -.193E+02 -.146E+02 0.119E+04   0.416E-01 0.412E+00 0.229E+00   0.381E-02 0.181E-02 0.578E-02
   -.673E+02 -.938E+01 0.234E+04   0.675E+02 0.809E+01 -.233E+04   -.238E+00 0.133E+01 -.289E+01   -.444E-02 0.166E-02 -.381E-02
   0.354E+02 -.229E+02 0.238E+04   -.353E+02 0.212E+02 -.238E+04   -.344E-01 0.179E+01 -.269E+01   -.223E-02 -.237E-02 -.568E-03
   0.279E+02 0.156E+01 0.237E+04   -.278E+02 -.771E+00 -.237E+04   -.912E-01 -.804E+00 -.307E+01   0.423E-02 -.353E-02 -.435E-02
   0.222E+02 0.606E+02 0.123E+04   -.213E+02 -.598E+02 -.123E+04   -.972E+00 -.864E+00 -.545E-01   0.535E-02 0.561E-02 0.117E-02
   0.277E+02 -.602E+02 0.124E+04   -.277E+02 0.599E+02 -.123E+04   -.103E+00 0.333E+00 -.465E+00   0.401E-02 -.101E-01 0.185E-01
   -.561E+02 -.192E+02 -.120E+04   0.562E+02 0.194E+02 0.120E+04   -.813E-01 -.243E+00 0.589E+00   0.223E-02 -.729E-02 -.305E-03
   -.119E+03 0.159E+02 0.239E+04   0.119E+03 -.158E+02 -.239E+04   0.825E+00 -.145E+00 -.306E+01   -.515E-02 0.304E-02 -.360E-02
   -.345E+02 0.507E+02 0.125E+04   0.337E+02 -.502E+02 -.125E+04   0.885E+00 -.556E+00 -.461E+00   -.398E-02 0.534E-02 0.489E-02
   -.551E+02 0.388E+01 -.422E+02   0.548E+02 -.348E+01 0.423E+02   0.255E+00 -.463E+00 -.155E+00   0.217E-02 -.445E-02 0.749E-03
   0.182E+02 -.840E+02 -.120E+04   -.184E+02 0.838E+02 0.120E+04   0.166E+00 0.231E+00 0.872E+00   -.105E-01 -.104E-01 0.227E-02
   0.125E+02 0.269E+02 -.119E+04   -.126E+02 -.270E+02 0.119E+04   0.121E+00 0.757E-01 0.858E-01   -.137E-02 0.628E-02 -.322E-02
   -.171E+01 -.651E+02 0.236E+04   0.843E+00 0.639E+02 -.236E+04   0.870E+00 0.120E+01 -.307E+01   0.548E-02 0.214E-02 0.193E-02
   0.180E+02 -.171E+02 0.266E+04   -.179E+02 0.173E+02 -.266E+04   -.874E-01 -.195E+00 -.298E+01   0.646E-02 -.100E-01 0.141E-02
   0.129E+03 0.396E+02 0.269E+04   -.130E+03 -.387E+02 -.268E+04   0.154E+00 -.962E+00 -.282E+01   0.598E-02 0.389E-02 -.490E-02
   -.512E+02 -.479E+02 0.136E+04   0.506E+02 0.468E+02 -.136E+04   0.543E+00 0.118E+01 -.276E+00   -.115E-01 0.526E-03 -.655E-03
   -.648E+02 0.512E+02 0.223E+02   0.649E+02 -.511E+02 -.229E+02   -.741E-01 -.977E-01 0.602E+00   -.153E-01 -.884E-03 -.132E-02
   -.107E+03 0.867E+01 0.136E+04   0.107E+03 -.825E+01 -.136E+04   0.441E+00 -.483E+00 -.190E+00   -.778E-02 -.347E-02 -.131E-02
   -.126E+02 -.124E+02 0.136E+04   0.128E+02 0.121E+02 -.136E+04   -.135E+00 0.434E+00 -.217E+00   0.424E-02 0.187E-01 -.178E-01
   0.429E+02 0.216E+01 -.136E+04   -.428E+02 -.230E+01 0.136E+04   -.142E+00 0.183E+00 0.110E+01   0.104E-01 0.796E-02 -.551E-02
   0.545E+02 -.488E+02 0.268E+04   -.540E+02 0.489E+02 -.267E+04   -.449E+00 -.181E+00 -.295E+01   0.128E-01 -.227E-01 0.295E-02
   -.129E+01 0.132E+02 0.136E+04   0.143E+01 -.129E+02 -.136E+04   -.190E+00 -.318E+00 -.485E+00   -.263E-01 -.118E-01 -.166E-01
   0.340E+02 -.758E+02 -.163E+02   -.331E+02 0.752E+02 0.166E+02   -.901E+00 0.591E+00 -.424E+00   0.154E-02 -.483E-02 0.844E-02
   0.223E+02 0.186E+02 0.332E+04   -.227E+02 -.180E+02 -.332E+04   0.441E+00 -.526E+00 -.423E+01   0.198E-01 0.226E-01 -.173E-02
   0.542E+02 0.675E+01 0.167E+04   -.544E+02 -.729E+01 -.167E+04   0.159E+00 0.564E+00 -.102E+00   0.105E-02 -.384E-02 0.975E-02
   0.112E+03 -.370E+02 0.164E+04   -.112E+03 0.371E+02 -.164E+04   -.213E+00 -.108E+00 -.111E+00   0.726E-02 0.384E-03 0.568E-02
   0.233E+02 0.640E+02 0.105E+03   -.239E+02 -.638E+02 -.105E+03   0.593E+00 -.279E+00 0.337E+00   0.263E-02 0.850E-02 -.213E-03
   0.915E+01 0.518E+02 -.164E+04   -.861E+01 -.515E+02 0.164E+04   -.547E+00 -.318E+00 0.103E+01   0.314E-02 0.591E-03 -.866E-02
   -.390E+02 0.283E+02 -.163E+04   0.382E+02 -.281E+02 0.163E+04   0.934E+00 -.212E+00 0.197E+01   -.173E-01 0.395E-02 0.321E-02
   0.325E+01 0.103E+03 0.327E+04   -.322E+01 -.103E+03 -.326E+04   -.685E-01 0.431E+00 -.347E+01   -.105E-02 0.123E-01 -.107E-02
   -.164E+02 -.587E+02 0.331E+04   0.155E+02 0.588E+02 -.330E+04   0.847E+00 -.173E+00 -.327E+01   -.504E-02 -.310E-01 0.635E-02
   0.111E+03 0.140E+02 -.476E+02   -.111E+03 -.139E+02 0.480E+02   -.766E-01 -.264E+00 -.508E+00   0.193E-02 0.252E-02 0.827E-02
   -.117E+03 -.254E+02 0.291E+02   0.116E+03 0.252E+02 -.289E+02   0.339E+00 0.104E+00 -.133E+00   -.206E-02 -.124E-01 -.152E-02
   -.500E+01 0.697E+02 0.174E+04   0.486E+01 -.691E+02 -.174E+04   0.181E+00 -.705E+00 -.891E+00   0.485E-02 0.874E-02 0.770E-02
   0.217E+02 -.670E+02 0.346E+02   -.213E+02 0.659E+02 -.351E+02   -.363E+00 0.129E+01 0.340E+00   0.204E-02 0.376E-02 -.828E-02
   0.550E+02 -.184E+02 0.135E+02   -.542E+02 0.181E+02 -.133E+02   -.762E+00 0.244E+00 -.109E+00   0.220E-02 -.175E-02 0.168E-02
   -.692E+02 -.169E+01 0.150E+04   0.687E+02 0.184E+01 -.150E+04   0.476E+00 -.115E+00 -.268E+00   -.188E-01 0.245E-02 0.578E-04
   -.205E+02 0.156E+02 0.156E+04   0.209E+02 -.159E+02 -.156E+04   -.389E+00 0.302E+00 -.486E+00   -.287E-02 -.381E-02 0.175E-01
   -.864E+02 -.142E+02 0.299E+04   0.869E+02 0.142E+02 -.299E+04   -.673E+00 -.220E-01 -.205E+01   -.363E-01 -.122E-02 -.187E-02
   0.401E+02 -.468E+02 0.298E+04   -.408E+02 0.474E+02 -.298E+04   0.819E+00 -.554E+00 -.134E+01   0.199E-01 -.102E-01 -.593E-02
   0.106E+02 -.199E+02 0.154E+04   -.102E+02 0.197E+02 -.154E+04   -.391E+00 0.187E+00 -.678E-02   0.276E-01 -.152E-01 -.373E-02
   0.473E+02 0.101E+01 0.154E+04   -.468E+02 -.109E+01 -.154E+04   -.588E+00 0.126E+00 -.300E+00   0.122E-01 0.255E-02 -.388E-02
   -.353E+02 -.550E+02 -.151E+04   0.353E+02 0.551E+02 0.151E+04   0.184E-01 -.128E+00 0.521E+00   -.410E-02 -.824E-03 -.290E-02
   -.258E+02 0.142E+02 0.296E+04   0.263E+02 -.136E+02 -.296E+04   -.611E+00 -.484E+00 -.214E+01   -.198E-01 0.231E-01 -.129E-02
   -.492E+02 0.830E+02 0.775E+02   0.496E+02 -.827E+02 -.774E+02   -.397E+00 -.353E+00 -.211E+00   0.110E-01 0.349E-02 0.926E-03
   0.597E-01 0.612E+02 -.242E+01   -.140E+00 -.604E+02 0.227E+01   0.122E+00 -.811E+00 0.108E-01   -.894E-02 0.455E-02 -.531E-03
   0.629E+02 -.183E+01 -.239E+02   -.625E+02 0.242E+01 0.240E+02   -.419E+00 -.651E+00 -.173E+00   0.134E-01 0.823E-02 0.354E-02
   0.874E+00 -.665E+02 0.374E+02   -.130E+01 0.661E+02 -.374E+02   0.411E+00 0.464E+00 0.278E-01   -.187E-01 -.139E-02 0.510E-02
   -.210E+01 0.623E+01 -.336E+03   0.222E+01 -.671E+01 0.337E+03   -.145E+00 0.438E+00 -.155E+01   0.432E-03 -.556E-03 -.107E-02
 -----------------------------------------------------------------------------------------------
   -.157E+01 -.183E+01 0.859E+00   -.527E-12 -.761E-12 -.915E-11   0.156E+01 0.185E+01 -.105E+01   -.306E-01 0.562E-02 0.169E+00
 
 
 POSITION                                       TOTAL-FORCE (eV/Angst)
 -----------------------------------------------------------------------------------
     13.30409      8.27239      6.93308        -0.001702     -0.007724      0.005019
      5.25124      8.29477      6.87200         0.004100      0.004290      0.029889
      5.10031      3.57773      6.97023        -0.002972     -0.000349      0.005020
     14.72451      9.05450      9.19793         0.002308     -0.011250     -0.046464
      3.84174      4.37866      9.27652         0.006144      0.006149      0.008907
      6.57389      9.01034      9.16702         0.009544      0.006857     -0.027686
     11.99440      4.36180      9.31149        -0.005440      0.006519      0.016379
      9.27243      9.03134      9.16086         0.004616     -0.009478      0.000222
     10.59623      1.96389      9.18988         0.006539      0.012203      0.004150
      2.55173      1.97307      9.21790         0.011808      0.005398      0.016039
     11.99379      9.02924      9.21865         0.005418      0.004197     -0.012372
     13.35323      6.69757      9.27552        -0.000643      0.012958     -0.011852
      5.20721      1.95814      9.22801         0.006306     -0.000351      0.003989
      7.95565      6.70631      9.21729         0.015140     -0.001096     -0.012975
      9.27968      4.36139      9.18496         0.016935     -0.002164      0.017002
      5.20299      6.68725      9.26924        -0.007894     -0.005378     -0.041214
      7.92164      1.97471      9.18001        -0.013753      0.007727      0.001999
      7.99153      3.53409      6.93159         0.000779      0.000480     -0.009710
      6.47837      1.17790      6.88183         0.002303     -0.005494      0.005256
      6.62542      1.16033      1.01568        -0.003012      0.010529      0.010006
      3.78124      4.31135      2.85703        -0.008724     -0.007766     -0.016458
      1.22447      1.27934      6.89238         0.000134      0.006027     -0.018100
      1.15567      1.23675      0.80812        -0.007056      0.005839     -0.008027
      6.62352      9.00900      2.94638        -0.006954     -0.001192     -0.010952
      6.56127      4.33081      9.25712         0.000582     -0.015120     -0.006636
      7.92439      5.15459      4.80969         0.009811     -0.010939     -0.004214
     10.61496      6.70114      9.22420        -0.005020      0.009463      0.009909
     14.63661      7.39466      4.85051         0.008697     -0.013170     -0.071812
     12.02063      5.86051      6.99851        -0.003621     -0.015723     -0.028749
      6.58213      5.93316      6.96075        -0.003323      0.004747      0.003497
      3.67931      2.60564      4.97255        -0.052470     -0.003841     -0.032945
     10.64713      5.18812      4.85947         0.013010     -0.025012      0.034330
      3.87387      5.94464      7.09616        -0.004626     -0.008944     -0.018273
     13.31421      8.09728      1.05685        -0.014641      0.003401      0.015315
      5.30905      8.11595      0.93936        -0.012949      0.016391      0.022392
      3.92857      5.94156      0.93592         0.005977      0.012509      0.023739
      8.05386      2.12946      2.90054        -0.024357      0.005081     -0.009888
      9.32899      8.96609      2.90333        -0.001158      0.048135     -0.008561
      2.46342      3.60685      7.10303         0.013047     -0.016775      0.007270
      2.35311      3.57145      0.91590        -0.013078     -0.014491      0.006905
     10.64588      2.02969      2.87660        -0.008104      0.004870     -0.022689
     13.32002      5.11294      4.93827         0.000445     -0.030023      0.022308
      3.86717      1.07575      7.02581        -0.000563      0.006433      0.002761
      9.28482      5.90480      7.04251         0.000863     -0.000285     -0.003593
      3.83383      1.10072      0.97127        -0.017021      0.009406      0.039876
      9.38306      5.86937      1.02764        -0.012019      0.009895      0.004407
      5.29366      3.59964      0.97023         0.001461     -0.020894      0.007677
     11.92478      8.89894      2.96205        -0.002920     -0.007461      0.037883
     11.98161      7.44837      4.85536         0.027695      0.053793     -0.051754
     13.19392      6.59754      2.88244         0.003673     -0.039245     -0.001054
      9.30356      4.29380      2.83538         0.025178      0.019201     -0.017163
      7.97260      8.22101      6.98239         0.006632      0.000334     -0.010768
      8.04645      8.22972      0.95960        -0.005767      0.022551      0.001818
     10.69526      6.74219      2.84766        -0.016240     -0.008153      0.005385
      2.61555      0.23694      5.01544         0.000516      0.008673      0.012369
      7.93369      3.56163      0.85009         0.004144     -0.008858      0.016903
      5.20201      1.93970      2.98139        -0.020106     -0.020782      0.007245
      5.33876      6.63044      2.97234         0.004901     -0.000131      0.016259
      7.92891      0.48348      4.85079         0.008005     -0.008187     -0.003284
      9.31342      1.21306      6.93649         0.014963      0.005780     -0.003647
     10.59302      8.20325      6.95661        -0.005330     -0.005982      0.001735
      9.31708      1.15830      0.86447        -0.014293      0.008215      0.009469
     10.66521      8.23823      0.86341         0.002394      0.010088      0.018434
      5.20687      5.10791      4.92329        -0.000054     -0.009803     -0.023244
     11.93848      2.82857      4.89385         0.017054     -0.023891      0.056000
     14.71857      9.08131      2.89619         0.010047      0.018541      0.000761
      9.37079      2.74108      4.94033         0.015858      0.003000      0.009141
      6.55972      2.77058      4.86870        -0.006562      0.006035      0.007132
     11.98589      4.30080      2.86021         0.000931     -0.029867     -0.009069
      2.49448      1.93206      2.87475         0.008633      0.025959      0.012820
     12.00924      5.83331      0.94662        -0.003076      0.016213     -0.000564
      6.59401      5.89345      1.01909         0.001228      0.008990     -0.020521
      8.06326      6.72352      2.85722         0.011805     -0.000380     -0.005811
      6.60061      4.25332      2.83924        -0.014458     -0.002061     -0.000517
     10.68672      3.58673      7.03245        -0.000819     -0.006230      0.031803
     10.66176      3.51658      0.94680         0.000824     -0.021463     -0.011175
     10.67093      0.52619      4.87945        -0.001381      0.040887      0.006306
      9.31133      7.48384      4.95374         0.011050      0.005265     -0.016066
      6.69853      7.49883      4.94828         0.030254     -0.022841     -0.013433
      5.15662      0.25853      4.91069        -0.001634      0.004802      0.022019
     11.91488      2.81689     10.16906        -0.028009     -0.035035      0.013496
 -----------------------------------------------------------------------------------
    total drift:                               -0.040195      0.022938     -0.024961


--------------------------------------------------------------------------------------------------------



  FREE ENERGIE OF THE ION-ELECTRON SYSTEM (eV)
  ---------------------------------------------------
  free  energy   TOTEN  =      -507.61433918 eV

  energy  without entropy=     -507.63342522  energy(sigma->0) =     -507.62070119
 
 d Force = 0.2457007E-02[ 0.148E-02, 0.343E-02]  d Energy = 0.2410999E-02 0.460E-04
 d Force =-0.2451760E+02[-0.245E+02,-0.245E+02]  d Ewald  =-0.2451760E+02 0.295E-06


--------------------------------------------------------------------------------------------------------


    POTLOK:  cpu time    0.3789: real time    0.3802


--------------------------------------------------------------------------------------------------------


 Conjugate gradient step on ions:
 trial-energy change:   -0.002411  1 .order   -0.002457   -0.003432   -0.001482
  (g-gl).g = 0.257E-02      g.g   = 0.253E-02  gl.gl    = 0.897E-02
 g(Force)  = 0.253E-02   g(Stress)= 0.000E+00 ortho     = 0.299E-03
 gamma     =   0.28589
 trial     =   1.31458
 opt step  =   2.72837  (harmonic =   2.31312) maximal distance =0.01077220
 next E    =  -507.615079   (d E  =  -0.00315)


--------------------------------------------------------------------------------------------------------


  
 reached required accuracy - stopping structural energy minimisation
     LOOP+:  cpu time  744.0568: real time  747.9583
    4ORBIT:  cpu time    0.0000: real time    0.0000

 total amount of memory used by VASP MPI-rank0   234351. kBytes
=======================================================================

   base      :      30000. kBytes
   nonlr-proj:      32780. kBytes
   fftplans  :      16141. kBytes
   grid      :      49182. kBytes
   one-center:        653. kBytes
   wavefun   :     105595. kBytes
 
  
  
 General timing and accounting informations for this job:
 ========================================================
  
                  Total CPU time used (sec):    11254.243
                            User time (sec):    10938.735
                          System time (sec):      315.508
                         Elapsed time (sec):    11321.015
  
                   Maximum memory used (kb):      418176.
                   Average memory used (kb):           0.
  
                          Minor page faults:      2394834
                          Major page faults:          204
                 Voluntary context switches:        10364
