 vasp.5.4.4.18Apr17-6-g9f103f2a35 (build Oct 25 2019 11:13:22) complex          
  
 executed on             LinuxIFC date 2021.10.16  13:04:33
 running on   48 total cores
 distrk:  each k-point on   48 cores,    1 groups
 distr:  one band on NCORES_PER_BAND=   4 cores,   12 groups


--------------------------------------------------------------------------------------------------------


 INCAR:
 POTCAR:    PAW_PBE Pt 04Feb2005                  
 POTCAR:    PAW_PBE Fe 06Sep2000                  
 POTCAR:    PAW_PBE Co 02Aug2007                  
 POTCAR:    PAW_PBE Cu 22Jun2005                  
 POTCAR:    PAW_PBE Ni 02Aug2007                  
 POTCAR:    PAW_PBE H 15Jun2001                   
 POTCAR:    PAW_PBE Pt 04Feb2005                  
   VRHFIN =Pt: s1d9                                                             
   LEXCH  = PE                                                                  
   EATOM  =   729.1176 eV,   53.5886 Ry                                         
                                                                                
   TITEL  = PAW_PBE Pt 04Feb2005                                                
   LULTRA =        F    use ultrasoft PP ?                                      
   IUNSCR =        1    unscreen: 0-lin 1-nonlin 2-no                           
   RPACOR =    2.330    partial core radius                                     
   POMASS =  195.080; ZVAL   =   10.000    mass and valenz                      
   RCORE  =    2.600    outmost cutoff radius                                   
   RWIGS  =    2.750; RWIGS  =    1.455    wigner-seitz radius (au A)           
   ENMAX  =  230.283; ENMIN  =  172.712 eV                                      
   ICORE  =        3    local potential                                         
   LCOR   =        T    correct aug charges                                     
   LPAW   =        T    paw PP                                                  
   EAUG   =  358.966                                                            
   DEXC   =    0.000                                                            
   RMAX   =    2.658    core radius for proj-oper                               
   RAUG   =    1.300    factor for augmentation sphere                          
   RDEP   =    2.761    radius for radial grids                                 
   RDEPT  =    2.203    core radius for aug-charge                              
                                                                                
   Atomic configuration                                                         
   16 entries                                                                   
     n  l   j            E        occ.                                          
     1  0  0.50    -78401.1885   2.0000                                         
     2  0  0.50    -13770.7750   2.0000                                         
     2  1  1.50    -11931.0468   6.0000                                         
     3  0  0.50     -3234.7234   2.0000                                         
     3  1  1.50     -2699.2216   6.0000                                         
     3  2  2.50     -2119.5714  10.0000                                         
     4  0  0.50      -695.1528   2.0000                                         
     4  1  1.50      -519.6034   6.0000                                         
     4  2  2.50      -306.6786  10.0000                                         
     4  3  3.50       -70.1041  14.0000                                         
     5  0  0.50      -101.7747   2.0000                                         
     5  1  1.50       -55.9873   6.0000                                         
     5  2  2.50        -6.1423   9.0000                                         
     6  0  0.50        -5.6573   1.0000                                         
     6  1  1.50        -6.8029   0.0000                                         
     5  3  2.50        -1.3606   0.0000                                         
   Description                                                                  
     l       E           TYP  RCUT    TYP  RCUT                                 
     2     -6.1423404     23  2.500                                             
     2     -7.5029230     23  2.500                                             
     0     -5.6573207     23  2.500                                             
     0      0.7416693     23  2.500                                             
     1     -2.7211652     23  2.600                                             
     1     20.4087390     23  2.600                                             
     3     -1.3605826     23  2.500                                             
  local pseudopotential read in
  partial core-charges read in
  partial kinetic energy density read in
  atomic valenz-charges read in
  non local Contribution for L=           2  read in
    real space projection operators read in
  non local Contribution for L=           2  read in
    real space projection operators read in
  non local Contribution for L=           0  read in
    real space projection operators read in
  non local Contribution for L=           0  read in
    real space projection operators read in
  non local Contribution for L=           1  read in
    real space projection operators read in
  non local Contribution for L=           1  read in
    real space projection operators read in
    PAW grid and wavefunctions read in
 
   number of l-projection  operators is LMAX  =           6
   number of lm-projection operators is LMMAX =          18
 
 POTCAR:    PAW_PBE Fe 06Sep2000                  
   VRHFIN =Fe:  d7 s1                                                           
   LEXCH  = PE                                                                  
   EATOM  =   594.3153 eV,   43.6809 Ry                                         
                                                                                
   TITEL  = PAW_PBE Fe 06Sep2000                                                
   LULTRA =        F    use ultrasoft PP ?                                      
   IUNSCR =        1    unscreen: 0-lin 1-nonlin 2-no                           
   RPACOR =    2.000    partial core radius                                     
   POMASS =   55.847; ZVAL   =    8.000    mass and valenz                      
   RCORE  =    2.300    outmost cutoff radius                                   
   RWIGS  =    2.460; RWIGS  =    1.302    wigner-seitz radius (au A)           
   ENMAX  =  267.882; ENMIN  =  200.911 eV                                      
   RCLOC  =    1.701    cutoff for local pot                                    
   LCOR   =        T    correct aug charges                                     
   LPAW   =        T    paw PP                                                  
   EAUG   =  511.368                                                            
   DEXC   =    0.000                                                            
   RMAX   =    2.356    core radius for proj-oper                               
   RAUG   =    1.300    factor for augmentation sphere                          
   RDEP   =    2.442    radius for radial grids                                 
   RDEPT  =    1.890    core radius for aug-charge                              
                                                                                
   Atomic configuration                                                         
    9 entries                                                                   
     n  l   j            E        occ.                                          
     1  0  0.50     -6993.8440   2.0000                                         
     2  0  0.50      -814.6047   2.0000                                         
     2  1  1.50      -693.3689   6.0000                                         
     3  0  0.50       -89.4732   2.0000                                         
     3  1  1.50       -55.6373   6.0000                                         
     3  2  2.50        -3.8151   7.0000                                         
     4  0  0.50        -4.2551   1.0000                                         
     4  1  1.50        -3.4015   0.0000                                         
     4  3  2.50        -1.3606   0.0000                                         
   Description                                                                  
     l       E           TYP  RCUT    TYP  RCUT                                 
     2     -3.8151135     23  2.300                                             
     2     -5.1756961     23  2.300                                             
     0     -4.2550963     23  2.300                                             
     0      7.2035603     23  2.300                                             
     1     -2.7211652     23  2.300                                             
     1     18.4316424     23  2.300                                             
  local pseudopotential read in
  partial core-charges read in
  partial kinetic energy density read in
  atomic valenz-charges read in
  non local Contribution for L=           2  read in
    real space projection operators read in
  non local Contribution for L=           2  read in
    real space projection operators read in
  non local Contribution for L=           0  read in
    real space projection operators read in
  non local Contribution for L=           0  read in
    real space projection operators read in
  non local Contribution for L=           1  read in
    real space projection operators read in
  non local Contribution for L=           1  read in
    real space projection operators read in
    PAW grid and wavefunctions read in
 
   number of l-projection  operators is LMAX  =           6
   number of lm-projection operators is LMMAX =          18
 
 POTCAR:    PAW_PBE Co 02Aug2007                  
   VRHFIN =Co: d8 s1                                                            
   LEXCH  = PE                                                                  
   EATOM  =   813.3670 eV,   59.7808 Ry                                         
                                                                                
   TITEL  = PAW_PBE Co 02Aug2007                                                
   LULTRA =        F    use ultrasoft PP ?                                      
   IUNSCR =        1    unscreen: 0-lin 1-nonlin 2-no                           
   RPACOR =    2.000    partial core radius                                     
   POMASS =   58.933; ZVAL   =    9.000    mass and valenz                      
   RCORE  =    2.300    outmost cutoff radius                                   
   RWIGS  =    2.460; RWIGS  =    1.302    wigner-seitz radius (au A)           
   ENMAX  =  267.968; ENMIN  =  200.976 eV                                      
   RCLOC  =    1.203    cutoff for local pot                                    
   LCOR   =        T    correct aug charges                                     
   LPAW   =        T    paw PP                                                  
   EAUG   =  477.818                                                            
   DEXC   =    0.000                                                            
   RMAX   =    2.360    core radius for proj-oper                               
   RAUG   =    1.300    factor for augmentation sphere                          
   RDEP   =    2.393    radius for radial grids                                 
   RDEPT  =    1.864    core radius for aug-charge                              
                                                                                
   Atomic configuration                                                         
    9 entries                                                                   
     n  l   j            E        occ.                                          
     1  0  0.50     -7587.6674   2.0000                                         
     2  0  0.50      -893.6084   2.0000                                         
     2  1  1.50      -764.5805   6.0000                                         
     3  0  0.50       -97.5973   2.0000                                         
     3  1  1.50       -60.9648   6.0000                                         
     3  2  2.50        -4.2382   8.0000                                         
     4  0  0.50        -4.3746   1.0000                                         
     4  1  1.50        -4.0817   0.0000                                         
     4  3  2.50        -1.3606   0.0000                                         
   Description                                                                  
     l       E           TYP  RCUT    TYP  RCUT                                 
     2     -4.2382362     23  2.300                                             
     2     -5.5988188     23  2.300                                             
     0     -4.3745797     23  2.300                                             
     0      5.7660125     23  2.300                                             
     1     -2.7211652     23  2.300                                             
     1     16.9860234     23  2.300                                             
  local pseudopotential read in
  partial core-charges read in
  partial kinetic energy density read in
  atomic valenz-charges read in
  non local Contribution for L=           2  read in
    real space projection operators read in
  non local Contribution for L=           2  read in
    real space projection operators read in
  non local Contribution for L=           0  read in
    real space projection operators read in
  non local Contribution for L=           0  read in
    real space projection operators read in
  non local Contribution for L=           1  read in
    real space projection operators read in
  non local Contribution for L=           1  read in
    real space projection operators read in
    PAW grid and wavefunctions read in
 
   number of l-projection  operators is LMAX  =           6
   number of lm-projection operators is LMMAX =          18
 
 POTCAR:    PAW_PBE Cu 22Jun2005                  
   VRHFIN =Cu: d10 p1                                                           
   LEXCH  = PE                                                                  
   EATOM  =  1390.9808 eV,  102.2342 Ry                                         
                                                                                
   TITEL  = PAW_PBE Cu 22Jun2005                                                
   LULTRA =        F    use ultrasoft PP ?                                      
   IUNSCR =        1    unscreen: 0-lin 1-nonlin 2-no                           
   RPACOR =    2.000    partial core radius                                     
   POMASS =   63.546; ZVAL   =   11.000    mass and valenz                      
   RCORE  =    2.300    outmost cutoff radius                                   
   RWIGS  =    2.200; RWIGS  =    1.164    wigner-seitz radius (au A)           
   ENMAX  =  295.446; ENMIN  =  221.585 eV                                      
   ICORE  =        3    local potential                                         
   LCOR   =        T    correct aug charges                                     
   LPAW   =        T    paw PP                                                  
   EAUG   =  586.980                                                            
   DEXC   =    0.000                                                            
   RMAX   =    2.344    core radius for proj-oper                               
   RAUG   =    1.300    factor for augmentation sphere                          
   RDEP   =    2.302    radius for radial grids                                 
   RDEPT  =    1.771    core radius for aug-charge                              
                                                                                
   Atomic configuration                                                         
    9 entries                                                                   
     n  l   j            E        occ.                                          
     1  0  0.50     -8850.2468   2.0000                                         
     2  0  0.50     -1062.3498   2.0000                                         
     2  1  1.50      -916.8226   6.0000                                         
     3  0  0.50      -114.6929   2.0000                                         
     3  1  1.50       -72.1325   6.0000                                         
     3  2  2.50        -5.0394  10.0000                                         
     4  0  0.50        -4.6097   1.0000                                         
     4  1  0.50        -4.0817   0.0000                                         
     4  3  2.50        -1.3606   0.0000                                         
   Description                                                                  
     l       E           TYP  RCUT    TYP  RCUT                                 
     2     -5.0393973     23  2.200                                             
     2     10.8846608     23  2.200                                             
     0     -4.6097109     23  2.200                                             
     0      8.2520465     23  2.200                                             
     1     -2.7211652     23  2.200                                             
     1     21.7055443     23  2.200                                             
     3      2.7211652     23  2.300                                             
  local pseudopotential read in
  partial core-charges read in
  partial kinetic energy density read in
  atomic valenz-charges read in
  non local Contribution for L=           2  read in
    real space projection operators read in
  non local Contribution for L=           2  read in
    real space projection operators read in
  non local Contribution for L=           0  read in
    real space projection operators read in
  non local Contribution for L=           0  read in
    real space projection operators read in
  non local Contribution for L=           1  read in
    real space projection operators read in
  non local Contribution for L=           1  read in
    real space projection operators read in
    PAW grid and wavefunctions read in
 
   number of l-projection  operators is LMAX  =           6
   number of lm-projection operators is LMMAX =          18
 
 POTCAR:    PAW_PBE Ni 02Aug2007                  
   VRHFIN =Ni:                                                                  
   LEXCH  = PE                                                                  
   EATOM  =  1077.6739 eV,   79.2068 Ry                                         
                                                                                
   TITEL  = PAW_PBE Ni 02Aug2007                                                
   LULTRA =        F    use ultrasoft PP ?                                      
   IUNSCR =        1    unscreen: 0-lin 1-nonlin 2-no                           
   RPACOR =    2.000    partial core radius                                     
   POMASS =   58.690; ZVAL   =   10.000    mass and valenz                      
   RCORE  =    2.300    outmost cutoff radius                                   
   RWIGS  =    2.430; RWIGS  =    1.286    wigner-seitz radius (au A)           
   ENMAX  =  269.532; ENMIN  =  202.149 eV                                      
   RCLOC  =    1.201    cutoff for local pot                                    
   LCOR   =        T    correct aug charges                                     
   LPAW   =        T    paw PP                                                  
   EAUG   =  544.565                                                            
   DEXC   =    0.000                                                            
   RMAX   =    2.357    core radius for proj-oper                               
   RAUG   =    1.300    factor for augmentation sphere                          
   RDEP   =    2.390    radius for radial grids                                 
   RDEPT  =    1.838    core radius for aug-charge                              
                                                                                
   Atomic configuration                                                         
    9 entries                                                                   
     n  l   j            E        occ.                                          
     1  0  0.50     -8206.4253   2.0000                                         
     2  0  0.50      -976.1748   2.0000                                         
     2  1  1.50      -839.0571   6.0000                                         
     3  0  0.50      -105.9991   2.0000                                         
     3  1  1.50       -66.4603   6.0000                                         
     3  2  2.50        -4.6458   9.0000                                         
     4  0  0.50        -4.4926   1.0000                                         
     4  1  1.50        -4.0817   0.0000                                         
     4  3  2.50        -1.3606   0.0000                                         
   Description                                                                  
     l       E           TYP  RCUT    TYP  RCUT                                 
     2     -4.6457903     23  2.300                                             
     2     -6.0063729     23  2.300                                             
     0     -4.4925590     23  2.300                                             
     0      5.0102601     23  2.300                                             
     1     -2.7211652     23  2.300                                             
     1     16.5183231     23  2.300                                             
  local pseudopotential read in
  partial core-charges read in
  partial kinetic energy density read in
  atomic valenz-charges read in
  non local Contribution for L=           2  read in
    real space projection operators read in
  non local Contribution for L=           2  read in
    real space projection operators read in
  non local Contribution for L=           0  read in
    real space projection operators read in
  non local Contribution for L=           0  read in
    real space projection operators read in
  non local Contribution for L=           1  read in
    real space projection operators read in
  non local Contribution for L=           1  read in
    real space projection operators read in
    PAW grid and wavefunctions read in
 
   number of l-projection  operators is LMAX  =           6
   number of lm-projection operators is LMMAX =          18
 
 POTCAR:    PAW_PBE H 15Jun2001                   
   VRHFIN =H: ultrasoft test                                                    
   LEXCH  = PE                                                                  
   EATOM  =    12.4884 eV,    0.9179 Ry                                         
                                                                                
   TITEL  = PAW_PBE H 15Jun2001                                                 
   LULTRA =        F    use ultrasoft PP ?                                      
   IUNSCR =        0    unscreen: 0-lin 1-nonlin 2-no                           
   RPACOR =    0.000    partial core radius                                     
   POMASS =    1.000; ZVAL   =    1.000    mass and valenz                      
   RCORE  =    1.100    outmost cutoff radius                                   
   RWIGS  =    0.700; RWIGS  =    0.370    wigner-seitz radius (au A)           
   ENMAX  =  250.000; ENMIN  =  200.000 eV                                      
   RCLOC  =    0.701    cutoff for local pot                                    
   LCOR   =        T    correct aug charges                                     
   LPAW   =        T    paw PP                                                  
   EAUG   =  400.000                                                            
   RMAX   =    1.123    core radius for proj-oper                               
   RAUG   =    1.200    factor for augmentation sphere                          
   RDEP   =    1.112    radius for radial grids                                 
   RDEPT  =    0.926    core radius for aug-charge                              
                                                                                
   Atomic configuration                                                         
    2 entries                                                                   
     n  l   j            E        occ.                                          
     1  0  0.50        -6.4927   1.0000                                         
     2  1  0.50        -3.4015   0.0000                                         
   Description                                                                  
     l       E           TYP  RCUT    TYP  RCUT                                 
     0     -6.4927494     23  1.100                                             
     0      6.8029130     23  1.100                                             
     1     -4.0817478     23  1.100                                             
  local pseudopotential read in
  atomic valenz-charges read in
  non local Contribution for L=           0  read in
    real space projection operators read in
  non local Contribution for L=           0  read in
    real space projection operators read in
  non local Contribution for L=           1  read in
    real space projection operators read in
    PAW grid and wavefunctions read in
 
   number of l-projection  operators is LMAX  =           3
   number of lm-projection operators is LMMAX =           5
 
 Optimization of the real space projectors (new method)

 maximal supplied QI-value         = 14.36
 optimisation between [QCUT,QGAM] = [ 11.92, 23.98] = [ 39.79,161.09] Ry 
 Optimized for a Real-space Cutoff    1.49 Angstroem

   l    n(q)    QCUT    max X(q) W(low)/X(q) W(high)/X(q)  e(spline) 
   2     10    11.920    66.195    0.79E-04    0.18E-03    0.24E-06
   2     10    11.920    64.643    0.81E-04    0.19E-03    0.24E-06
   0     11    11.920    95.520    0.28E-04    0.54E-04    0.18E-06
   0     11    11.920    63.403    0.27E-04    0.52E-04    0.17E-06
   1     10    11.920    19.961    0.18E-04    0.11E-03    0.23E-06
   1     10    11.920    13.289    0.25E-04    0.87E-04    0.19E-06
 Optimization of the real space projectors (new method)

 maximal supplied QI-value         = 16.25
 optimisation between [QCUT,QGAM] = [ 11.86, 23.89] = [ 39.41,159.82] Ry 
 Optimized for a Real-space Cutoff    1.49 Angstroem

   l    n(q)    QCUT    max X(q) W(low)/X(q) W(high)/X(q)  e(spline) 
   2     10    11.864    80.901    0.13E-03    0.23E-03    0.37E-06
   2     10    11.864    75.754    0.13E-03    0.23E-03    0.38E-06
   0     11    11.864    58.752    0.44E-04    0.11E-04    0.20E-06
   0     11    11.864    30.679    0.36E-04    0.10E-04    0.18E-06
   1     10    11.864    17.977    0.31E-04    0.45E-04    0.10E-06
   1     10    11.864    13.559    0.25E-04    0.37E-04    0.89E-07
 Optimization of the real space projectors (new method)

 maximal supplied QI-value         = 16.25
 optimisation between [QCUT,QGAM] = [ 11.86, 23.89] = [ 39.41,159.82] Ry 
 Optimized for a Real-space Cutoff    1.33 Angstroem

   l    n(q)    QCUT    max X(q) W(low)/X(q) W(high)/X(q)  e(spline) 
   2      9    11.864    65.824    0.22E-03    0.53E-03    0.26E-06
   2      9    11.864    61.429    0.22E-03    0.53E-03    0.26E-06
   0      9    11.864    56.174    0.21E-03    0.32E-04    0.15E-06
   0      9    11.864    31.263    0.19E-03    0.30E-04    0.14E-06
   1      9    11.864    19.828    0.63E-04    0.30E-03    0.16E-06
   1      9    11.864    15.139    0.49E-04    0.25E-03    0.13E-06
 Optimization of the real space projectors (new method)

 maximal supplied QI-value         = 16.25
 optimisation between [QCUT,QGAM] = [ 11.86, 23.89] = [ 39.41,159.82] Ry 
 Optimized for a Real-space Cutoff    1.49 Angstroem

   l    n(q)    QCUT    max X(q) W(low)/X(q) W(high)/X(q)  e(spline) 
   2     10    11.864     4.610    0.10E-03    0.20E-03    0.29E-06
   2     10    11.864     8.522    0.17E-03    0.33E-03    0.50E-06
   0     11    11.864    51.609    0.52E-04    0.55E-04    0.33E-06
   0     11    11.864    27.747    0.46E-04    0.52E-04    0.31E-06
   1     10    11.864    20.408    0.54E-04    0.25E-04    0.21E-06
   1     10    11.864    13.425    0.48E-04    0.22E-04    0.18E-06
 Optimization of the real space projectors (new method)

 maximal supplied QI-value         = 16.25
 optimisation between [QCUT,QGAM] = [ 11.86, 23.89] = [ 39.41,159.82] Ry 
 Optimized for a Real-space Cutoff    1.33 Angstroem

   l    n(q)    QCUT    max X(q) W(low)/X(q) W(high)/X(q)  e(spline) 
   2      9    11.864    60.317    0.21E-03    0.51E-03    0.25E-06
   2      9    11.864    55.921    0.21E-03    0.51E-03    0.26E-06
   0      9    11.864    51.690    0.22E-03    0.30E-04    0.17E-06
   0      9    11.864    30.015    0.20E-03    0.28E-04    0.15E-06
   1      9    11.864    18.849    0.76E-04    0.33E-03    0.17E-06
   1      9    11.864    14.624    0.60E-04    0.28E-03    0.15E-06
 Optimization of the real space projectors (new method)

 maximal supplied QI-value         = 34.20
 optimisation between [QCUT,QGAM] = [ 11.97, 23.94] = [ 40.13,160.53] Ry 
 Optimized for a Real-space Cutoff    1.18 Angstroem

   l    n(q)    QCUT    max X(q) W(low)/X(q) W(high)/X(q)  e(spline) 
   0      8    11.971    19.460    0.15E-03    0.31E-03    0.25E-06
   0      8    11.971    12.209    0.13E-03    0.29E-03    0.25E-06
   1      8    11.971     4.655    0.22E-03    0.24E-03    0.21E-06
  PAW_PBE Pt 04Feb2005                  :
 energy of atom  1       EATOM= -729.1176
 kinetic energy error for atom=    0.0021 (will be added to EATOM!!)
  PAW_PBE Fe 06Sep2000                  :
 energy of atom  2       EATOM= -594.3153
 kinetic energy error for atom=    0.0024 (will be added to EATOM!!)
  PAW_PBE Co 02Aug2007                  :
 energy of atom  3       EATOM= -813.3670
 kinetic energy error for atom=    0.0026 (will be added to EATOM!!)
  PAW_PBE Cu 22Jun2005                  :
 energy of atom  4       EATOM=-1390.9808
 kinetic energy error for atom=    0.0036 (will be added to EATOM!!)
  PAW_PBE Ni 02Aug2007                  :
 energy of atom  5       EATOM=-1077.6739
 kinetic energy error for atom=    0.0027 (will be added to EATOM!!)
  PAW_PBE H 15Jun2001                   :
 energy of atom  6       EATOM=  -12.4884
 kinetic energy error for atom=    0.0008 (will be added to EATOM!!)
 
 
 POSCAR: 10.96                                   
  positions in direct lattice
  velocities in cartesian coordinates
 exchange correlation table for  LEXCH =        8
   RHO(1)=    0.500       N(1)  =     2000
   RHO(2)=  100.500       N(2)  =     4000
 


--------------------------------------------------------------------------------------------------------


 ion  position               nearest neighbor table
   1  0.787  0.880  0.313-  49 2.59  59 2.62  28 2.64  19 2.73  33 2.75  61 2.75  11 2.75  29 2.75
                            60 2.76   4 2.80   2 2.81  12 2.84
   2  0.043  0.881  0.311-  79 2.55  77 2.60  28 2.70  30 2.72  60 2.72  33 2.74  52 2.75   6 2.79
                            22 2.80   1 2.81   4 2.86  16 2.93
   3  0.279  0.379  0.316-  64 2.55  31 2.65  39 2.66  68 2.66  33 2.71   5 2.74  13 2.77  19 2.79
                            43 2.80  25 2.81  30 2.81  18 2.93
   4  0.870  0.965  0.418-  17 2.69  11 2.72   9 2.73  60 2.75  12 2.78   1 2.80   6 2.80  16 2.83
                             2 2.86
   5  0.118  0.465  0.420-  39 2.67  12 2.69   7 2.69  33 2.70  16 2.70  10 2.72   3 2.74  25 2.78
                            13 2.82
   6  0.127  0.963  0.416-  81 1.64   8 2.69  52 2.72  10 2.73  14 2.76   9 2.77   2 2.79   4 2.80
                            22 2.81  16 2.82
   7  0.876  0.457  0.420-  39 2.65  75 2.68   5 2.69   9 2.70  15 2.70  10 2.72  12 2.75  29 2.76
                            27 2.79
   8  0.374  0.960  0.415-  43 2.58  52 2.65  61 2.69   6 2.69  14 2.70  27 2.71  13 2.72  10 2.74
                            11 2.74
   9  0.872  0.214  0.414-  75 2.63  60 2.68   7 2.70  15 2.70  17 2.73   4 2.73   6 2.77  22 2.79
                            10 2.79
  10  0.127  0.213  0.416-  81 1.67  39 2.65  43 2.69  13 2.70   5 2.72   7 2.72   6 2.73   8 2.74
                            22 2.74   9 2.79
  11  0.625  0.959  0.417-  12 2.72  27 2.72   4 2.72  13 2.73   8 2.74   1 2.75  61 2.75  17 2.75
                            19 2.79
  12  0.873  0.710  0.420-  33 2.69   5 2.69  11 2.72  29 2.73  27 2.74   7 2.75  16 2.76   4 2.78
                             1 2.84
  13  0.376  0.208  0.418-  10 2.70  43 2.71   8 2.72  11 2.73  17 2.75  25 2.76  19 2.77   3 2.77
                             5 2.82
  14  0.379  0.711  0.417-  44 2.63  27 2.67  52 2.68   8 2.70  15 2.72  30 2.75   6 2.76  25 2.77
                            16 2.79
  15  0.627  0.462  0.417-  44 2.64  75 2.66   7 2.70   9 2.70  27 2.71  14 2.72  18 2.73  17 2.78
                            25 2.79
  16  0.127  0.706  0.421-  33 2.66   5 2.70  25 2.70  12 2.76  30 2.78  14 2.79   6 2.82   4 2.83
                             2 2.93
  17  0.625  0.210  0.416-   4 2.69  18 2.72   9 2.73  60 2.74  25 2.74  13 2.75  11 2.75  15 2.78
                            19 2.82
  18  0.547  0.377  0.315-  67 2.55  68 2.61  26 2.67  44 2.71  60 2.71  17 2.72  75 2.73  15 2.73
                            25 2.81  30 2.81  19 2.84   3 2.93
  19  0.534  0.125  0.312-  80 2.54  68 2.56  59 2.58  43 2.64   1 2.73  61 2.74  13 2.77  11 2.79
                             3 2.79  17 2.82  18 2.84  60 2.86
  20  0.552  0.123  0.049-  37 2.55  57 2.55  48 2.56  62 2.66  34 2.75  63 2.75  56 2.76  47 2.76
                            45 2.89
  21  0.118  0.455  0.128-  47 2.53  36 2.53  40 2.54  42 2.61  64 2.66  69 2.68  70 2.73  31 2.73
                            50 2.74  57 2.80  58 2.90  74 2.90
  22  0.046  0.135  0.312-  65 2.53  77 2.56  55 2.56  43 2.67  39 2.68  10 2.74  75 2.76   9 2.79
                             2 2.80  60 2.80   6 2.81  52 2.82  31 3.38
  23  0.033  0.135  0.038-  70 2.57  41 2.58  40 2.62  76 2.65  62 2.69  24 2.71  45 2.75  35 2.89
                            53 2.94
  24  0.132  0.957  0.134-  79 2.51  77 2.56  35 2.57  53 2.57  55 2.60  70 2.65  58 2.70  23 2.71
                            73 2.72  38 2.73  66 2.80  41 2.85
  25  0.374  0.460  0.419-  16 2.70  17 2.74  13 2.76  14 2.77   5 2.78  15 2.79  30 2.79   3 2.81
                            18 2.81
  26  0.457  0.549  0.219-  73 2.51  74 2.53  51 2.55  30 2.65  79 2.65  18 2.67  44 2.70  78 2.73
                            32 2.73  68 2.78  64 2.78  67 2.84
  27  0.622  0.712  0.418-  44 2.66  14 2.67  61 2.70  15 2.71   8 2.71  11 2.72  12 2.74  29 2.77
                             7 2.79
  28  0.956  0.783  0.218-  58 2.56  50 2.56  66 2.59   1 2.64  42 2.65  49 2.67  33 2.67   2 2.70
                            64 2.72  59 2.87  79 3.01  77 3.01
  29  0.798  0.623  0.317-  42 2.55  39 2.61  32 2.63  49 2.65  75 2.66  33 2.72  12 2.73   1 2.75
                             7 2.76  27 2.77  61 2.77  44 2.79
  30  0.288  0.631  0.315-  79 2.55  64 2.61  26 2.65  33 2.71  52 2.71   2 2.72  14 2.75  44 2.76
                            16 2.78  25 2.79   3 2.81  18 2.81
  31  0.199  0.277  0.225-  70 2.49  43 2.57  57 2.58  55 2.62  65 2.62  39 2.63   3 2.65  21 2.73
                            42 2.78  80 2.81  64 2.93  68 2.93  22 3.38
  32  0.705  0.552  0.221-  54 2.54  69 2.56  51 2.58  29 2.63  49 2.63  44 2.66  78 2.67  75 2.68
                            42 2.70  65 2.70  26 2.73  67 2.77
  33  0.041  0.633  0.321-  16 2.66  28 2.67  64 2.69  12 2.69   5 2.70   3 2.71  30 2.71  42 2.72
                            29 2.72   2 2.74   1 2.75  39 2.76
  34  0.792  0.862  0.051-  50 2.38  48 2.46  66 2.53  63 2.62  36 2.62  71 2.63  20 2.75  35 2.86
                            62 2.92
  35  0.053  0.862  0.044-  36 2.47  58 2.55  24 2.57  66 2.62  72 2.68  53 2.84  34 2.86  62 2.89
                            23 2.89
  36  0.046  0.641  0.046-  35 2.47  21 2.53  58 2.56  50 2.62  34 2.62  72 2.68  47 2.85  71 2.92
                            40 3.01
  37  0.628  0.229  0.134-  67 2.50  56 2.50  51 2.50  59 2.55  20 2.55  68 2.55  74 2.56  62 2.58
                            41 2.59  66 2.75  57 2.89
  38  0.383  0.953  0.133-  53 2.44  45 2.46  80 2.47  78 2.53  55 2.54  63 2.56  73 2.59  48 2.60
                            54 2.61  24 2.73  57 2.74  70 2.78
  39  0.035  0.384  0.321-  29 2.61  42 2.62  31 2.63  10 2.65   7 2.65   3 2.66  75 2.66   5 2.67
                            22 2.68  65 2.69  33 2.76  43 2.92
  40  0.016  0.382  0.041-  69 2.39  76 2.54  21 2.54  71 2.59  23 2.62  70 2.63  45 2.98  36 3.01

  41  0.870  0.217  0.132-  76 2.44  77 2.48  67 2.52  65 2.53  62 2.56  23 2.58  37 2.59  69 2.64
                            51 2.65  66 2.70  70 2.71  24 2.85
  42  0.956  0.541  0.224-  50 2.51  29 2.55  69 2.60  21 2.61  39 2.62  28 2.65  65 2.67  32 2.70
                            33 2.72  49 2.72  64 2.75  31 2.78
  43  0.299  0.115  0.319-  55 2.51  31 2.57   8 2.58  80 2.59  19 2.64  52 2.66  61 2.66  22 2.67
                            10 2.69  13 2.71   3 2.80  39 2.92
  44  0.542  0.627  0.320-  78 2.62  14 2.63  15 2.64  27 2.66  32 2.66  61 2.68  52 2.68  26 2.70
                            18 2.71  75 2.71  30 2.76  29 2.79
  45  0.293  0.115  0.045-  38 2.46  70 2.49  53 2.58  57 2.62  63 2.72  23 2.75  20 2.89  47 2.98
                            40 2.98
  46  0.552  0.623  0.048-  51 2.40  54 2.41  73 2.41  71 2.59  76 2.68  53 2.72  63 2.73  56 2.74
                            72 2.78
  47  0.306  0.380  0.047-  74 2.34  21 2.53  56 2.59  57 2.60  72 2.61  20 2.76  36 2.85  45 2.98

  48  0.624  0.945  0.136-  49 2.37  34 2.46  80 2.47  54 2.50  63 2.53  20 2.56  59 2.58  38 2.60
                            50 2.66  57 2.78  66 2.84
  49  0.708  0.790  0.221-  48 2.37  50 2.44  54 2.49   1 2.59  61 2.63  32 2.63  29 2.65  80 2.65
                            28 2.67  78 2.69  42 2.72  59 2.86
  50  0.861  0.697  0.132-  34 2.38  71 2.38  49 2.44  54 2.50  42 2.51  28 2.56  69 2.57  36 2.62
                            48 2.66  21 2.74
  51  0.628  0.458  0.130-  46 2.40  76 2.44  37 2.50  56 2.52  26 2.55  32 2.58  67 2.62  41 2.65
                            69 2.67  74 2.70  73 2.75  54 2.83
  52  0.298  0.873  0.317-  55 2.44  79 2.49  78 2.54   8 2.65  61 2.65  43 2.66  14 2.68  44 2.68
                            30 2.71   6 2.72   2 2.75  22 2.82
  53  0.306  0.873  0.045-  73 2.41  38 2.44  24 2.57  45 2.58  63 2.66  46 2.72  72 2.80  35 2.84
                            23 2.94
  54  0.623  0.718  0.131-  46 2.41  71 2.47  63 2.47  49 2.49  48 2.50  50 2.50  32 2.54  78 2.59
                            38 2.61  73 2.61  69 2.80  51 2.83
  55  0.230  0.024  0.228-  52 2.44  78 2.51  43 2.51  79 2.53  80 2.54  38 2.54  22 2.56  24 2.60
                            31 2.62  70 2.71  77 2.87
  56  0.543  0.378  0.040-  37 2.50  74 2.50  51 2.52  47 2.59  72 2.67  76 2.68  62 2.74  46 2.74
                            20 2.76
  57  0.377  0.206  0.137-  68 2.47  20 2.55  80 2.56  31 2.58  47 2.60  45 2.62  38 2.74  74 2.74
                            48 2.78  70 2.79  21 2.80  37 2.89
  58  0.148  0.703  0.137-  72 2.43  64 2.46  79 2.51  35 2.55  36 2.56  28 2.56  73 2.68  74 2.68
                            24 2.70  21 2.90
  59  0.704  0.053  0.221-  66 2.49  37 2.55  48 2.58  19 2.58  60 2.60   1 2.62  68 2.68  67 2.72
                            77 2.77  80 2.82  49 2.86  28 2.87
  60  0.794  0.128  0.315-  67 2.51  77 2.55  59 2.60   9 2.68  18 2.71   2 2.72  17 2.74   4 2.75
                             1 2.76  75 2.79  22 2.80  19 2.86
  61  0.541  0.872  0.316-  78 2.48  80 2.50  49 2.63  52 2.65  43 2.66  44 2.68   8 2.69  27 2.70
                            19 2.74   1 2.75  11 2.75  29 2.77
  62  0.792  0.128  0.041-  66 2.52  41 2.56  37 2.58  20 2.66  76 2.68  23 2.69  56 2.74  35 2.89
                            34 2.92
  63  0.548  0.875  0.041-  54 2.47  48 2.53  38 2.56  34 2.62  53 2.66  71 2.68  45 2.72  46 2.73
                            20 2.75
  64  0.208  0.539  0.223-  58 2.46   3 2.55  30 2.61  74 2.62  21 2.66  33 2.69  68 2.70  28 2.72
                            42 2.75  26 2.78  79 2.91  31 2.93
  65  0.948  0.303  0.223-  69 2.51  22 2.53  41 2.53  67 2.57  75 2.58  70 2.61  31 2.62  77 2.64
                            42 2.67  39 2.69  32 2.70
  66  0.870  0.971  0.133-  59 2.49  62 2.52  34 2.53  77 2.54  28 2.59  35 2.62  41 2.70  37 2.75
                            24 2.80  48 2.84
  67  0.718  0.294  0.226-  37 2.50  60 2.51  41 2.52  18 2.55  65 2.57  77 2.58  75 2.58  51 2.62
                            59 2.72  32 2.77  26 2.84
  68  0.457  0.296  0.222-  57 2.47  74 2.49  37 2.55  19 2.56  18 2.61   3 2.66  59 2.68  64 2.70
                            26 2.78  80 2.93  31 2.93
  69  0.872  0.457  0.130-  40 2.39  76 2.47  71 2.48  65 2.51  32 2.56  50 2.57  42 2.60  41 2.64
                            51 2.67  21 2.68  70 2.77  54 2.80
  70  0.124  0.203  0.132-  45 2.49  31 2.49  23 2.57  65 2.61  40 2.63  24 2.65  55 2.71  41 2.71
                            21 2.73  69 2.77  38 2.78  57 2.79
  71  0.787  0.625  0.044-  50 2.38  54 2.47  69 2.48  46 2.59  40 2.59  34 2.63  63 2.68  76 2.75
                            36 2.92
  72  0.299  0.621  0.048-  58 2.43  74 2.44  73 2.50  47 2.61  56 2.67  35 2.68  36 2.68  46 2.78
                            53 2.80
  73  0.386  0.716  0.131-  53 2.41  46 2.41  72 2.50  26 2.51  78 2.55  38 2.59  79 2.59  54 2.61
                            58 2.68  24 2.72  51 2.75  74 2.90
  74  0.385  0.452  0.131-  47 2.34  72 2.44  68 2.49  56 2.50  26 2.53  37 2.56  64 2.62  58 2.68
                            51 2.70  57 2.74  73 2.90  21 2.90
  75  0.793  0.383  0.319-  65 2.58  67 2.58   9 2.63  39 2.66  29 2.66  15 2.66   7 2.68  32 2.68
                            44 2.71  18 2.73  22 2.76  60 2.79
  76  0.789  0.373  0.044-  51 2.44  41 2.44  69 2.47  40 2.54  23 2.65  46 2.68  56 2.68  62 2.68
                            71 2.75
  77  0.954  0.059  0.221-  41 2.48  66 2.54  60 2.55  22 2.56  24 2.56  67 2.58   2 2.60  65 2.64
                            59 2.77  55 2.87  79 2.91  28 3.01
  78  0.461  0.796  0.226-  61 2.48  55 2.51  80 2.52  38 2.53  52 2.54  73 2.55  54 2.59  79 2.60
                            44 2.62  32 2.67  49 2.69  26 2.73
  79  0.222  0.797  0.225-  52 2.49  58 2.51  24 2.51  55 2.53  30 2.55   2 2.55  73 2.59  78 2.60
                            26 2.65  77 2.91  64 2.91  28 3.01
  80  0.461  0.026  0.224-  38 2.47  48 2.47  61 2.50  78 2.52  55 2.54  19 2.54  57 2.56  43 2.59
                            49 2.65  31 2.81  59 2.82  68 2.93
  81  0.127  0.086  0.459-   6 1.64  10 1.67
 
  LATTYP: Found a hexagonal cell.
 ALAT       =    10.9600000381
 C/A-ratio  =     2.0072992631
  
  Lattice vectors:
  
 A1 = (   5.4800000190,  -9.4916384585,   0.0000000000)
 A2 = ( -10.9600000381,   0.0000000000,   0.0000000000)
 A3 = (   0.0000000000,   0.0000000000, -22.0000000000)


Analysis of symmetry for initial positions (statically):
=====================================================================
 Subroutine PRICEL returns:
 Original cell was already a primitive cell.
 

 Routine SETGRP: Setting up the symmetry group for a 
 hexagonal supercell.


 Subroutine GETGRP returns: Found  1 space group operations
 (whereof  1 operations were pure point group operations)
 out of a pool of 24 trial point group operations.


The static configuration has the point symmetry C_1 .


Analysis of symmetry for dynamics (positions and initial velocities):
=====================================================================
 Subroutine PRICEL returns:
 Original cell was already a primitive cell.
 

 Routine SETGRP: Setting up the symmetry group for a 
 hexagonal supercell.


 Subroutine GETGRP returns: Found  1 space group operations
 (whereof  1 operations were pure point group operations)
 out of a pool of 24 trial point group operations.


The dynamic configuration has the point symmetry C_1 .


Analysis of constrained symmetry for selective dynamics:
=====================================================================
 Subroutine PRICEL returns:
 Original cell was already a primitive cell.
 

 Routine SETGRP: Setting up the symmetry group for a 
 hexagonal supercell.


 Subroutine GETGRP returns: Found  1 space group operations
 (whereof  1 operations were pure point group operations)
 out of a pool of 24 trial point group operations.


The constrained configuration has the point symmetry C_1 .


Analysis of structural, dynamic, and magnetic symmetry:
=====================================================================
 Subroutine PRICEL returns:
 Original cell was already a primitive cell.
 

 Routine SETGRP: Setting up the symmetry group for a 
 hexagonal supercell.


 Subroutine GETGRP returns: Found  1 space group operations
 (whereof  1 operations were pure point group operations)
 out of a pool of 24 trial point group operations.


The magnetic configuration has the point symmetry C_1 .


 Subroutine INISYM returns: Found  1 space group operations
 (whereof  1 operations are pure point group operations),
 and found     1 'primitive' translations

 
 
 KPOINTS: mesh auto                               

Automatic generation of k-mesh.
Space group operators:
 irot       det(A)        alpha          n_x          n_y          n_z        tau_x        tau_y        tau_z
    1     1.000000     0.000000     1.000000     0.000000     0.000000     0.000000     0.000000     0.000000
 
 Subroutine IBZKPT returns following result:
 ===========================================
 
 Found      4 irreducible k-points:
 
 Following reciprocal coordinates:
            Coordinates               Weight
  0.000000  0.000000  0.000000      1.000000
  0.500000 -0.000000  0.000000      1.000000
  0.000000  0.500000  0.000000      1.000000
  0.500000  0.500000  0.000000      1.000000
 
 Following cartesian coordinates:
            Coordinates               Weight
  0.000000  0.000000  0.000000      1.000000
  0.045620 -0.026339  0.000000      1.000000
  0.000000  0.052678  0.000000      1.000000
  0.045620  0.026339  0.000000      1.000000
 


--------------------------------------------------------------------------------------------------------




 Dimension of arrays:
   k-points           NKPTS =      4   k-points in BZ     NKDIM =      4   number of bands    NBANDS=    588
   number of dos      NEDOS =    301   number of ions     NIONS =     81
   non local maximal  LDIM  =      6   non local SUM 2l+1 LMDIM =     18
   total plane-waves  NPLWV = ******
   max r-space proj   IRMAX =   7247   max aug-charges    IRDMAX=  31567
   dimension x,y,z NGX =    84 NGY =   84 NGZ =  168
   dimension x,y,z NGXF=   168 NGYF=  168 NGZF=  336
   support grid    NGXF=   168 NGYF=  168 NGZF=  336
   ions per type =              32  13  10  13  12   1
   NGX,Y,Z   is equivalent  to a cutoff of  12.74, 12.74, 12.70 a.u.
   NGXF,Y,Z  is equivalent  to a cutoff of  25.48, 25.48, 25.39 a.u.

 SYSTEM =  Pt111                                   
 POSCAR =  10.96                                   

 Startparameter for this run:
   NWRITE =      2    write-flag & timer
   PREC   = accura    normal or accurate (medium, high low for compatibility)
   ISTART =      0    job   : 0-new  1-cont  2-samecut
   ICHARG =      2    charge: 1-file 2-atom 10-const
   ISPIN  =      2    spin polarized calculation?
   LNONCOLLINEAR =      F non collinear calculations
   LSORBIT =      F    spin-orbit coupling
   INIWAV =      1    electr: 0-lowe 1-rand  2-diag
   LASPH  =      F    aspherical Exc in radial PAW
   METAGGA=      F    non-selfconsistent MetaGGA calc.

 Electronic Relaxation 1
   ENCUT  =  550.0 eV  40.42 Ry    6.36 a.u.  20.96 20.96 42.07*2*pi/ulx,y,z
   ENINI  =  550.0     initial cutoff
   ENAUG  =  587.0 eV  augmentation charge cutoff
   NELM   =    200;   NELMIN=  2; NELMDL= -5     # of ELM steps 
   EDIFF  = 0.1E-04   stopping-criterion for ELM
   LREAL  =      T    real-space projection
   NLSPLINE    = F    spline interpolate recip. space projectors
   LCOMPAT=      F    compatible to vasp.4.4
   GGA_COMPAT  = T    GGA compatible to vasp.4.4-vasp.4.6
   LMAXPAW     = -100 max onsite density
   LMAXMIX     =    2 max onsite mixed and CHGCAR
   VOSKOWN=      0    Vosko Wilk Nusair interpolation
   ROPT   =   -0.00025  -0.00025  -0.00025  -0.00025
   ROPT   =   -0.00025  -0.00025
 Ionic relaxation
   EDIFFG = -.5E-01   stopping-criterion for IOM
   NSW    =    300    number of steps for IOM
   NBLOCK =      1;   KBLOCK =    300    inner block; outer block 
   IBRION =      2    ionic relax: 0-MD 1-quasi-New 2-CG
   NFREE  =      1    steps in history (QN), initial steepest desc. (CG)
   ISIF   =      2    stress and relaxation
   IWAVPR =     11    prediction:  0-non 1-charg 2-wave 3-comb
   ISYM   =      2    0-nonsym 1-usesym 2-fastsym
   LCORR  =      T    Harris-Foulkes like correction to forces

   POTIM  = 0.5000    time-step for ionic-motion
   TEIN   =    0.0    initial temperature
   TEBEG  =    0.0;   TEEND  =   0.0 temperature during run
   SMASS  =  -3.00    Nose mass-parameter (am)
   estimated Nose-frequenzy (Omega)   =  0.10E-29 period in steps =****** mass=  -0.275E-26a.u.
   SCALEE = 1.0000    scale energy and forces
   NPACO  =    256;   APACO  = 16.0  distance and # of slots for P.C.
   PSTRESS=    0.0 pullay stress

  Mass of Ions in am
   POMASS = 195.08 55.85 58.93 63.55 58.69  1.00
  Ionic Valenz
   ZVAL   =  10.00  8.00  9.00 11.00 10.00  1.00
  Atomic Wigner-Seitz radii
   RWIGS  =  -1.00 -1.00 -1.00 -1.00 -1.00 -1.00
  virtual crystal weights 
   VCA    =   1.00  1.00  1.00  1.00  1.00  1.00
   NELECT =     778.0000    total number of electrons
   NUPDOWN=      -1.0000    fix difference up-down

 DOS related values:
   EMIN   =  10.00;   EMAX   =-10.00  energy-range for DOS
   EFERMI =   0.00
   ISMEAR =     1;   SIGMA  =   0.10  broadening in eV -4-tet -1-fermi 0-gaus

 Electronic relaxation 2 (details)
   IALGO  =     68    algorithm
   LDIAG  =      T    sub-space diagonalisation (order eigenvalues)
   LSUBROT=      F    optimize rotation matrix (better conditioning)
   TURBO    =      0    0=normal 1=particle mesh
   IRESTART =      0    0=no restart 2=restart with 2 vectors
   NREBOOT  =      0    no. of reboots
   NMIN     =      0    reboot dimension
   EREF     =   0.00    reference energy to select bands
   IMIX   =      4    mixing-type and parameters
     AMIX     =   0.40;   BMIX     =  1.00
     AMIX_MAG =   1.60;   BMIX_MAG =  1.00
     AMIN     =   0.10
     WC   =   100.;   INIMIX=   1;  MIXPRE=   1;  MAXMIX= -45

 Intra band minimization:
   WEIMIN = 0.0010     energy-eigenvalue tresh-hold
   EBREAK =  0.43E-08  absolut break condition
   DEPER  =   0.30     relativ break condition  

   TIME   =   0.40     timestep for ELM

  volume/ion in A,a.u.               =      28.25       190.67
  Fermi-wavevector in a.u.,A,eV,Ry     =   1.142554  2.159113 17.761434  1.305429
  Thomas-Fermi vector in A             =   2.279251
 
 Write flags
   LWAVE        =      F    write WAVECAR
   LDOWNSAMPLE  =      F    k-point downsampling of WAVECAR
   LCHARG       =      F    write CHGCAR
   LVTOT        =      F    write LOCPOT, total local potential
   LVHAR        =      F    write LOCPOT, Hartree potential only
   LELF         =      F    write electronic localiz. function (ELF)
   LORBIT       =      0    0 simple, 1 ext, 2 COOP (PROOUT), +10 PAW based schemes


 Dipole corrections
   LMONO  =      F    monopole corrections only (constant potential shift)
   LDIPOL =      F    correct potential (dipole corrections)
   IDIPOL =      0    1-x, 2-y, 3-z, 4-all directions 
   EPSILON=  1.0000000 bulk dielectric constant

 Exchange correlation treatment:
   GGA     =    --    GGA type
   LEXCH   =     8    internal setting for exchange type
   VOSKOWN=      0    Vosko Wilk Nusair interpolation
   LHFCALC =     F    Hartree Fock is set to
   LHFONE  =     F    Hartree Fock one center treatment
   AEXX    =    0.0000 exact exchange contribution

 Linear response parameters
   LEPSILON=     F    determine dielectric tensor
   LRPA    =     F    only Hartree local field effects (RPA)
   LNABLA  =     F    use nabla operator in PAW spheres
   LVEL    =     F    velocity operator in full k-point grid
   LINTERFAST=   F  fast interpolation
   KINTER  =     0    interpolate to denser k-point grid
   CSHIFT  =0.1000    complex shift for real part using Kramers Kronig
   OMEGAMAX=  -1.0    maximum frequency
   DEG_THRESHOLD= 0.2000000E-02 threshold for treating states as degnerate
   RTIME   =   -0.100 relaxation time in fs
  (WPLASMAI=    0.000 imaginary part of plasma frequency in eV, 0.658/RTIME)
   DFIELD  = 0.0000000 0.0000000 0.0000000 field for delta impulse in time
 
 Orbital magnetization related:
   ORBITALMAG=     F  switch on orbital magnetization
   LCHIMAG   =     F  perturbation theory with respect to B field
   DQ        =  0.001000  dq finite difference perturbation B field
   LLRAUG    =     F  two centre corrections for induced B field



--------------------------------------------------------------------------------------------------------


 conjugate gradient relaxation of ions
   using selective dynamics as specified on POSCAR
 charge density and potential will be updated during run
 spin polarized calculation
 RMM-DIIS sequential band-by-band and
  variant of blocked Davidson during initial phase
 perform sub-space diagonalisation
    before iterative eigenvector-optimisation
 modified Broyden-mixing scheme, WC =      100.0
 initial mixing is a Kerker type mixing with AMIX =  0.4000 and BMIX =      1.0000
 Hartree-type preconditioning will be used
 using additional bands          199
 real space projection scheme for non local part
 use partial core corrections
 calculate Harris-corrections to forces 
   (improved forces if not selfconsistent)
 use gradient corrections 
 use of overlap-Matrix (Vanderbilt PP)
 Methfessel and Paxton  Order N= 1 SIGMA  =   0.10


--------------------------------------------------------------------------------------------------------


  energy-cutoff  :      550.00
  volume of cell :     2288.62
      direct lattice vectors                 reciprocal lattice vectors
    10.960000038  0.000000000  0.000000000     0.091240876 -0.052677944  0.000000000
     5.480000019  9.491638459  0.000000000     0.000000000  0.105355888  0.000000000
     0.000000000  0.000000000 22.000000000     0.000000000  0.000000000  0.045454545

  length of vectors
    10.960000038 10.960000038 22.000000000     0.105355888  0.105355888  0.045454545


 
 k-points in units of 2pi/SCALE and weight: mesh auto                               
   0.00000000  0.00000000  0.00000000       0.250
   0.04562044 -0.02633897  0.00000000       0.250
   0.00000000  0.05267794  0.00000000       0.250
   0.04562044  0.02633897  0.00000000       0.250
 
 k-points in reciprocal lattice and weights: mesh auto                               
   0.00000000  0.00000000  0.00000000       0.250
   0.50000000 -0.00000000  0.00000000       0.250
   0.00000000  0.50000000  0.00000000       0.250
   0.50000000  0.50000000  0.00000000       0.250
 
 position of ions in fractional coordinates (direct lattice) 
   0.78716449  0.87970585  0.31344225
   0.04319662  0.88111032  0.31121756
   0.27937409  0.37942210  0.31615760
   0.87038591  0.96519178  0.41779086
   0.11841422  0.46450531  0.41972217
   0.12704862  0.96312024  0.41612172
   0.87619266  0.45738127  0.42012405
   0.37433097  0.95980067  0.41476627
   0.87178949  0.21381248  0.41377741
   0.12696038  0.21253126  0.41607024
   0.62492667  0.95899808  0.41686898
   0.87286637  0.71014246  0.41962858
   0.37573352  0.20751009  0.41776323
   0.37876822  0.71085574  0.41662699
   0.62732869  0.46249768  0.41671967
   0.12713310  0.70603496  0.42099364
   0.62490615  0.21035146  0.41556533
   0.54747838  0.37696852  0.31506562
   0.53437436  0.12489005  0.31235717
   0.55221254  0.12299804  0.04920078
   0.11794475  0.45537765  0.12792996
   0.04637075  0.13453050  0.31192522
   0.03315463  0.13494865  0.03774463
   0.13163928  0.95747593  0.13402787
   0.37418077  0.46029497  0.41863696
   0.45666635  0.54926488  0.21932677
   0.62180385  0.71202303  0.41764148
   0.95580826  0.78314309  0.21838922
   0.79763967  0.62339900  0.31729172
   0.28848525  0.63107281  0.31539353
   0.19867921  0.27716880  0.22548113
   0.70458275  0.55232899  0.22136195
   0.04069391  0.63336152  0.32125108
   0.79203979  0.86196241  0.05119480
   0.05269812  0.86242103  0.04447354
   0.04570358  0.64080367  0.04585962
   0.62802628  0.22947321  0.13379689
   0.38250601  0.95344831  0.13273420
   0.03504671  0.38399698  0.32130802
   0.01619296  0.38187648  0.04120256
   0.87042992  0.21689071  0.13178577
   0.95634044  0.54143896  0.22370788
   0.29860935  0.11526463  0.31880519
   0.54166155  0.62711165  0.31984649
   0.29293662  0.11522657  0.04538329
   0.55201031  0.62334596  0.04788006
   0.30575695  0.38026450  0.04684287
   0.62395646  0.94531321  0.13639314
   0.70835970  0.79024108  0.22101343
   0.86054327  0.69699979  0.13214075
   0.62808223  0.45768459  0.13007643
   0.29803820  0.87315112  0.31715338
   0.30626685  0.87310724  0.04455942
   0.62261259  0.71817459  0.13071675
   0.23046238  0.02423308  0.22760230
   0.54282134  0.37838567  0.04018734
   0.37726985  0.20560459  0.13740413
   0.14805913  0.70314840  0.13720855
   0.70359996  0.05311632  0.22072131
   0.79392109  0.12835127  0.31461420
   0.54073425  0.87175520  0.31606711
   0.79165663  0.12783172  0.04067172
   0.54773916  0.87450772  0.04071654
   0.20818644  0.53936397  0.22290589
   0.94795453  0.30258048  0.22287095
   0.86952847  0.97069320  0.13305323
   0.71787264  0.29369263  0.22560096
   0.45652573  0.29586544  0.22240538
   0.87248998  0.45670095  0.13030569
   0.12436401  0.20322203  0.13195506
   0.78737920  0.62472875  0.04403860
   0.29932384  0.62113320  0.04802460
   0.38565111  0.71595064  0.13079951
   0.38471564  0.45153870  0.13110399
   0.79298767  0.38323269  0.31895592
   0.78933583  0.37328592  0.04383272
   0.95366904  0.05900888  0.22133645
   0.46069234  0.79603599  0.22564734
   0.22235697  0.79746984  0.22493899
   0.46083026  0.02618123  0.22414879
   0.12652300  0.08646405  0.45881112
 
 position of ions in cartesian coordinates  (Angst):
  13.44811096  8.34984988  6.89572954
   5.30191957  8.36318061  6.84678641
   5.14117321  3.60133740  6.95546711
  14.82868056  9.16125145  9.19139899
   3.84330900  4.40891644  9.23388780
   6.67035186  9.14158915  9.15467785
  12.10952093  4.34129761  9.24272919
   9.36237514  9.11008095  9.12485788
  10.72650525  2.02943079  9.10310296
   2.55615710  2.01726988  9.15354523
  12.10450585  9.10246305  9.17111752
  13.45819613  6.74041551  9.23182884
   5.25519469  1.96961077  9.19079099
   8.04678914  6.74718569  9.16579376
   9.41000971  4.38986078  9.16783266
   5.26245034  6.70142861  9.26186011
   8.00169741  1.99658005  9.14243719
   8.06615053  3.57804893  6.93144356
   6.54114050  1.18541117  6.87185763
   6.72627875  1.16745296  1.08241724
   3.78814394  4.32227997  2.81445913
   1.24545052  1.27691486  6.86235494
   1.10289336  1.28088383  0.83038189
   6.68973465  9.08801532  2.94861321
   6.62343770  4.36895340  9.21001319
   8.01503470  5.21342362  4.82518885
  10.71685646  6.75826521  9.18811253
  14.76728267  7.43331103  4.80456282
  12.15835732  5.91707794  6.98041784
   6.62007737  5.98991496  6.93865760
   3.69640915  2.63078603  4.96058484
  10.74898984  5.24250712  4.86996286
   3.91682634  6.01163853  7.06752370
  13.40431018  8.18143554  1.12628553
   5.30363869  8.18578859  0.97841786
   4.01251535  6.08227672  1.00891159
   8.14068118  2.17807670  2.94353159
   9.41716268  9.04978665  2.92015232
   2.48841543  3.64476049  7.06877639
   2.27015798  3.62463351  0.90645624
  10.72847306  2.05864821  2.89928695
  13.44857675  5.13914286  4.92157340
   3.90440865  1.09405020  7.01371425
   9.37318249  5.95231704  7.03662277
   3.84202698  1.09368897  0.99843245
   9.46596888  5.91657450  1.05336135
   5.43494565  3.60933318  1.03054316
  12.01887918  8.97257121  3.00064916
  12.09414346  7.50068258  4.86229550
  13.25111312  6.61567006  2.90709642
   9.39189277  4.34417664  2.86168140
   8.05136686  8.28763475  6.97737438
   8.14131234  8.28721821  0.98030720
  10.75943073  6.81665356  2.87576846
   2.65866499  0.23001167  5.00725050
   8.02287536  3.59149993  0.88412147
   5.26159074  1.95152445  3.02289083
   5.47598127  6.67403038  3.01858800
   8.00253296  0.50416089  4.85586878
   9.40474020  1.21826387  6.92151242
  10.70366591  8.27438522  6.95347636
   9.37707450  1.21333249  0.89477773
  10.79552355  8.30051111  0.89576394
   5.23743796  5.11944775  4.90392949
  12.04772275  2.87198450  4.90316101
  14.84943082  9.21346889  2.92717099
   9.47731985  2.78762430  4.96322106
   6.62486460  2.80824781  4.89291845
  12.06521145  4.33484034  2.86672527
   2.47668628  1.92891008  2.90301128
  12.05318968  5.92969947  0.96884915
   6.68439923  5.89557174  1.05654112
   8.15014567  6.79554461  2.87758921
   6.69091550  4.28584207  2.88428777
  10.79126002  3.63750618  7.01703021
  10.69672757  3.54309501  0.96431976
  10.77558135  0.56009099  4.86940190
   9.41146532  7.55568579  4.96424156
   6.80716718  7.56929543  4.94865781
   5.19417280  0.24850280  4.93127340
   1.86051506  0.82068547 10.09384469
 


--------------------------------------------------------------------------------------------------------


 k-point  1 :   0.0000 0.0000 0.0000  plane waves:   66973
 k-point  2 :   0.5000-0.0000 0.0000  plane waves:   67000
 k-point  3 :   0.0000 0.5000 0.0000  plane waves:   67000
 k-point  4 :   0.5000 0.5000 0.0000  plane waves:   67000

 maximum and minimum number of plane-waves per node :     16772    16723

 maximum number of plane-waves:     67000
 maximum index in each direction: 
   IXMAX=   20   IYMAX=   20   IZMAX=   42
   IXMIN=  -21   IYMIN=  -21   IZMIN=  -42


 real space projection operators:
  total allocation   :      72239.59 KBytes
  max/ min on nodes  :      18063.98      18052.27


 parallel 3D FFT for wavefunctions:
    minimum data exchange during FFTs selected (reduces bandwidth)
 parallel 3D FFT for charge:
    minimum data exchange during FFTs selected (reduces bandwidth)


 total amount of memory used by VASP MPI-rank0   235710. kBytes
=======================================================================

   base      :      30000. kBytes
   nonlr-proj:      32179. kBytes
   fftplans  :      16144. kBytes
   grid      :      49182. kBytes
   one-center:        653. kBytes
   wavefun   :     107552. kBytes
 
     INWAV:  cpu time    0.0000: real time    0.0000
 Broyden mixing: mesh for mixing (old mesh)
   NGX = 41   NGY = 41   NGZ = 85
  (NGX  =168   NGY  =168   NGZ  =336)
  gives a total of 142885 points

 initial charge density was supplied:
 charge density of overlapping atoms calculated
 number of electron     778.0000000 magnetization     231.0000000
 keeping initial charge density in first step


--------------------------------------------------------------------------------------------------------


 Maximum index for non-local projection operator         1758
 Maximum index for augmentation-charges         1359 (set IRDMAX)


--------------------------------------------------------------------------------------------------------


 First call to EWALD:  gamma=   0.134
 Maximum number of real-space cells 4x 4x 2
 Maximum number of reciprocal cells 2x 2x 4

    FEWALD:  cpu time    0.0047: real time    0.0054


--------------------------------------- Iteration      1(   1)  ---------------------------------------


    POTLOK:  cpu time    0.4012: real time    0.4573
    SETDIJ:  cpu time    0.0365: real time    0.0373
     EDDAV:  cpu time   62.5321: real time   62.7385
       DOS:  cpu time    0.0025: real time    0.0150
    --------------------------------------------
      LOOP:  cpu time   62.9722: real time   63.2482

 eigenvalue-minimisations  :  9408
 total energy-change (2. order) : 0.7656930E+04  (-0.3284607E+05)
 number of electron     778.0000000 magnetization     231.0000000
 augmentation part      778.0000000 magnetization     231.0000000

 Free energy of the ion-electron system (eV)
  ---------------------------------------------------
  alpha Z        PSCENC =      2078.51929011
  Ewald energy   TEWEN  =    220274.35974809
  -Hartree energ DENC   =   -292070.33708096
  -exchange      EXHF   =         0.00000000
  -V(xc)+E(xc)   XCENC  =      1376.18793089
  PAW double counting   =     64136.80006862   -66038.70876209
  entropy T*S    EENTRO =         0.00347177
  eigenvalues    EBANDS =      7681.45034789
  atomic energy  EATOM  =     70218.65458108
  Solvation  Ediel_sol  =         0.00000000
  ---------------------------------------------------
  free energy    TOTEN  =      7656.92959540 eV

  energy without entropy =     7656.92612363  energy(sigma->0) =     7656.92843814


--------------------------------------------------------------------------------------------------------




--------------------------------------- Iteration      1(   2)  ---------------------------------------


     EDDAV:  cpu time   62.5186: real time   62.7557
       DOS:  cpu time    0.0027: real time    0.0186
    --------------------------------------------
      LOOP:  cpu time   62.5213: real time   62.7743

 eigenvalue-minimisations  :  9408
 total energy-change (2. order) :-0.6883961E+04  (-0.6172412E+04)
 number of electron     778.0000000 magnetization     231.0000000
 augmentation part      778.0000000 magnetization     231.0000000

 Free energy of the ion-electron system (eV)
  ---------------------------------------------------
  alpha Z        PSCENC =      2078.51929011
  Ewald energy   TEWEN  =    220274.35974809
  -Hartree energ DENC   =   -292070.33708096
  -exchange      EXHF   =         0.00000000
  -V(xc)+E(xc)   XCENC  =      1376.18793089
  PAW double counting   =     64136.80006862   -66038.70876209
  entropy T*S    EENTRO =        -0.00579690
  eigenvalues    EBANDS =       797.49868099
  atomic energy  EATOM  =     70218.65458108
  Solvation  Ediel_sol  =         0.00000000
  ---------------------------------------------------
  free energy    TOTEN  =       772.96865983 eV

  energy without entropy =      772.97445673  energy(sigma->0) =      772.97059213


--------------------------------------------------------------------------------------------------------




--------------------------------------- Iteration      1(   3)  ---------------------------------------


     EDDAV:  cpu time   62.6302: real time   62.8405
       DOS:  cpu time    0.0048: real time    0.1050
    --------------------------------------------
      LOOP:  cpu time   62.6350: real time   62.9455

 eigenvalue-minimisations  :  9408
 total energy-change (2. order) :-0.1150935E+04  (-0.9328479E+03)
 number of electron     778.0000000 magnetization     231.0000000
 augmentation part      778.0000000 magnetization     231.0000000

 Free energy of the ion-electron system (eV)
  ---------------------------------------------------
  alpha Z        PSCENC =      2078.51929011
  Ewald energy   TEWEN  =    220274.35974809
  -Hartree energ DENC   =   -292070.33708096
  -exchange      EXHF   =         0.00000000
  -V(xc)+E(xc)   XCENC  =      1376.18793089
  PAW double counting   =     64136.80006862   -66038.70876209
  entropy T*S    EENTRO =         0.00780632
  eigenvalues    EBANDS =      -353.45022481
  atomic energy  EATOM  =     70218.65458108
  Solvation  Ediel_sol  =         0.00000000
  ---------------------------------------------------
  free energy    TOTEN  =      -377.96664275 eV

  energy without entropy =     -377.97444907  energy(sigma->0) =     -377.96924485


--------------------------------------------------------------------------------------------------------




--------------------------------------- Iteration      1(   4)  ---------------------------------------


     EDDAV:  cpu time   74.9456: real time   75.2839
       DOS:  cpu time    0.0030: real time    0.0078
    --------------------------------------------
      LOOP:  cpu time   74.9485: real time   75.2916

 eigenvalue-minimisations  : 11904
 total energy-change (2. order) :-0.1137688E+03  (-0.1036414E+03)
 number of electron     778.0000000 magnetization     231.0000000
 augmentation part      778.0000000 magnetization     231.0000000

 Free energy of the ion-electron system (eV)
  ---------------------------------------------------
  alpha Z        PSCENC =      2078.51929011
  Ewald energy   TEWEN  =    220274.35974809
  -Hartree energ DENC   =   -292070.33708096
  -exchange      EXHF   =         0.00000000
  -V(xc)+E(xc)   XCENC  =      1376.18793089
  PAW double counting   =     64136.80006862   -66038.70876209
  entropy T*S    EENTRO =        -0.00816146
  eigenvalues    EBANDS =      -467.20301600
  atomic energy  EATOM  =     70218.65458108
  Solvation  Ediel_sol  =         0.00000000
  ---------------------------------------------------
  free energy    TOTEN  =      -491.73540173 eV

  energy without entropy =     -491.72724026  energy(sigma->0) =     -491.73268124


--------------------------------------------------------------------------------------------------------




--------------------------------------- Iteration      1(   5)  ---------------------------------------


     EDDAV:  cpu time   71.0562: real time   71.2731
       DOS:  cpu time    0.0043: real time    0.0912
    CHARGE:  cpu time    3.9495: real time    3.9688
    MIXING:  cpu time    0.0106: real time    0.0111
    --------------------------------------------
      LOOP:  cpu time   75.0206: real time   75.3442

 eigenvalue-minimisations  : 11112
 total energy-change (2. order) :-0.4350964E+01  (-0.4313465E+01)
 number of electron     778.0000018 magnetization     216.7284071
 augmentation part      335.2228845 magnetization     183.6138883

 Broyden mixing:
  rms(total) = 0.11349E+02    rms(broyden)= 0.11349E+02
  rms(prec ) = 0.11732E+02
  weight for this iteration     100.00

 Free energy of the ion-electron system (eV)
  ---------------------------------------------------
  alpha Z        PSCENC =      2078.51929011
  Ewald energy   TEWEN  =    220274.35974809
  -Hartree energ DENC   =   -292070.33708096
  -exchange      EXHF   =         0.00000000
  -V(xc)+E(xc)   XCENC  =      1376.18793089
  PAW double counting   =     64136.80006862   -66038.70876209
  entropy T*S    EENTRO =        -0.00747414
  eigenvalues    EBANDS =      -471.55466739
  atomic energy  EATOM  =     70218.65458108
  Solvation  Ediel_sol  =         0.00000000
  ---------------------------------------------------
  free energy    TOTEN  =      -496.08636579 eV

  energy without entropy =     -496.07889165  energy(sigma->0) =     -496.08387441


--------------------------------------------------------------------------------------------------------




--------------------------------------- Iteration      1(   6)  ---------------------------------------


    POTLOK:  cpu time    0.3766: real time    0.4793
    SETDIJ:  cpu time    0.0345: real time    0.0347
    EDDIAG:  cpu time   11.4051: real time   11.4388
  RMM-DIIS:  cpu time   38.0711: real time   38.1698
    ORTHCH:  cpu time    1.4399: real time    1.4517
       DOS:  cpu time    0.0024: real time    0.0024
    CHARGE:  cpu time    3.8039: real time    3.8173
    MIXING:  cpu time    0.0113: real time    0.0130
    --------------------------------------------
      LOOP:  cpu time   55.1449: real time   55.4070

 eigenvalue-minimisations  :  9650
 total energy-change (2. order) :-0.2608588E+03  (-0.1015575E+03)
 number of electron     778.0000022 magnetization     213.1557629
 augmentation part      407.5725151 magnetization     178.6512655

 Broyden mixing:
  rms(total) = 0.21398E+02    rms(broyden)= 0.21397E+02
  rms(prec ) = 0.28333E+02
  weight for this iteration     100.00

 eigenvalues of (default mixing * dielectric matrix)
  average eigenvalue GAMMA=   0.1924
  0.1924

 Free energy of the ion-electron system (eV)
  ---------------------------------------------------
  alpha Z        PSCENC =      2078.51929011
  Ewald energy   TEWEN  =    220274.35974809
  -Hartree energ DENC   =   -290462.01175160
  -exchange      EXHF   =         0.00000000
  -V(xc)+E(xc)   XCENC  =      1331.60855891
  PAW double counting   =     68510.07926862   -70187.39505352
  entropy T*S    EENTRO =        -0.00175610
  eigenvalues    EBANDS =     -2520.75809417
  atomic energy  EATOM  =     70218.65458108
  Solvation  Ediel_sol  =         0.00000000
  ---------------------------------------------------
  free energy    TOTEN  =      -756.94520858 eV

  energy without entropy =     -756.94345248  energy(sigma->0) =     -756.94462321


--------------------------------------------------------------------------------------------------------




--------------------------------------- Iteration      1(   7)  ---------------------------------------


    POTLOK:  cpu time    0.3817: real time    0.4108
    SETDIJ:  cpu time    0.0347: real time    0.0348
    EDDIAG:  cpu time   11.3988: real time   11.4801
  RMM-DIIS:  cpu time   37.3480: real time   37.4457
    ORTHCH:  cpu time    1.4395: real time    1.4483
       DOS:  cpu time    0.0024: real time    0.0024
    CHARGE:  cpu time    3.7847: real time    3.7945
    MIXING:  cpu time    0.0114: real time    0.0115
    --------------------------------------------
      LOOP:  cpu time   54.4013: real time   54.6281

 eigenvalue-minimisations  :  9422
 total energy-change (2. order) : 0.2595036E+03  (-0.1585551E+02)
 number of electron     778.0000025 magnetization     208.4363436
 augmentation part      374.0145443 magnetization     165.1965537

 Broyden mixing:
  rms(total) = 0.14251E+02    rms(broyden)= 0.14251E+02
  rms(prec ) = 0.18312E+02
  weight for this iteration     100.00

 eigenvalues of (default mixing * dielectric matrix)
  average eigenvalue GAMMA=   0.2559
  0.3392  0.1726

 Free energy of the ion-electron system (eV)
  ---------------------------------------------------
  alpha Z        PSCENC =      2078.51929011
  Ewald energy   TEWEN  =    220274.35974809
  -Hartree energ DENC   =   -291108.17930242
  -exchange      EXHF   =         0.00000000
  -V(xc)+E(xc)   XCENC  =      1349.46371385
  PAW double counting   =     69425.70929962   -71251.71804696
  entropy T*S    EENTRO =        -0.00204612
  eigenvalues    EBANDS =     -1484.24880173
  atomic energy  EATOM  =     70218.65458108
  Solvation  Ediel_sol  =         0.00000000
  ---------------------------------------------------
  free energy    TOTEN  =      -497.44156446 eV

  energy without entropy =     -497.43951834  energy(sigma->0) =     -497.44088242


--------------------------------------------------------------------------------------------------------




--------------------------------------- Iteration      1(   8)  ---------------------------------------


    POTLOK:  cpu time    0.3828: real time    0.4041
    SETDIJ:  cpu time    0.0345: real time    0.0346
    EDDIAG:  cpu time   11.4164: real time   11.4473
  RMM-DIIS:  cpu time   37.3521: real time   37.4501
    ORTHCH:  cpu time    1.4341: real time    1.4592
       DOS:  cpu time    0.0023: real time    0.0024
    CHARGE:  cpu time    3.7414: real time    3.7559
    MIXING:  cpu time    0.0120: real time    0.0122
    --------------------------------------------
      LOOP:  cpu time   54.3757: real time   54.5658

 eigenvalue-minimisations  :  9440
 total energy-change (2. order) : 0.2600295E+02  (-0.1401806E+02)
 number of electron     778.0000014 magnetization     201.1689022
 augmentation part      375.0584800 magnetization     163.5033108

 Broyden mixing:
  rms(total) = 0.15838E+02    rms(broyden)= 0.15838E+02
  rms(prec ) = 0.18450E+02
  weight for this iteration     100.00

 eigenvalues of (default mixing * dielectric matrix)
  average eigenvalue GAMMA=   0.3127
  0.5865  0.2661  0.0854

 Free energy of the ion-electron system (eV)
  ---------------------------------------------------
  alpha Z        PSCENC =      2078.51929011
  Ewald energy   TEWEN  =    220274.35974809
  -Hartree energ DENC   =   -291318.53366743
  -exchange      EXHF   =         0.00000000
  -V(xc)+E(xc)   XCENC  =      1356.82327908
  PAW double counting   =     70574.63325467   -72479.19191355
  entropy T*S    EENTRO =         0.00087860
  eigenvalues    EBANDS =     -1176.70406899
  atomic energy  EATOM  =     70218.65458108
  Solvation  Ediel_sol  =         0.00000000
  ---------------------------------------------------
  free energy    TOTEN  =      -471.43861835 eV

  energy without entropy =     -471.43949695  energy(sigma->0) =     -471.43891122


--------------------------------------------------------------------------------------------------------




--------------------------------------- Iteration      1(   9)  ---------------------------------------


    POTLOK:  cpu time    0.3789: real time    0.4310
    SETDIJ:  cpu time    0.0348: real time    0.0350
    EDDIAG:  cpu time   11.3975: real time   11.4300
  RMM-DIIS:  cpu time   37.4326: real time   37.5335
    ORTHCH:  cpu time    1.4454: real time    1.4535
       DOS:  cpu time    0.0025: real time    0.0025
    CHARGE:  cpu time    3.7280: real time    3.7380
    MIXING:  cpu time    0.0123: real time    0.0125
    --------------------------------------------
      LOOP:  cpu time   54.4320: real time   54.6359

 eigenvalue-minimisations  :  9450
 total energy-change (2. order) : 0.6126086E+02  (-0.1611532E+02)
 number of electron     778.0000027 magnetization     193.5124273
 augmentation part      378.3201742 magnetization     147.1083946

 Broyden mixing:
  rms(total) = 0.13271E+02    rms(broyden)= 0.13271E+02
  rms(prec ) = 0.15012E+02
  weight for this iteration     100.00

 eigenvalues of (default mixing * dielectric matrix)
  average eigenvalue GAMMA=   0.3511
  0.8257  0.3555  0.1116  0.1116

 Free energy of the ion-electron system (eV)
  ---------------------------------------------------
  alpha Z        PSCENC =      2078.51929011
  Ewald energy   TEWEN  =    220274.35974809
  -Hartree energ DENC   =   -291112.65185621
  -exchange      EXHF   =         0.00000000
  -V(xc)+E(xc)   XCENC  =      1374.13161282
  PAW double counting   =     71914.18403009   -73875.31774063
  entropy T*S    EENTRO =         0.01492197
  eigenvalues    EBANDS =     -1282.07235027
  atomic energy  EATOM  =     70218.65458108
  Solvation  Ediel_sol  =         0.00000000
  ---------------------------------------------------
  free energy    TOTEN  =      -410.17776294 eV

  energy without entropy =     -410.19268492  energy(sigma->0) =     -410.18273694


--------------------------------------------------------------------------------------------------------




[...]
   -.899E+01 0.369E+02 -.280E+04   0.907E+01 -.367E+02 0.280E+04   -.715E-01 -.251E+00 0.136E+01   -.206E-01 0.130E-01 0.178E-01
   -.272E+02 0.219E+01 -.279E+04   0.262E+02 -.177E+01 0.279E+04   0.974E+00 -.443E+00 0.204E+01   0.106E-01 0.354E-01 0.144E-01
   0.196E+02 0.173E+02 -.277E+04   -.192E+02 -.172E+02 0.277E+04   -.315E+00 -.103E+00 -.375E+00   -.659E-01 -.143E-02 0.189E-01
   -.267E+02 -.734E+01 -.284E+04   0.268E+02 0.673E+01 0.284E+04   -.842E-01 0.593E+00 0.206E+01   -.561E-02 0.838E-02 0.278E-01
   0.220E+02 -.286E+02 -.282E+04   -.215E+02 0.283E+02 0.281E+04   -.506E+00 0.333E+00 0.281E+01   0.193E-01 -.122E-01 0.117E-02
   -.317E+02 0.261E+02 -.281E+04   0.307E+02 -.253E+02 0.281E+04   0.112E+01 -.743E+00 0.191E+01   -.601E-01 -.550E-01 0.251E-01
   -.120E+02 -.991E+01 -.278E+04   0.127E+02 0.104E+02 0.278E+04   -.675E+00 -.454E+00 0.125E+01   -.306E-01 -.145E-01 0.117E-01
   -.214E+02 -.116E+02 -.283E+04   0.216E+02 0.112E+02 0.283E+04   -.223E+00 0.409E+00 0.128E+01   0.788E-01 0.105E-01 -.620E-02
   -.215E+02 -.197E+01 -.280E+04   0.217E+02 0.165E+01 0.280E+04   -.201E+00 0.250E+00 0.175E+01   0.322E-01 0.614E-01 -.498E-03
   0.236E+01 -.322E+02 -.280E+04   -.244E+01 0.318E+02 0.280E+04   0.521E-01 0.508E+00 0.161E+01   0.483E-01 -.697E-02 -.123E-02
   0.399E+02 0.133E+02 -.281E+04   -.391E+02 -.133E+02 0.281E+04   -.817E+00 0.333E-01 0.208E+01   -.218E-01 -.138E-01 -.588E-02
   0.390E+02 -.391E+01 -.283E+04   -.383E+02 0.444E+01 0.283E+04   -.681E+00 -.471E+00 0.192E+01   -.243E-01 -.224E-01 0.871E-02
   0.135E+01 0.162E+00 -.279E+04   -.156E+01 -.676E+00 0.279E+04   0.239E+00 0.464E+00 0.178E+01   -.310E-01 0.390E-01 0.137E-01
   0.314E+02 -.116E+02 -.282E+04   -.314E+02 0.118E+02 0.282E+04   -.416E-01 -.202E+00 0.169E+01   0.231E-01 -.392E-01 0.655E-02
   0.707E+02 -.594E+02 -.148E+04   -.695E+02 0.596E+02 0.147E+04   -.117E+01 -.236E+00 0.162E+01   -.186E-01 -.261E-02 0.881E-01
   0.239E+02 -.406E+02 -.144E+04   -.251E+02 0.402E+02 0.144E+04   0.112E+01 0.355E+00 0.242E+01   0.167E-01 -.202E-01 0.838E-01
   0.586E+02 0.327E+02 0.285E+04   -.584E+02 -.329E+02 -.285E+04   -.345E+00 0.112E+00 -.258E+01   -.567E-01 0.103E+00 -.571E-02
   0.138E+02 -.102E+02 0.161E+04   -.150E+02 0.109E+02 -.161E+04   0.108E+01 -.620E+00 0.102E+01   0.134E+00 -.121E-01 -.391E-01
   -.608E+02 0.185E+02 -.143E+04   0.617E+02 -.180E+02 0.143E+04   -.949E+00 -.538E+00 0.252E+01   0.135E-01 -.148E-01 0.104E+00
   -.738E+02 0.864E+02 0.295E+04   0.744E+02 -.849E+02 -.295E+04   -.382E+00 -.162E+01 -.258E+01   0.208E-02 0.199E-02 -.230E-01
   0.229E+02 -.484E+02 0.154E+04   -.226E+02 0.478E+02 -.154E+04   -.335E+00 0.539E+00 -.768E+00   0.558E-02 -.191E-01 0.912E-01
   0.138E+02 0.125E+01 -.280E+04   -.141E+02 -.124E+01 0.280E+04   0.241E+00 -.198E-01 0.154E+01   0.131E-01 -.435E-02 0.600E-03
   -.391E+01 0.199E+01 0.109E+02   0.402E+01 -.170E+01 -.120E+02   -.161E+00 -.366E+00 0.963E+00   -.184E-01 0.300E-01 0.126E+00
   -.189E+02 0.140E+02 -.284E+04   0.182E+02 -.141E+02 0.283E+04   0.696E+00 0.542E-01 0.186E+01   0.277E-01 0.114E-01 -.514E-02
   -.409E+01 0.389E+02 0.832E+02   0.295E+01 -.403E+02 -.834E+02   0.130E+01 0.150E+01 0.327E-01   -.169E-01 -.909E-02 0.837E-01
   -.676E+02 0.490E+01 -.144E+04   0.681E+02 -.609E+01 0.143E+04   -.550E+00 0.119E+01 0.273E+01   -.766E-03 0.387E-01 0.800E-01
   0.357E+02 0.271E+02 -.146E+04   -.356E+02 -.262E+02 0.146E+04   -.838E-01 -.841E+00 0.213E+01   0.117E-01 -.624E-02 0.832E-01
   -.360E+01 -.647E+02 -.501E+02   0.253E+01 0.642E+02 0.503E+02   0.111E+01 0.426E+00 -.235E+00   0.438E-01 -.148E-01 0.747E-01
   -.236E+02 -.203E+02 0.968E+01   0.243E+02 0.209E+02 -.103E+02   -.643E+00 -.735E+00 0.476E+00   -.317E-01 0.668E-01 0.163E+00
   0.141E+02 0.108E+02 -.116E+04   -.141E+02 -.110E+02 0.116E+04   0.905E-03 0.321E+00 0.176E+00   0.840E-02 0.234E-01 0.662E-01
   -.881E+02 -.972E+00 0.229E+04   0.883E+02 -.279E+00 -.229E+04   -.165E+00 0.126E+01 -.273E+01   0.244E-01 -.388E-02 0.748E-02
   0.248E+02 -.199E+02 0.234E+04   -.251E+02 0.180E+02 -.234E+04   0.388E+00 0.203E+01 -.293E+01   -.459E-01 -.443E-01 0.362E-02
   0.430E+02 0.235E+02 0.232E+04   -.426E+02 -.220E+02 -.232E+04   -.473E+00 -.144E+01 -.313E+01   0.475E-01 -.717E-01 0.125E-01
   0.314E+02 0.686E+02 0.120E+04   -.304E+02 -.677E+02 -.120E+04   -.978E+00 -.829E+00 -.914E-01   -.771E-01 -.112E-01 0.306E-01
   0.306E+02 -.772E+02 0.124E+04   -.306E+02 0.768E+02 -.124E+04   -.118E+00 0.352E+00 -.473E+00   0.215E-01 0.305E-01 0.129E+00
   -.609E+02 -.126E+02 -.118E+04   0.610E+02 0.128E+02 0.118E+04   -.133E+00 -.277E+00 0.468E+00   0.263E-01 -.215E-01 0.679E-01
   -.159E+03 0.113E+02 0.238E+04   0.157E+03 -.115E+02 -.237E+04   0.152E+01 0.455E-01 -.359E+01   0.114E+00 0.819E-02 -.151E-01
   -.469E+02 0.595E+02 0.123E+04   0.461E+02 -.590E+02 -.123E+04   0.881E+00 -.536E+00 -.518E+00   -.325E-02 -.331E-01 0.445E-01
   -.674E+02 -.252E+00 -.207E+02   0.671E+02 0.539E+00 0.208E+02   0.219E+00 -.373E+00 -.158E+00   0.332E-01 0.146E-01 0.672E-01
   0.223E+02 -.840E+02 -.120E+04   -.225E+02 0.838E+02 0.120E+04   0.193E+00 0.269E+00 0.752E+00   0.149E-01 -.228E-02 0.413E-01
   0.154E+02 0.228E+02 -.118E+04   -.156E+02 -.229E+02 0.118E+04   0.184E+00 0.798E-01 -.141E-01   -.262E-02 0.249E-01 0.289E-01
   -.400E+01 -.820E+02 0.233E+04   0.287E+01 0.803E+02 -.233E+04   0.106E+01 0.156E+01 -.330E+01   0.765E-01 0.954E-01 0.970E-02
   0.242E+02 -.282E+02 0.264E+04   -.240E+02 0.285E+02 -.264E+04   -.123E+00 -.157E+00 -.293E+01   -.393E-01 -.108E-01 -.695E-02
   0.179E+03 0.392E+02 0.265E+04   -.179E+03 -.384E+02 -.265E+04   -.418E+00 -.852E+00 -.300E+01   -.869E-02 0.754E-02 -.673E-03
   -.579E+02 -.526E+02 0.133E+04   0.572E+02 0.515E+02 -.133E+04   0.593E+00 0.114E+01 -.250E+00   0.933E-03 0.345E-01 0.750E-01
   -.774E+02 0.416E+02 0.196E+02   0.775E+02 -.415E+02 -.202E+02   -.728E-01 -.889E-01 0.394E+00   -.124E-01 0.282E-01 0.118E+00
   -.143E+03 0.851E+01 0.135E+04   0.143E+03 -.808E+01 -.135E+04   0.353E+00 -.500E+00 -.165E+00   0.745E-01 0.122E-01 0.538E-01
   -.126E+02 -.163E+02 0.134E+04   0.129E+02 0.160E+02 -.134E+04   -.174E+00 0.432E+00 -.236E+00   -.703E-01 -.198E-01 0.109E+00
   0.529E+02 -.581E+01 -.136E+04   -.529E+02 0.575E+01 0.136E+04   -.124E+00 0.123E+00 0.993E+00   0.446E-01 -.154E-02 0.357E-01
   0.710E+02 -.640E+02 0.266E+04   -.703E+02 0.641E+02 -.266E+04   -.688E+00 -.142E+00 -.331E+01   -.243E-01 0.296E-01 0.256E-01
   -.772E+01 0.878E+01 0.134E+04   0.775E+01 -.857E+01 -.134E+04   -.133E+00 -.325E+00 -.575E+00   0.200E-01 0.696E-01 0.152E+00
   0.420E+02 -.820E+02 -.118E+02   -.412E+02 0.815E+02 0.121E+02   -.846E+00 0.556E+00 -.465E+00   0.629E-01 -.240E-01 0.934E-01
   0.415E+02 0.180E+02 0.329E+04   -.415E+02 -.172E+02 -.329E+04   0.324E+00 -.635E+00 -.402E+01   -.226E+00 -.572E-01 -.320E-01
   0.790E+02 0.244E+01 0.165E+04   -.793E+02 -.310E+01 -.165E+04   0.136E+00 0.553E+00 -.173E+00   0.991E-02 0.922E-01 -.167E-01
   0.147E+03 -.478E+02 0.160E+04   -.146E+03 0.482E+02 -.160E+04   -.311E+00 -.276E+00 -.206E+00   -.371E-01 -.794E-01 0.286E-01
   0.255E+02 0.745E+02 0.105E+03   -.260E+02 -.744E+02 -.105E+03   0.550E+00 -.274E+00 0.277E-01   -.427E-01 -.169E-01 0.137E+00
   0.608E+01 0.610E+02 -.161E+04   -.547E+01 -.609E+02 0.161E+04   -.572E+00 -.125E+00 0.917E+00   -.468E-01 -.241E-01 0.168E+00
   -.414E+02 0.245E+02 -.162E+04   0.406E+02 -.243E+02 0.162E+04   0.935E+00 -.210E+00 0.180E+01   -.108E-01 -.107E-02 0.390E-01
   -.715E+00 0.139E+03 0.324E+04   0.877E+00 -.139E+03 -.323E+04   -.994E-01 -.330E-01 -.340E+01   -.539E-01 -.244E-01 -.273E-01
   -.518E+01 -.886E+02 0.328E+04   0.445E+01 0.883E+02 -.327E+04   0.483E+00 0.211E+00 -.336E+01   0.763E-01 0.102E+00 -.936E-02
   0.121E+03 0.509E+01 -.223E+02   -.121E+03 -.499E+01 0.227E+02   0.509E-01 -.168E+00 -.530E+00   0.929E-02 -.234E-01 0.555E-01
   -.127E+03 -.145E+02 0.265E+02   0.127E+03 0.144E+02 -.264E+02   0.299E+00 0.650E-01 -.158E+00   0.456E-01 -.800E-02 0.132E+00
   -.134E+02 0.109E+03 0.171E+04   0.134E+02 -.108E+03 -.171E+04   0.103E+00 -.923E+00 -.114E+01   -.353E-01 -.457E-01 0.538E-01
   0.289E+02 -.583E+02 0.116E+02   -.284E+02 0.573E+02 -.121E+02   -.450E+00 0.124E+01 0.178E+00   -.574E-01 0.133E-02 0.153E+00
   0.630E+02 -.118E+02 -.691E+01   -.623E+02 0.117E+02 0.711E+01   -.708E+00 0.144E+00 -.282E+00   -.353E-01 0.348E-04 0.925E-01
   -.960E+02 0.472E+00 0.150E+04   0.954E+02 -.269E+00 -.150E+04   0.498E+00 -.173E+00 -.371E+00   0.858E-01 0.965E-02 0.827E-01
   -.430E+02 0.810E+01 0.156E+04   0.434E+02 -.843E+01 -.156E+04   -.419E+00 0.382E+00 -.587E+00   0.854E-01 0.516E-02 0.709E-01
   -.124E+03 0.116E+01 0.297E+04   0.124E+03 -.119E+01 -.297E+04   -.373E+00 -.127E+00 -.218E+01   0.124E+00 0.280E-01 -.196E-01
   0.675E+02 -.697E+02 0.295E+04   -.681E+02 0.703E+02 -.295E+04   0.823E+00 -.404E+00 -.146E+01   -.154E+00 -.142E+00 0.142E-01
   0.209E+02 -.304E+02 0.153E+04   -.204E+02 0.302E+02 -.153E+04   -.368E+00 0.174E+00 -.287E-01   -.600E-01 0.401E-02 0.181E+00
   0.726E+02 -.346E+00 0.150E+04   -.718E+02 0.345E+00 -.150E+04   -.650E+00 0.771E-01 -.423E+00   -.143E+00 -.410E-01 -.494E-01
   -.343E+02 -.487E+02 -.150E+04   0.344E+02 0.487E+02 0.150E+04   0.254E-01 -.529E-01 0.337E+00   -.268E-01 0.114E-01 0.949E-01
   -.504E+02 0.706E+01 0.294E+04   0.509E+02 -.649E+01 -.294E+04   -.468E+00 -.365E+00 -.203E+01   0.573E-02 -.653E-01 -.495E-01
   -.570E+02 0.105E+03 0.827E+02   0.574E+02 -.105E+03 -.825E+02   -.366E+00 -.308E+00 -.282E+00   -.900E-02 -.256E-01 0.122E+00
   0.239E+01 0.550E+02 -.145E+02   -.248E+01 -.543E+02 0.143E+02   0.106E+00 -.826E+00 -.177E-01   0.135E-02 0.181E-01 0.126E+00
   0.860E+02 -.121E+02 -.288E+02   -.857E+02 0.127E+02 0.288E+02   -.421E+00 -.700E+00 -.221E+00   0.476E-01 -.227E-01 0.939E-01
   -.278E+01 -.790E+02 0.266E+02   0.237E+01 0.786E+02 -.268E+02   0.389E+00 0.469E+00 -.241E-01   -.258E-01 -.168E-01 0.101E+00
   -.931E+00 -.207E+01 -.335E+03   0.120E+01 0.236E+01 0.336E+03   -.227E+00 -.316E+00 -.183E+01   -.520E-02 -.113E-02 -.370E-02
 -----------------------------------------------------------------------------------------------
   -.914E+00 0.742E+00 -.201E-02   0.244E-13 0.528E-12 -.625E-12   0.104E+01 -.698E+00 -.405E+01   -.124E+00 -.240E-01 0.404E+01
 
 
 POSITION                                       TOTAL-FORCE (eV/Angst)
 -----------------------------------------------------------------------------------
     13.44287      8.35038      6.88750        -0.004034      0.004302     -0.006633
      5.31325      8.37585      6.83670        -0.003823     -0.000335      0.001922
      5.14466      3.59884      6.95590        -0.003393      0.009692      0.007415
     14.85119      9.14906      9.12433        -0.009241     -0.001317      0.020820
      3.84742      4.41837      9.22172        -0.001055     -0.006180      0.013487
      6.62203      9.10499      9.15939        -0.015791     -0.002141      0.010742
     12.10496      4.35418      9.23756        -0.011379      0.008939      0.008816
      9.39542      9.09006      9.11913         0.001609      0.004185     -0.000724
     10.69421      2.02845      9.08292         0.009805     -0.006467      0.000257
      2.57731      2.04351      9.21988        -0.014317      0.001913     -0.004332
     12.11233      9.09892      9.17283         0.010438      0.021421     -0.002009
     13.48724      6.75864      9.22124         0.012900     -0.005105      0.006277
      5.27212      1.97362      9.19186         0.006046      0.004073      0.002498
      8.03799      6.74497      9.16969        -0.000392     -0.003796     -0.008580
      9.41323      4.39317      9.17181         0.005153      0.016929     -0.002814
      5.25305      6.75148      9.19691        -0.002360     -0.002384      0.012203
      8.00079      1.98794      9.14183        -0.010099     -0.010983      0.004401
      8.06677      3.57893      6.93429        -0.002748      0.007225     -0.015459
      6.53914      1.18769      6.86859         0.005383     -0.002011      0.007642
      6.72628      1.16745      1.08242        -0.013955      0.004576      0.012900
      3.78814      4.32228      2.81446        -0.006289      0.002729     -0.044296
      1.26573      1.29113      6.87498        -0.012672     -0.016930      0.021475
      1.10289      1.28088      0.83038         0.008686     -0.013658      0.023138
      6.68973      9.08802      2.94861         0.007207     -0.003663     -0.016088
      6.62368      4.37868      9.21081        -0.003299      0.003565     -0.002423
      8.01503      5.21342      4.82519         0.014760      0.007984     -0.009317
     10.72312      6.74784      9.19747        -0.002099     -0.019776     -0.011141
     14.76728      7.43331      4.80456         0.037384     -0.007872     -0.085940
     12.15500      5.92292      6.97960         0.006057     -0.014339     -0.001624
      6.62470      5.99224      6.93181         0.003783     -0.004325      0.005226
      3.69641      2.63079      4.96058        -0.014880     -0.048556     -0.008891
     10.74899      5.24251      4.86996        -0.014307     -0.001960     -0.026118
      3.91540      6.00893      7.04794         0.011636     -0.008150      0.011823
     13.40431      8.18144      1.12629         0.019591     -0.011877      0.007370
      5.30364      8.18579      0.97842        -0.008025      0.008243      0.018747
      4.01252      6.08228      1.00891        -0.009729     -0.014069      0.046944
      8.14068      2.17808      2.94353        -0.013784      0.011261     -0.002671
      9.41716      9.04979      2.92015         0.000120      0.006302     -0.007917
      2.49679      3.65788      7.06365        -0.001450     -0.005999      0.001746
      2.27016      3.62463      0.90646        -0.005801      0.005880      0.032750
     10.72847      2.05865      2.89929        -0.004375      0.005316     -0.005920
     13.44858      5.13914      4.92157        -0.032196     -0.035571      0.029523
      3.90566      1.08974      7.02230         0.002251     -0.001260      0.015302
      9.37015      5.95141      7.03664         0.006126      0.004554      0.000793
      3.84203      1.09369      0.99843        -0.005518      0.011134      0.051196
      9.46597      5.91657      1.05336        -0.004779      0.007108      0.017869
      5.43495      3.60933      1.03054        -0.031588      0.004406      0.021167
     12.01888      8.97257      3.00065        -0.009758      0.005968      0.006554
     12.09414      7.50068      4.86230         0.007359      0.023737     -0.020345
     13.25111      6.61567      2.90710        -0.001200     -0.006109     -0.030146
      9.39189      4.34418      2.86168         0.002216      0.020896     -0.023434
      8.06087      8.28768      6.97331         0.006244      0.010196      0.007933
      8.14131      8.28722      0.98031        -0.008684      0.015973      0.003579
     10.75943      6.81665      2.87577        -0.020877     -0.003918     -0.030126
      2.65866      0.23001      5.00725        -0.003038      0.024371      0.037811
      8.02288      3.59150      0.88412         0.007975      0.014079     -0.003089
      5.26159      1.95152      3.02289        -0.003536     -0.007132     -0.019434
      5.47598      6.67403      3.01859        -0.005588     -0.000093     -0.008014
      8.00253      0.50416      4.85587         0.007912     -0.004603     -0.029781
      9.40220      1.22304      6.90215         0.004943      0.004450      0.009287
     10.70454      8.26997      6.95233        -0.004436      0.004529      0.001216
      9.37707      1.21333      0.89478         0.003939     -0.004468      0.004120
     10.79552      8.30051      0.89576        -0.021546      0.003414     -0.003475
      5.23744      5.11945      4.90393         0.014647     -0.006096      0.001163
     12.04772      2.87198      4.90316         0.000986     -0.036725      0.021435
     14.84943      9.21347      2.92717         0.007220      0.015612     -0.006588
      9.47732      2.78762      4.96322        -0.008803      0.019814     -0.014354
      6.62486      2.80825      4.89292         0.020078      0.012875     -0.031474
     12.06521      4.33484      2.86673         0.007235      0.002685     -0.023320
      2.47669      1.92891      2.90301         0.022219      0.006913     -0.031030
     12.05319      5.92970      0.96885        -0.005244     -0.028571      0.023077
      6.68440      5.89557      1.05654        -0.010914      0.009023     -0.008110
      8.15015      6.79554      2.87759         0.024219     -0.007438     -0.001735
      6.69092      4.28584      2.88429         0.003127     -0.016075     -0.005020
     10.79543      3.64486      7.01261        -0.004246     -0.002768      0.003509
     10.69673      3.54310      0.96432         0.004128      0.017113      0.006806
     10.77558      0.56009      4.86940         0.046883      0.025776      0.038743
      9.41147      7.55569      4.96424        -0.007236     -0.011809     -0.022013
      6.80717      7.56930      4.94866        -0.006246      0.007076      0.003613
      5.19417      0.24850      4.93127        -0.010617      0.005745     -0.013993
      1.84856      0.72863     10.23259         0.035084     -0.027453      0.005085
 -----------------------------------------------------------------------------------
    total drift:                               -0.001998      0.020876     -0.012643


--------------------------------------------------------------------------------------------------------



  FREE ENERGIE OF THE ION-ELECTRON SYSTEM (eV)
  ---------------------------------------------------
  free  energy   TOTEN  =      -506.40834157 eV

  energy  without entropy=     -506.41985527  energy(sigma->0) =     -506.41217947
 
 d Force = 0.1038207E-02[ 0.339E-03, 0.174E-02]  d Energy = 0.1034077E-02 0.413E-05
 d Force = 0.1277393E+02[ 0.128E+02, 0.128E+02]  d Ewald  = 0.1277393E+02-0.735E-06


--------------------------------------------------------------------------------------------------------


    POTLOK:  cpu time    0.4162: real time    0.4273


--------------------------------------------------------------------------------------------------------


 Conjugate gradient step on ions:
 trial-energy change:   -0.001034  1 .order   -0.001038   -0.001738   -0.000339
  (g-gl).g = 0.110E-02      g.g   = 0.110E-02  gl.gl    = 0.237E-02
 g(Force)  = 0.110E-02   g(Stress)= 0.000E+00 ortho     =-0.195E-03
 gamma     =   0.46190
 trial     =   1.72243
 opt step  =   2.13909  (harmonic =   2.13909) maximal distance =0.01001923
 next E    =  -506.408387   (d E  =  -0.00108)


--------------------------------------------------------------------------------------------------------


  
 reached required accuracy - stopping structural energy minimisation
     LOOP+:  cpu time  571.1088: real time  576.0776
    4ORBIT:  cpu time    0.0000: real time    0.0000

 total amount of memory used by VASP MPI-rank0   235710. kBytes
=======================================================================

   base      :      30000. kBytes
   nonlr-proj:      32179. kBytes
   fftplans  :      16144. kBytes
   grid      :      49182. kBytes
   one-center:        653. kBytes
   wavefun   :     107552. kBytes
 
  
  
 General timing and accounting informations for this job:
 ========================================================
  
                  Total CPU time used (sec):    14114.648
                            User time (sec):    13704.163
                          System time (sec):      410.486
                         Elapsed time (sec):    14218.035
  
                   Maximum memory used (kb):      426364.
                   Average memory used (kb):           0.
  
                          Minor page faults:      3404759
                          Major page faults:          208
                 Voluntary context switches:         9176
