 vasp.5.4.4.18Apr17-6-g9f103f2a35 (build Oct 25 2019 11:13:22) complex          
  
 executed on             LinuxIFC date 2021.10.13  22:51:32
 running on   48 total cores
 distrk:  each k-point on   48 cores,    1 groups
 distr:  one band on NCORES_PER_BAND=   4 cores,   12 groups


--------------------------------------------------------------------------------------------------------


 INCAR:
 POTCAR:    PAW_PBE Pt 04Feb2005                  
 POTCAR:    PAW_PBE Fe 06Sep2000                  
 POTCAR:    PAW_PBE Co 02Aug2007                  
 POTCAR:    PAW_PBE Cu 22Jun2005                  
 POTCAR:    PAW_PBE Ni 02Aug2007                  
 POTCAR:    PAW_PBE H 15Jun2001                   
 POTCAR:    PAW_PBE Pt 04Feb2005                  
   VRHFIN =Pt: s1d9                                                             
   LEXCH  = PE                                                                  
   EATOM  =   729.1176 eV,   53.5886 Ry                                         
                                                                                
   TITEL  = PAW_PBE Pt 04Feb2005                                                
   LULTRA =        F    use ultrasoft PP ?                                      
   IUNSCR =        1    unscreen: 0-lin 1-nonlin 2-no                           
   RPACOR =    2.330    partial core radius                                     
   POMASS =  195.080; ZVAL   =   10.000    mass and valenz                      
   RCORE  =    2.600    outmost cutoff radius                                   
   RWIGS  =    2.750; RWIGS  =    1.455    wigner-seitz radius (au A)           
   ENMAX  =  230.283; ENMIN  =  172.712 eV                                      
   ICORE  =        3    local potential                                         
   LCOR   =        T    correct aug charges                                     
   LPAW   =        T    paw PP                                                  
   EAUG   =  358.966                                                            
   DEXC   =    0.000                                                            
   RMAX   =    2.658    core radius for proj-oper                               
   RAUG   =    1.300    factor for augmentation sphere                          
   RDEP   =    2.761    radius for radial grids                                 
   RDEPT  =    2.203    core radius for aug-charge                              
                                                                                
   Atomic configuration                                                         
   16 entries                                                                   
     n  l   j            E        occ.                                          
     1  0  0.50    -78401.1885   2.0000                                         
     2  0  0.50    -13770.7750   2.0000                                         
     2  1  1.50    -11931.0468   6.0000                                         
     3  0  0.50     -3234.7234   2.0000                                         
     3  1  1.50     -2699.2216   6.0000                                         
     3  2  2.50     -2119.5714  10.0000                                         
     4  0  0.50      -695.1528   2.0000                                         
     4  1  1.50      -519.6034   6.0000                                         
     4  2  2.50      -306.6786  10.0000                                         
     4  3  3.50       -70.1041  14.0000                                         
     5  0  0.50      -101.7747   2.0000                                         
     5  1  1.50       -55.9873   6.0000                                         
     5  2  2.50        -6.1423   9.0000                                         
     6  0  0.50        -5.6573   1.0000                                         
     6  1  1.50        -6.8029   0.0000                                         
     5  3  2.50        -1.3606   0.0000                                         
   Description                                                                  
     l       E           TYP  RCUT    TYP  RCUT                                 
     2     -6.1423404     23  2.500                                             
     2     -7.5029230     23  2.500                                             
     0     -5.6573207     23  2.500                                             
     0      0.7416693     23  2.500                                             
     1     -2.7211652     23  2.600                                             
     1     20.4087390     23  2.600                                             
     3     -1.3605826     23  2.500                                             
  local pseudopotential read in
  partial core-charges read in
  partial kinetic energy density read in
  atomic valenz-charges read in
  non local Contribution for L=           2  read in
    real space projection operators read in
  non local Contribution for L=           2  read in
    real space projection operators read in
  non local Contribution for L=           0  read in
    real space projection operators read in
  non local Contribution for L=           0  read in
    real space projection operators read in
  non local Contribution for L=           1  read in
    real space projection operators read in
  non local Contribution for L=           1  read in
    real space projection operators read in
    PAW grid and wavefunctions read in
 
   number of l-projection  operators is LMAX  =           6
   number of lm-projection operators is LMMAX =          18
 
 POTCAR:    PAW_PBE Fe 06Sep2000                  
   VRHFIN =Fe:  d7 s1                                                           
   LEXCH  = PE                                                                  
   EATOM  =   594.3153 eV,   43.6809 Ry                                         
                                                                                
   TITEL  = PAW_PBE Fe 06Sep2000                                                
   LULTRA =        F    use ultrasoft PP ?                                      
   IUNSCR =        1    unscreen: 0-lin 1-nonlin 2-no                           
   RPACOR =    2.000    partial core radius                                     
   POMASS =   55.847; ZVAL   =    8.000    mass and valenz                      
   RCORE  =    2.300    outmost cutoff radius                                   
   RWIGS  =    2.460; RWIGS  =    1.302    wigner-seitz radius (au A)           
   ENMAX  =  267.882; ENMIN  =  200.911 eV                                      
   RCLOC  =    1.701    cutoff for local pot                                    
   LCOR   =        T    correct aug charges                                     
   LPAW   =        T    paw PP                                                  
   EAUG   =  511.368                                                            
   DEXC   =    0.000                                                            
   RMAX   =    2.356    core radius for proj-oper                               
   RAUG   =    1.300    factor for augmentation sphere                          
   RDEP   =    2.442    radius for radial grids                                 
   RDEPT  =    1.890    core radius for aug-charge                              
                                                                                
   Atomic configuration                                                         
    9 entries                                                                   
     n  l   j            E        occ.                                          
     1  0  0.50     -6993.8440   2.0000                                         
     2  0  0.50      -814.6047   2.0000                                         
     2  1  1.50      -693.3689   6.0000                                         
     3  0  0.50       -89.4732   2.0000                                         
     3  1  1.50       -55.6373   6.0000                                         
     3  2  2.50        -3.8151   7.0000                                         
     4  0  0.50        -4.2551   1.0000                                         
     4  1  1.50        -3.4015   0.0000                                         
     4  3  2.50        -1.3606   0.0000                                         
   Description                                                                  
     l       E           TYP  RCUT    TYP  RCUT                                 
     2     -3.8151135     23  2.300                                             
     2     -5.1756961     23  2.300                                             
     0     -4.2550963     23  2.300                                             
     0      7.2035603     23  2.300                                             
     1     -2.7211652     23  2.300                                             
     1     18.4316424     23  2.300                                             
  local pseudopotential read in
  partial core-charges read in
  partial kinetic energy density read in
  atomic valenz-charges read in
  non local Contribution for L=           2  read in
    real space projection operators read in
  non local Contribution for L=           2  read in
    real space projection operators read in
  non local Contribution for L=           0  read in
    real space projection operators read in
  non local Contribution for L=           0  read in
    real space projection operators read in
  non local Contribution for L=           1  read in
    real space projection operators read in
  non local Contribution for L=           1  read in
    real space projection operators read in
    PAW grid and wavefunctions read in
 
   number of l-projection  operators is LMAX  =           6
   number of lm-projection operators is LMMAX =          18
 
 POTCAR:    PAW_PBE Co 02Aug2007                  
   VRHFIN =Co: d8 s1                                                            
   LEXCH  = PE                                                                  
   EATOM  =   813.3670 eV,   59.7808 Ry                                         
                                                                                
   TITEL  = PAW_PBE Co 02Aug2007                                                
   LULTRA =        F    use ultrasoft PP ?                                      
   IUNSCR =        1    unscreen: 0-lin 1-nonlin 2-no                           
   RPACOR =    2.000    partial core radius                                     
   POMASS =   58.933; ZVAL   =    9.000    mass and valenz                      
   RCORE  =    2.300    outmost cutoff radius                                   
   RWIGS  =    2.460; RWIGS  =    1.302    wigner-seitz radius (au A)           
   ENMAX  =  267.968; ENMIN  =  200.976 eV                                      
   RCLOC  =    1.203    cutoff for local pot                                    
   LCOR   =        T    correct aug charges                                     
   LPAW   =        T    paw PP                                                  
   EAUG   =  477.818                                                            
   DEXC   =    0.000                                                            
   RMAX   =    2.360    core radius for proj-oper                               
   RAUG   =    1.300    factor for augmentation sphere                          
   RDEP   =    2.393    radius for radial grids                                 
   RDEPT  =    1.864    core radius for aug-charge                              
                                                                                
   Atomic configuration                                                         
    9 entries                                                                   
     n  l   j            E        occ.                                          
     1  0  0.50     -7587.6674   2.0000                                         
     2  0  0.50      -893.6084   2.0000                                         
     2  1  1.50      -764.5805   6.0000                                         
     3  0  0.50       -97.5973   2.0000                                         
     3  1  1.50       -60.9648   6.0000                                         
     3  2  2.50        -4.2382   8.0000                                         
     4  0  0.50        -4.3746   1.0000                                         
     4  1  1.50        -4.0817   0.0000                                         
     4  3  2.50        -1.3606   0.0000                                         
   Description                                                                  
     l       E           TYP  RCUT    TYP  RCUT                                 
     2     -4.2382362     23  2.300                                             
     2     -5.5988188     23  2.300                                             
     0     -4.3745797     23  2.300                                             
     0      5.7660125     23  2.300                                             
     1     -2.7211652     23  2.300                                             
     1     16.9860234     23  2.300                                             
  local pseudopotential read in
  partial core-charges read in
  partial kinetic energy density read in
  atomic valenz-charges read in
  non local Contribution for L=           2  read in
    real space projection operators read in
  non local Contribution for L=           2  read in
    real space projection operators read in
  non local Contribution for L=           0  read in
    real space projection operators read in
  non local Contribution for L=           0  read in
    real space projection operators read in
  non local Contribution for L=           1  read in
    real space projection operators read in
  non local Contribution for L=           1  read in
    real space projection operators read in
    PAW grid and wavefunctions read in
 
   number of l-projection  operators is LMAX  =           6
   number of lm-projection operators is LMMAX =          18
 
 POTCAR:    PAW_PBE Cu 22Jun2005                  
   VRHFIN =Cu: d10 p1                                                           
   LEXCH  = PE                                                                  
   EATOM  =  1390.9808 eV,  102.2342 Ry                                         
                                                                                
   TITEL  = PAW_PBE Cu 22Jun2005                                                
   LULTRA =        F    use ultrasoft PP ?                                      
   IUNSCR =        1    unscreen: 0-lin 1-nonlin 2-no                           
   RPACOR =    2.000    partial core radius                                     
   POMASS =   63.546; ZVAL   =   11.000    mass and valenz                      
   RCORE  =    2.300    outmost cutoff radius                                   
   RWIGS  =    2.200; RWIGS  =    1.164    wigner-seitz radius (au A)           
   ENMAX  =  295.446; ENMIN  =  221.585 eV                                      
   ICORE  =        3    local potential                                         
   LCOR   =        T    correct aug charges                                     
   LPAW   =        T    paw PP                                                  
   EAUG   =  586.980                                                            
   DEXC   =    0.000                                                            
   RMAX   =    2.344    core radius for proj-oper                               
   RAUG   =    1.300    factor for augmentation sphere                          
   RDEP   =    2.302    radius for radial grids                                 
   RDEPT  =    1.771    core radius for aug-charge                              
                                                                                
   Atomic configuration                                                         
    9 entries                                                                   
     n  l   j            E        occ.                                          
     1  0  0.50     -8850.2468   2.0000                                         
     2  0  0.50     -1062.3498   2.0000                                         
     2  1  1.50      -916.8226   6.0000                                         
     3  0  0.50      -114.6929   2.0000                                         
     3  1  1.50       -72.1325   6.0000                                         
     3  2  2.50        -5.0394  10.0000                                         
     4  0  0.50        -4.6097   1.0000                                         
     4  1  0.50        -4.0817   0.0000                                         
     4  3  2.50        -1.3606   0.0000                                         
   Description                                                                  
     l       E           TYP  RCUT    TYP  RCUT                                 
     2     -5.0393973     23  2.200                                             
     2     10.8846608     23  2.200                                             
     0     -4.6097109     23  2.200                                             
     0      8.2520465     23  2.200                                             
     1     -2.7211652     23  2.200                                             
     1     21.7055443     23  2.200                                             
     3      2.7211652     23  2.300                                             
  local pseudopotential read in
  partial core-charges read in
  partial kinetic energy density read in
  atomic valenz-charges read in
  non local Contribution for L=           2  read in
    real space projection operators read in
  non local Contribution for L=           2  read in
    real space projection operators read in
  non local Contribution for L=           0  read in
    real space projection operators read in
  non local Contribution for L=           0  read in
    real space projection operators read in
  non local Contribution for L=           1  read in
    real space projection operators read in
  non local Contribution for L=           1  read in
    real space projection operators read in
    PAW grid and wavefunctions read in
 
   number of l-projection  operators is LMAX  =           6
   number of lm-projection operators is LMMAX =          18
 
 POTCAR:    PAW_PBE Ni 02Aug2007                  
   VRHFIN =Ni:                                                                  
   LEXCH  = PE                                                                  
   EATOM  =  1077.6739 eV,   79.2068 Ry                                         
                                                                                
   TITEL  = PAW_PBE Ni 02Aug2007                                                
   LULTRA =        F    use ultrasoft PP ?                                      
   IUNSCR =        1    unscreen: 0-lin 1-nonlin 2-no                           
   RPACOR =    2.000    partial core radius                                     
   POMASS =   58.690; ZVAL   =   10.000    mass and valenz                      
   RCORE  =    2.300    outmost cutoff radius                                   
   RWIGS  =    2.430; RWIGS  =    1.286    wigner-seitz radius (au A)           
   ENMAX  =  269.532; ENMIN  =  202.149 eV                                      
   RCLOC  =    1.201    cutoff for local pot                                    
   LCOR   =        T    correct aug charges                                     
   LPAW   =        T    paw PP                                                  
   EAUG   =  544.565                                                            
   DEXC   =    0.000                                                            
   RMAX   =    2.357    core radius for proj-oper                               
   RAUG   =    1.300    factor for augmentation sphere                          
   RDEP   =    2.390    radius for radial grids                                 
   RDEPT  =    1.838    core radius for aug-charge                              
                                                                                
   Atomic configuration                                                         
    9 entries                                                                   
     n  l   j            E        occ.                                          
     1  0  0.50     -8206.4253   2.0000                                         
     2  0  0.50      -976.1748   2.0000                                         
     2  1  1.50      -839.0571   6.0000                                         
     3  0  0.50      -105.9991   2.0000                                         
     3  1  1.50       -66.4603   6.0000                                         
     3  2  2.50        -4.6458   9.0000                                         
     4  0  0.50        -4.4926   1.0000                                         
     4  1  1.50        -4.0817   0.0000                                         
     4  3  2.50        -1.3606   0.0000                                         
   Description                                                                  
     l       E           TYP  RCUT    TYP  RCUT                                 
     2     -4.6457903     23  2.300                                             
     2     -6.0063729     23  2.300                                             
     0     -4.4925590     23  2.300                                             
     0      5.0102601     23  2.300                                             
     1     -2.7211652     23  2.300                                             
     1     16.5183231     23  2.300                                             
  local pseudopotential read in
  partial core-charges read in
  partial kinetic energy density read in
  atomic valenz-charges read in
  non local Contribution for L=           2  read in
    real space projection operators read in
  non local Contribution for L=           2  read in
    real space projection operators read in
  non local Contribution for L=           0  read in
    real space projection operators read in
  non local Contribution for L=           0  read in
    real space projection operators read in
  non local Contribution for L=           1  read in
    real space projection operators read in
  non local Contribution for L=           1  read in
    real space projection operators read in
    PAW grid and wavefunctions read in
 
   number of l-projection  operators is LMAX  =           6
   number of lm-projection operators is LMMAX =          18
 
 POTCAR:    PAW_PBE H 15Jun2001                   
   VRHFIN =H: ultrasoft test                                                    
   LEXCH  = PE                                                                  
   EATOM  =    12.4884 eV,    0.9179 Ry                                         
                                                                                
   TITEL  = PAW_PBE H 15Jun2001                                                 
   LULTRA =        F    use ultrasoft PP ?                                      
   IUNSCR =        0    unscreen: 0-lin 1-nonlin 2-no                           
   RPACOR =    0.000    partial core radius                                     
   POMASS =    1.000; ZVAL   =    1.000    mass and valenz                      
   RCORE  =    1.100    outmost cutoff radius                                   
   RWIGS  =    0.700; RWIGS  =    0.370    wigner-seitz radius (au A)           
   ENMAX  =  250.000; ENMIN  =  200.000 eV                                      
   RCLOC  =    0.701    cutoff for local pot                                    
   LCOR   =        T    correct aug charges                                     
   LPAW   =        T    paw PP                                                  
   EAUG   =  400.000                                                            
   RMAX   =    1.123    core radius for proj-oper                               
   RAUG   =    1.200    factor for augmentation sphere                          
   RDEP   =    1.112    radius for radial grids                                 
   RDEPT  =    0.926    core radius for aug-charge                              
                                                                                
   Atomic configuration                                                         
    2 entries                                                                   
     n  l   j            E        occ.                                          
     1  0  0.50        -6.4927   1.0000                                         
     2  1  0.50        -3.4015   0.0000                                         
   Description                                                                  
     l       E           TYP  RCUT    TYP  RCUT                                 
     0     -6.4927494     23  1.100                                             
     0      6.8029130     23  1.100                                             
     1     -4.0817478     23  1.100                                             
  local pseudopotential read in
  atomic valenz-charges read in
  non local Contribution for L=           0  read in
    real space projection operators read in
  non local Contribution for L=           0  read in
    real space projection operators read in
  non local Contribution for L=           1  read in
    real space projection operators read in
    PAW grid and wavefunctions read in
 
   number of l-projection  operators is LMAX  =           3
   number of lm-projection operators is LMMAX =           5
 
 Optimization of the real space projectors (new method)

 maximal supplied QI-value         = 14.36
 optimisation between [QCUT,QGAM] = [ 11.92, 23.98] = [ 39.79,161.09] Ry 
 Optimized for a Real-space Cutoff    1.49 Angstroem

   l    n(q)    QCUT    max X(q) W(low)/X(q) W(high)/X(q)  e(spline) 
   2     10    11.920    66.195    0.79E-04    0.18E-03    0.24E-06
   2     10    11.920    64.643    0.81E-04    0.19E-03    0.24E-06
   0     11    11.920    95.520    0.28E-04    0.54E-04    0.18E-06
   0     11    11.920    63.403    0.27E-04    0.52E-04    0.17E-06
   1     10    11.920    19.961    0.18E-04    0.11E-03    0.23E-06
   1     10    11.920    13.289    0.25E-04    0.87E-04    0.19E-06
 Optimization of the real space projectors (new method)

 maximal supplied QI-value         = 16.25
 optimisation between [QCUT,QGAM] = [ 11.86, 23.89] = [ 39.41,159.82] Ry 
 Optimized for a Real-space Cutoff    1.49 Angstroem

   l    n(q)    QCUT    max X(q) W(low)/X(q) W(high)/X(q)  e(spline) 
   2     10    11.864    80.901    0.13E-03    0.23E-03    0.37E-06
   2     10    11.864    75.754    0.13E-03    0.23E-03    0.38E-06
   0     11    11.864    58.752    0.44E-04    0.11E-04    0.20E-06
   0     11    11.864    30.679    0.36E-04    0.10E-04    0.18E-06
   1     10    11.864    17.977    0.31E-04    0.45E-04    0.10E-06
   1     10    11.864    13.559    0.25E-04    0.37E-04    0.89E-07
 Optimization of the real space projectors (new method)

 maximal supplied QI-value         = 16.25
 optimisation between [QCUT,QGAM] = [ 11.86, 23.89] = [ 39.41,159.82] Ry 
 Optimized for a Real-space Cutoff    1.33 Angstroem

   l    n(q)    QCUT    max X(q) W(low)/X(q) W(high)/X(q)  e(spline) 
   2      9    11.864    65.824    0.22E-03    0.53E-03    0.26E-06
   2      9    11.864    61.429    0.22E-03    0.53E-03    0.26E-06
   0      9    11.864    56.174    0.21E-03    0.32E-04    0.15E-06
   0      9    11.864    31.263    0.19E-03    0.30E-04    0.14E-06
   1      9    11.864    19.828    0.63E-04    0.30E-03    0.16E-06
   1      9    11.864    15.139    0.49E-04    0.25E-03    0.13E-06
 Optimization of the real space projectors (new method)

 maximal supplied QI-value         = 16.25
 optimisation between [QCUT,QGAM] = [ 11.86, 23.89] = [ 39.41,159.82] Ry 
 Optimized for a Real-space Cutoff    1.49 Angstroem

   l    n(q)    QCUT    max X(q) W(low)/X(q) W(high)/X(q)  e(spline) 
   2     10    11.864     4.610    0.10E-03    0.20E-03    0.29E-06
   2     10    11.864     8.522    0.17E-03    0.33E-03    0.50E-06
   0     11    11.864    51.609    0.52E-04    0.55E-04    0.33E-06
   0     11    11.864    27.747    0.46E-04    0.52E-04    0.31E-06
   1     10    11.864    20.408    0.54E-04    0.25E-04    0.21E-06
   1     10    11.864    13.425    0.48E-04    0.22E-04    0.18E-06
 Optimization of the real space projectors (new method)

 maximal supplied QI-value         = 16.25
 optimisation between [QCUT,QGAM] = [ 11.86, 23.89] = [ 39.41,159.82] Ry 
 Optimized for a Real-space Cutoff    1.33 Angstroem

   l    n(q)    QCUT    max X(q) W(low)/X(q) W(high)/X(q)  e(spline) 
   2      9    11.864    60.317    0.21E-03    0.51E-03    0.25E-06
   2      9    11.864    55.921    0.21E-03    0.51E-03    0.26E-06
   0      9    11.864    51.690    0.22E-03    0.30E-04    0.17E-06
   0      9    11.864    30.015    0.20E-03    0.28E-04    0.15E-06
   1      9    11.864    18.849    0.76E-04    0.33E-03    0.17E-06
   1      9    11.864    14.624    0.60E-04    0.28E-03    0.15E-06
 Optimization of the real space projectors (new method)

 maximal supplied QI-value         = 34.20
 optimisation between [QCUT,QGAM] = [ 11.97, 23.94] = [ 40.13,160.53] Ry 
 Optimized for a Real-space Cutoff    1.18 Angstroem

   l    n(q)    QCUT    max X(q) W(low)/X(q) W(high)/X(q)  e(spline) 
   0      8    11.971    19.460    0.15E-03    0.31E-03    0.25E-06
   0      8    11.971    12.209    0.13E-03    0.29E-03    0.25E-06
   1      8    11.971     4.655    0.22E-03    0.24E-03    0.21E-06
  PAW_PBE Pt 04Feb2005                  :
 energy of atom  1       EATOM= -729.1176
 kinetic energy error for atom=    0.0021 (will be added to EATOM!!)
  PAW_PBE Fe 06Sep2000                  :
 energy of atom  2       EATOM= -594.3153
 kinetic energy error for atom=    0.0024 (will be added to EATOM!!)
  PAW_PBE Co 02Aug2007                  :
 energy of atom  3       EATOM= -813.3670
 kinetic energy error for atom=    0.0026 (will be added to EATOM!!)
  PAW_PBE Cu 22Jun2005                  :
 energy of atom  4       EATOM=-1390.9808
 kinetic energy error for atom=    0.0036 (will be added to EATOM!!)
  PAW_PBE Ni 02Aug2007                  :
 energy of atom  5       EATOM=-1077.6739
 kinetic energy error for atom=    0.0027 (will be added to EATOM!!)
  PAW_PBE H 15Jun2001                   :
 energy of atom  6       EATOM=  -12.4884
 kinetic energy error for atom=    0.0008 (will be added to EATOM!!)
 
 
 POSCAR: 10.66                                   
  positions in direct lattice
  velocities in cartesian coordinates
 exchange correlation table for  LEXCH =        8
   RHO(1)=    0.500       N(1)  =     2000
   RHO(2)=  100.500       N(2)  =     4000
 


--------------------------------------------------------------------------------------------------------


 ion  position               nearest neighbor table
   1  0.787  0.879  0.317-  49 2.62  28 2.62  59 2.64  19 2.66  33 2.68  61 2.68  29 2.70  60 2.70
                             2 2.74  11 2.76   4 2.84  12 2.84
   2  0.042  0.882  0.316-  79 2.56  77 2.60  60 2.65  30 2.66  28 2.67  52 2.69  33 2.69  22 2.71
                             1 2.74   6 2.79   4 2.87  16 2.94
   3  0.279  0.381  0.319-  64 2.57  39 2.59  33 2.61  31 2.63  68 2.71  19 2.73  43 2.73  30 2.73
                             5 2.77  13 2.79  25 2.84  18 2.84
   4  0.870  0.964  0.425-  17 2.63  11 2.64   9 2.67  12 2.70   6 2.72  16 2.74  60 2.83   1 2.84
                             2 2.87
   5  0.121  0.462  0.426-  16 2.63  12 2.64  10 2.65   7 2.65  13 2.70  25 2.70  39 2.71  33 2.72
                             3 2.77
   6  0.125  0.964  0.422-   8 2.63  10 2.65   9 2.68  14 2.69   4 2.72  16 2.74   2 2.79  52 2.80
                            22 2.86
   7  0.874  0.460  0.425-   9 2.64  15 2.64   5 2.65  10 2.66  12 2.66  39 2.69  27 2.69  75 2.75
                            29 2.79
   8  0.374  0.960  0.419-  43 2.60   6 2.63  14 2.64  27 2.65  13 2.66  11 2.67  10 2.67  52 2.68
                            61 2.71
   9  0.872  0.213  0.419-  15 2.64   7 2.64  17 2.66  75 2.66   4 2.67   6 2.68  10 2.69  60 2.71
                            22 2.80
  10  0.125  0.212  0.421-  13 2.64   5 2.65   6 2.65   7 2.66  39 2.66   8 2.67   9 2.69  43 2.72
                            22 2.77
  11  0.624  0.961  0.422-  81 1.83   4 2.64  13 2.66  27 2.66  12 2.66   8 2.67  17 2.67   1 2.76
                            19 2.81  61 2.82
  12  0.873  0.710  0.424-   5 2.64   7 2.66  27 2.66  11 2.66  33 2.69  16 2.69   4 2.70  29 2.78
                             1 2.84
  13  0.374  0.209  0.423-  81 1.78  10 2.64  11 2.66   8 2.66  17 2.67  25 2.69   5 2.70  43 2.75
                             3 2.79  19 2.81
  14  0.377  0.712  0.422-  27 2.61   8 2.64  15 2.65  44 2.67  25 2.68   6 2.69  16 2.70  52 2.73
                            30 2.75
  15  0.626  0.462  0.421-   9 2.64   7 2.64  27 2.65  14 2.65  25 2.68  17 2.68  44 2.69  75 2.71
                            18 2.76
  16  0.127  0.707  0.427-  25 2.63   5 2.63  12 2.69  14 2.70  33 2.71   4 2.74   6 2.74  30 2.84
                             2 2.94
  17  0.624  0.211  0.421-  81 1.94   4 2.63   9 2.66  25 2.66  11 2.67  13 2.67  15 2.68  18 2.75
                            60 2.77  19 2.85
  18  0.548  0.376  0.316-  67 2.56  60 2.62  75 2.63  68 2.65  26 2.66  44 2.66  30 2.74  17 2.75
                            19 2.75  15 2.76   3 2.84  25 2.86
  19  0.534  0.125  0.314-  80 2.55  68 2.57  43 2.58  59 2.60   1 2.66  61 2.66   3 2.73  18 2.75
                            60 2.78  13 2.81  11 2.81  17 2.85
  20  0.549  0.122  0.042-  37 2.55  57 2.55  48 2.57  62 2.66  63 2.70  34 2.71  45 2.73  47 2.74
                            56 2.74
  21  0.120  0.460  0.128-  40 2.52  36 2.53  47 2.53  42 2.60  64 2.62  69 2.62  70 2.66  50 2.67
                            31 2.71  58 2.71  57 2.74  74 2.75
  22  0.044  0.136  0.314-  65 2.52  55 2.54  77 2.57  43 2.60  39 2.61  75 2.64   2 2.71  60 2.71
                            52 2.75  10 2.77   9 2.80   6 2.86  31 3.41
  23  0.042  0.131  0.034-  70 2.57  40 2.60  41 2.61  45 2.64  62 2.65  76 2.65  24 2.69  35 2.76
                            53 2.81
  24  0.131  0.958  0.132-  79 2.52  77 2.55  35 2.57  53 2.58  55 2.59  70 2.64  38 2.66  58 2.66
                            73 2.67  23 2.69  66 2.73  41 2.75
  25  0.375  0.461  0.424-  16 2.63  17 2.66  15 2.68  14 2.68  13 2.69   5 2.70  30 2.82   3 2.84
                            18 2.86
  26  0.455  0.546  0.219-  73 2.50  74 2.54  51 2.55  79 2.63  64 2.65  30 2.66  18 2.66  68 2.69
                            78 2.69  32 2.70  44 2.74  67 2.75
  27  0.622  0.712  0.423-  14 2.61   8 2.65  15 2.65  11 2.66  12 2.66   7 2.69  44 2.70  61 2.77
                            29 2.78
  28  0.956  0.789  0.221-  58 2.56  66 2.58  50 2.58  42 2.61   1 2.62  49 2.64  64 2.66   2 2.67
                            33 2.70  59 2.74  79 2.80  77 2.81
  29  0.794  0.623  0.319-  42 2.56  39 2.56  75 2.60  32 2.62  44 2.67  33 2.67  49 2.68  61 2.70
                             1 2.70  12 2.78  27 2.78   7 2.79
  30  0.290  0.631  0.318-  79 2.56  64 2.61  52 2.63  26 2.66  44 2.66   2 2.66  33 2.67   3 2.73
                            18 2.74  14 2.75  25 2.82  16 2.84
  31  0.202  0.280  0.225-  70 2.51  55 2.58  43 2.58  65 2.59  57 2.60   3 2.63  39 2.66  21 2.71
                            80 2.72  42 2.74  68 2.79  64 2.83  22 3.41
  32  0.706  0.550  0.221-  54 2.53  69 2.56  51 2.58  49 2.60  29 2.62  42 2.62  78 2.64  65 2.65
                            75 2.68  44 2.69  26 2.70  67 2.72
  33  0.040  0.632  0.325-   3 2.61  30 2.67  39 2.67  29 2.67   1 2.68  12 2.69   2 2.69  28 2.70
                            64 2.70  16 2.71   5 2.72  42 2.73
  34  0.796  0.862  0.044-  50 2.39  66 2.51  48 2.52  36 2.55  71 2.58  63 2.62  20 2.71  62 2.79
                            35 2.80
  35  0.057  0.865  0.039-  58 2.54  72 2.55  36 2.56  24 2.57  66 2.62  53 2.68  23 2.76  62 2.76
                            34 2.80
  36  0.044  0.632  0.039-  21 2.53  34 2.55  35 2.56  58 2.58  50 2.59  47 2.67  72 2.69  71 2.74
                            40 2.76
  37  0.628  0.224  0.129-  51 2.51  67 2.52  56 2.52  74 2.53  20 2.55  68 2.56  59 2.56  41 2.57
                            62 2.59  66 2.69  57 2.76  48 2.95
  38  0.383  0.954  0.131-  53 2.46  45 2.47  80 2.47  78 2.53  73 2.56  63 2.56  48 2.56  54 2.58
                            55 2.58  57 2.65  24 2.66  70 2.70
  39  0.035  0.384  0.324-  29 2.56   3 2.59  75 2.60  22 2.61  42 2.65  10 2.66  31 2.66  33 2.67
                             7 2.69   5 2.71  65 2.74  43 2.82
  40  0.028  0.381  0.039-  69 2.42  21 2.52  71 2.54  76 2.54  70 2.56  23 2.60  36 2.76  45 2.84
                            47 2.85
  41  0.872  0.215  0.129-  76 2.45  65 2.52  77 2.53  67 2.53  37 2.57  62 2.57  69 2.59  23 2.61
                            51 2.61  70 2.68  66 2.68  24 2.75
  42  0.955  0.545  0.224-  50 2.55  29 2.56  69 2.60  21 2.60  28 2.61  32 2.62  49 2.65  39 2.65
                            65 2.65  64 2.69  33 2.73  31 2.74
  43  0.296  0.116  0.320-  55 2.52  52 2.57  31 2.58  19 2.58  61 2.59   8 2.60  22 2.60  80 2.64
                            10 2.72   3 2.73  13 2.75  39 2.82
  44  0.541  0.629  0.321-  61 2.59  52 2.60  78 2.63  30 2.66  18 2.66  14 2.67  29 2.67  75 2.68
                            15 2.69  32 2.69  27 2.70  26 2.74
  45  0.296  0.116  0.041-  38 2.47  70 2.49  57 2.57  53 2.58  23 2.64  63 2.65  20 2.73  47 2.83
                            40 2.84
  46  0.549  0.625  0.045-  51 2.38  73 2.39  54 2.41  71 2.57  53 2.59  63 2.60  76 2.62  56 2.63
                            72 2.66
  47  0.294  0.382  0.040-  74 2.41  21 2.53  57 2.64  72 2.65  56 2.66  36 2.67  20 2.74  45 2.83
                            40 2.85
  48  0.626  0.948  0.133-  49 2.39  54 2.48  80 2.49  34 2.52  59 2.56  63 2.56  38 2.56  20 2.57
                            50 2.58  57 2.68  66 2.72  37 2.95
  49  0.707  0.793  0.220-  48 2.39  50 2.47  54 2.48  80 2.57  32 2.60   1 2.62  61 2.63  28 2.64
                            78 2.64  42 2.65  29 2.68  59 2.73
  50  0.865  0.704  0.130-  34 2.39  71 2.42  49 2.47  54 2.49  42 2.55  48 2.58  28 2.58  69 2.58
                            36 2.59  21 2.67  66 2.81  58 2.90
  51  0.627  0.460  0.128-  46 2.38  76 2.44  56 2.51  37 2.51  26 2.55  32 2.58  41 2.61  67 2.62
                            73 2.63  69 2.64  74 2.65  54 2.72
  52  0.298  0.874  0.318-  55 2.44  79 2.52  78 2.52  61 2.56  43 2.57  44 2.60  30 2.63   8 2.68
                             2 2.69  14 2.73  22 2.75   6 2.80
  53  0.307  0.869  0.042-  73 2.42  38 2.46  63 2.57  24 2.58  45 2.58  46 2.59  72 2.61  35 2.68
                            23 2.81
  54  0.627  0.715  0.129-  46 2.41  71 2.46  63 2.48  48 2.48  49 2.48  50 2.49  32 2.53  38 2.58
                            73 2.58  78 2.62  69 2.70  51 2.72
  55  0.225  0.027  0.228-  52 2.44  78 2.48  79 2.51  43 2.52  80 2.54  22 2.54  31 2.58  38 2.58
                            24 2.59  70 2.72  77 2.75  65 2.90
  56  0.544  0.381  0.036-  74 2.50  51 2.51  37 2.52  76 2.61  46 2.63  72 2.64  47 2.66  62 2.72
                            20 2.74
  57  0.379  0.204  0.133-  68 2.46  80 2.54  20 2.55  45 2.57  31 2.60  47 2.64  38 2.65  74 2.66
                            70 2.66  48 2.68  21 2.74  37 2.76
  58  0.137  0.705  0.133-  72 2.46  64 2.50  35 2.54  28 2.56  79 2.57  36 2.58  74 2.66  24 2.66
                            73 2.70  21 2.71  50 2.90
  59  0.705  0.051  0.220-  66 2.52  48 2.56  37 2.56  19 2.60  68 2.61  67 2.61  60 2.62   1 2.64
                            77 2.69  80 2.71  49 2.73  28 2.74
  60  0.793  0.129  0.317-  67 2.53  77 2.57  59 2.62  18 2.62   2 2.65  75 2.67   1 2.70   9 2.71
                            22 2.71  17 2.77  19 2.78   4 2.83
  61  0.539  0.873  0.317-  78 2.49  80 2.52  52 2.56  43 2.59  44 2.59  49 2.63  19 2.66   1 2.68
                            29 2.70   8 2.71  27 2.77  11 2.82
  62  0.797  0.123  0.036-  66 2.53  41 2.57  37 2.59  23 2.65  20 2.66  76 2.68  56 2.72  35 2.76
                            34 2.79
  63  0.546  0.870  0.037-  54 2.48  38 2.56  48 2.56  53 2.57  46 2.60  34 2.62  71 2.63  45 2.65
                            20 2.70
  64  0.208  0.542  0.224-  58 2.50   3 2.57  30 2.61  21 2.62  26 2.65  28 2.66  68 2.66  74 2.67
                            42 2.69  33 2.70  79 2.76  31 2.83
  65  0.951  0.297  0.222-  69 2.52  22 2.52  41 2.52  67 2.55  77 2.58  31 2.59  75 2.61  70 2.61
                            32 2.65  42 2.65  39 2.74  55 2.90
  66  0.872  0.964  0.130-  34 2.51  59 2.52  62 2.53  77 2.58  28 2.58  35 2.62  41 2.68  37 2.69
                            48 2.72  24 2.73  50 2.81
  67  0.715  0.290  0.224-  37 2.52  60 2.53  41 2.53  77 2.54  65 2.55  18 2.56  59 2.61  51 2.62
                            75 2.63  32 2.72  68 2.74  26 2.75
  68  0.457  0.292  0.221-  57 2.46  74 2.54  37 2.56  19 2.57  59 2.61  18 2.65  64 2.66  26 2.69
                             3 2.71  67 2.74  80 2.78  31 2.79
  69  0.875  0.457  0.129-  40 2.42  71 2.45  76 2.46  65 2.52  32 2.56  50 2.58  41 2.59  42 2.60
                            21 2.62  51 2.64  70 2.68  54 2.70
  70  0.128  0.206  0.129-  45 2.49  31 2.51  40 2.56  23 2.57  65 2.61  24 2.64  21 2.66  57 2.66
                            41 2.68  69 2.68  38 2.70  55 2.72
  71  0.792  0.622  0.041-  50 2.42  69 2.45  54 2.46  40 2.54  46 2.57  34 2.58  76 2.61  63 2.63
                            36 2.74
  72  0.298  0.629  0.044-  74 2.46  58 2.46  73 2.47  35 2.55  53 2.61  56 2.64  47 2.65  46 2.66
                            36 2.69
  73  0.386  0.713  0.130-  46 2.39  53 2.42  72 2.47  26 2.50  78 2.54  38 2.56  54 2.58  79 2.63
                            51 2.63  24 2.67  58 2.70  74 2.80
  74  0.382  0.451  0.127-  47 2.41  72 2.46  56 2.50  37 2.53  68 2.54  26 2.54  51 2.65  57 2.66
                            58 2.66  64 2.67  21 2.75  73 2.80
  75  0.793  0.380  0.320-  29 2.60  39 2.60  65 2.61  67 2.63  18 2.63  22 2.64   9 2.66  60 2.67
                            44 2.68  32 2.68  15 2.71   7 2.75
  76  0.791  0.377  0.041-  51 2.44  41 2.45  69 2.46  40 2.54  56 2.61  71 2.61  46 2.62  23 2.65
                            62 2.68
  77  0.956  0.053  0.222-  41 2.53  67 2.54  24 2.55  22 2.57  60 2.57  66 2.58  65 2.58   2 2.60
                            59 2.69  79 2.74  55 2.75  28 2.81
  78  0.458  0.796  0.225-  55 2.48  61 2.49  80 2.50  52 2.52  38 2.53  73 2.54  79 2.59  54 2.62
                            44 2.63  49 2.64  32 2.64  26 2.69
  79  0.215  0.798  0.225-  55 2.51  24 2.52  52 2.52   2 2.56  30 2.56  58 2.57  78 2.59  73 2.63
                            26 2.63  77 2.74  64 2.76  28 2.80
  80  0.462  0.029  0.223-  38 2.47  48 2.49  78 2.50  61 2.52  55 2.54  57 2.54  19 2.55  49 2.57
                            43 2.64  59 2.71  31 2.72  68 2.78
  81  0.534  0.125  0.468-  13 1.78  11 1.83  17 1.94
 
  LATTYP: Found a hexagonal cell.
 ALAT       =    10.6599998474
 C/A-ratio  =     2.0637898982
  
  Lattice vectors:
  
 A1 = (   5.3299999237,  -9.2318306722,   0.0000000000)
 A2 = ( -10.6599998474,   0.0000000000,   0.0000000000)
 A3 = (   0.0000000000,   0.0000000000, -22.0000000000)


Analysis of symmetry for initial positions (statically):
=====================================================================
 Subroutine PRICEL returns:
 Original cell was already a primitive cell.
 

 Routine SETGRP: Setting up the symmetry group for a 
 hexagonal supercell.


 Subroutine GETGRP returns: Found  1 space group operations
 (whereof  1 operations were pure point group operations)
 out of a pool of 24 trial point group operations.


The static configuration has the point symmetry C_1 .


Analysis of symmetry for dynamics (positions and initial velocities):
=====================================================================
 Subroutine PRICEL returns:
 Original cell was already a primitive cell.
 

 Routine SETGRP: Setting up the symmetry group for a 
 hexagonal supercell.


 Subroutine GETGRP returns: Found  1 space group operations
 (whereof  1 operations were pure point group operations)
 out of a pool of 24 trial point group operations.


The dynamic configuration has the point symmetry C_1 .


Analysis of constrained symmetry for selective dynamics:
=====================================================================
 Subroutine PRICEL returns:
 Original cell was already a primitive cell.
 

 Routine SETGRP: Setting up the symmetry group for a 
 hexagonal supercell.


 Subroutine GETGRP returns: Found  1 space group operations
 (whereof  1 operations were pure point group operations)
 out of a pool of 24 trial point group operations.


The constrained configuration has the point symmetry C_1 .


Analysis of structural, dynamic, and magnetic symmetry:
=====================================================================
 Subroutine PRICEL returns:
 Original cell was already a primitive cell.
 

 Routine SETGRP: Setting up the symmetry group for a 
 hexagonal supercell.


 Subroutine GETGRP returns: Found  1 space group operations
 (whereof  1 operations were pure point group operations)
 out of a pool of 24 trial point group operations.


The magnetic configuration has the point symmetry C_1 .


 Subroutine INISYM returns: Found  1 space group operations
 (whereof  1 operations are pure point group operations),
 and found     1 'primitive' translations

 
 
 KPOINTS: mesh auto                               

Automatic generation of k-mesh.
Space group operators:
 irot       det(A)        alpha          n_x          n_y          n_z        tau_x        tau_y        tau_z
    1     1.000000     0.000000     1.000000     0.000000     0.000000     0.000000     0.000000     0.000000
 
 Subroutine IBZKPT returns following result:
 ===========================================
 
 Found      4 irreducible k-points:
 
 Following reciprocal coordinates:
            Coordinates               Weight
  0.000000  0.000000  0.000000      1.000000
  0.500000 -0.000000  0.000000      1.000000
  0.000000  0.500000  0.000000      1.000000
  0.500000  0.500000  0.000000      1.000000
 
 Following cartesian coordinates:
            Coordinates               Weight
  0.000000  0.000000  0.000000      1.000000
  0.046904 -0.027080  0.000000      1.000000
  0.000000  0.054160  0.000000      1.000000
  0.046904  0.027080  0.000000      1.000000
 


--------------------------------------------------------------------------------------------------------




 Dimension of arrays:
   k-points           NKPTS =      4   k-points in BZ     NKDIM =      4   number of bands    NBANDS=    588
   number of dos      NEDOS =    301   number of ions     NIONS =     81
   non local maximal  LDIM  =      6   non local SUM 2l+1 LMDIM =     18
   total plane-waves  NPLWV = ******
   max r-space proj   IRMAX =   7657   max aug-charges    IRDMAX=  33358
   dimension x,y,z NGX =    84 NGY =   84 NGZ =  168
   dimension x,y,z NGXF=   168 NGYF=  168 NGZF=  336
   support grid    NGXF=   168 NGYF=  168 NGZF=  336
   ions per type =              32  13  10  13  12   1
   NGX,Y,Z   is equivalent  to a cutoff of  13.10, 13.10, 12.70 a.u.
   NGXF,Y,Z  is equivalent  to a cutoff of  26.20, 26.20, 25.39 a.u.

 SYSTEM =  Pt111                                   
 POSCAR =  10.66                                   

 Startparameter for this run:
   NWRITE =      2    write-flag & timer
   PREC   = accura    normal or accurate (medium, high low for compatibility)
   ISTART =      0    job   : 0-new  1-cont  2-samecut
   ICHARG =      2    charge: 1-file 2-atom 10-const
   ISPIN  =      2    spin polarized calculation?
   LNONCOLLINEAR =      F non collinear calculations
   LSORBIT =      F    spin-orbit coupling
   INIWAV =      1    electr: 0-lowe 1-rand  2-diag
   LASPH  =      F    aspherical Exc in radial PAW
   METAGGA=      F    non-selfconsistent MetaGGA calc.

 Electronic Relaxation 1
   ENCUT  =  550.0 eV  40.42 Ry    6.36 a.u.  20.38 20.38 42.07*2*pi/ulx,y,z
   ENINI  =  550.0     initial cutoff
   ENAUG  =  587.0 eV  augmentation charge cutoff
   NELM   =    200;   NELMIN=  2; NELMDL= -5     # of ELM steps 
   EDIFF  = 0.1E-04   stopping-criterion for ELM
   LREAL  =      T    real-space projection
   NLSPLINE    = F    spline interpolate recip. space projectors
   LCOMPAT=      F    compatible to vasp.4.4
   GGA_COMPAT  = T    GGA compatible to vasp.4.4-vasp.4.6
   LMAXPAW     = -100 max onsite density
   LMAXMIX     =    2 max onsite mixed and CHGCAR
   VOSKOWN=      0    Vosko Wilk Nusair interpolation
   ROPT   =   -0.00025  -0.00025  -0.00025  -0.00025
   ROPT   =   -0.00025  -0.00025
 Ionic relaxation
   EDIFFG = -.5E-01   stopping-criterion for IOM
   NSW    =    300    number of steps for IOM
   NBLOCK =      1;   KBLOCK =    300    inner block; outer block 
   IBRION =      2    ionic relax: 0-MD 1-quasi-New 2-CG
   NFREE  =      1    steps in history (QN), initial steepest desc. (CG)
   ISIF   =      2    stress and relaxation
   IWAVPR =     11    prediction:  0-non 1-charg 2-wave 3-comb
   ISYM   =      2    0-nonsym 1-usesym 2-fastsym
   LCORR  =      T    Harris-Foulkes like correction to forces

   POTIM  = 0.5000    time-step for ionic-motion
   TEIN   =    0.0    initial temperature
   TEBEG  =    0.0;   TEEND  =   0.0 temperature during run
   SMASS  =  -3.00    Nose mass-parameter (am)
   estimated Nose-frequenzy (Omega)   =  0.10E-29 period in steps =****** mass=  -0.260E-26a.u.
   SCALEE = 1.0000    scale energy and forces
   NPACO  =    256;   APACO  = 16.0  distance and # of slots for P.C.
   PSTRESS=    0.0 pullay stress

  Mass of Ions in am
   POMASS = 195.08 55.85 58.93 63.55 58.69  1.00
  Ionic Valenz
   ZVAL   =  10.00  8.00  9.00 11.00 10.00  1.00
  Atomic Wigner-Seitz radii
   RWIGS  =  -1.00 -1.00 -1.00 -1.00 -1.00 -1.00
  virtual crystal weights 
   VCA    =   1.00  1.00  1.00  1.00  1.00  1.00
   NELECT =     778.0000    total number of electrons
   NUPDOWN=      -1.0000    fix difference up-down

 DOS related values:
   EMIN   =  10.00;   EMAX   =-10.00  energy-range for DOS
   EFERMI =   0.00
   ISMEAR =     1;   SIGMA  =   0.10  broadening in eV -4-tet -1-fermi 0-gaus

 Electronic relaxation 2 (details)
   IALGO  =     68    algorithm
   LDIAG  =      T    sub-space diagonalisation (order eigenvalues)
   LSUBROT=      F    optimize rotation matrix (better conditioning)
   TURBO    =      0    0=normal 1=particle mesh
   IRESTART =      0    0=no restart 2=restart with 2 vectors
   NREBOOT  =      0    no. of reboots
   NMIN     =      0    reboot dimension
   EREF     =   0.00    reference energy to select bands
   IMIX   =      4    mixing-type and parameters
     AMIX     =   0.40;   BMIX     =  1.00
     AMIX_MAG =   1.60;   BMIX_MAG =  1.00
     AMIN     =   0.10
     WC   =   100.;   INIMIX=   1;  MIXPRE=   1;  MAXMIX= -45

 Intra band minimization:
   WEIMIN = 0.0010     energy-eigenvalue tresh-hold
   EBREAK =  0.43E-08  absolut break condition
   DEPER  =   0.30     relativ break condition  

   TIME   =   0.40     timestep for ELM

  volume/ion in A,a.u.               =      26.73       180.38
  Fermi-wavevector in a.u.,A,eV,Ry     =   1.163891  2.199434 18.431011  1.354641
  Thomas-Fermi vector in A             =   2.300435
 
 Write flags
   LWAVE        =      F    write WAVECAR
   LDOWNSAMPLE  =      F    k-point downsampling of WAVECAR
   LCHARG       =      F    write CHGCAR
   LVTOT        =      F    write LOCPOT, total local potential
   LVHAR        =      F    write LOCPOT, Hartree potential only
   LELF         =      F    write electronic localiz. function (ELF)
   LORBIT       =      0    0 simple, 1 ext, 2 COOP (PROOUT), +10 PAW based schemes


 Dipole corrections
   LMONO  =      F    monopole corrections only (constant potential shift)
   LDIPOL =      F    correct potential (dipole corrections)
   IDIPOL =      0    1-x, 2-y, 3-z, 4-all directions 
   EPSILON=  1.0000000 bulk dielectric constant

 Exchange correlation treatment:
   GGA     =    --    GGA type
   LEXCH   =     8    internal setting for exchange type
   VOSKOWN=      0    Vosko Wilk Nusair interpolation
   LHFCALC =     F    Hartree Fock is set to
   LHFONE  =     F    Hartree Fock one center treatment
   AEXX    =    0.0000 exact exchange contribution

 Linear response parameters
   LEPSILON=     F    determine dielectric tensor
   LRPA    =     F    only Hartree local field effects (RPA)
   LNABLA  =     F    use nabla operator in PAW spheres
   LVEL    =     F    velocity operator in full k-point grid
   LINTERFAST=   F  fast interpolation
   KINTER  =     0    interpolate to denser k-point grid
   CSHIFT  =0.1000    complex shift for real part using Kramers Kronig
   OMEGAMAX=  -1.0    maximum frequency
   DEG_THRESHOLD= 0.2000000E-02 threshold for treating states as degnerate
   RTIME   =   -0.100 relaxation time in fs
  (WPLASMAI=    0.000 imaginary part of plasma frequency in eV, 0.658/RTIME)
   DFIELD  = 0.0000000 0.0000000 0.0000000 field for delta impulse in time
 
 Orbital magnetization related:
   ORBITALMAG=     F  switch on orbital magnetization
   LCHIMAG   =     F  perturbation theory with respect to B field
   DQ        =  0.001000  dq finite difference perturbation B field
   LLRAUG    =     F  two centre corrections for induced B field



--------------------------------------------------------------------------------------------------------


 conjugate gradient relaxation of ions
   using selective dynamics as specified on POSCAR
 charge density and potential will be updated during run
 spin polarized calculation
 RMM-DIIS sequential band-by-band and
  variant of blocked Davidson during initial phase
 perform sub-space diagonalisation
    before iterative eigenvector-optimisation
 modified Broyden-mixing scheme, WC =      100.0
 initial mixing is a Kerker type mixing with AMIX =  0.4000 and BMIX =      1.0000
 Hartree-type preconditioning will be used
 using additional bands          199
 real space projection scheme for non local part
 use partial core corrections
 calculate Harris-corrections to forces 
   (improved forces if not selfconsistent)
 use gradient corrections 
 use of overlap-Matrix (Vanderbilt PP)
 Methfessel and Paxton  Order N= 1 SIGMA  =   0.10


--------------------------------------------------------------------------------------------------------


  energy-cutoff  :      550.00
  volume of cell :     2165.05
      direct lattice vectors                 reciprocal lattice vectors
    10.659999847  0.000000000  0.000000000     0.093808632 -0.054160439  0.000000000
     5.329999924  9.231830672  0.000000000     0.000000000  0.108320878  0.000000000
     0.000000000  0.000000000 22.000000000     0.000000000  0.000000000  0.045454545

  length of vectors
    10.659999847 10.659999847 22.000000000     0.108320878  0.108320878  0.045454545


 
 k-points in units of 2pi/SCALE and weight: mesh auto                               
   0.00000000  0.00000000  0.00000000       0.250
   0.04690432 -0.02708022  0.00000000       0.250
   0.00000000  0.05416044  0.00000000       0.250
   0.04690432  0.02708022  0.00000000       0.250
 
 k-points in reciprocal lattice and weights: mesh auto                               
   0.00000000  0.00000000  0.00000000       0.250
   0.50000000 -0.00000000  0.00000000       0.250
   0.00000000  0.50000000  0.00000000       0.250
   0.50000000  0.50000000  0.00000000       0.250
 
 position of ions in fractional coordinates (direct lattice) 
   0.78698156  0.87934948  0.31670903
   0.04234848  0.88246863  0.31591121
   0.27906093  0.38077159  0.31860809
   0.87037601  0.96396705  0.42463440
   0.12086295  0.46246961  0.42579099
   0.12543563  0.96387204  0.42212371
   0.87404697  0.45970614  0.42522089
   0.37414116  0.96018450  0.41859529
   0.87209320  0.21346419  0.41866451
   0.12504209  0.21244796  0.42095965
   0.62402401  0.96062852  0.42207325
   0.87281104  0.70992359  0.42433242
   0.37420595  0.20933820  0.42297381
   0.37724820  0.71152838  0.42154660
   0.62552648  0.46180555  0.42118050
   0.12661411  0.70664851  0.42737501
   0.62411420  0.21111642  0.42062184
   0.54809608  0.37581131  0.31638217
   0.53418159  0.12488383  0.31438418
   0.54860226  0.12207837  0.04171946
   0.12037701  0.45967589  0.12832010
   0.04398259  0.13560906  0.31394450
   0.04184264  0.13051489  0.03430237
   0.13087669  0.95764103  0.13245935
   0.37478501  0.46119156  0.42416400
   0.45485914  0.54588982  0.21874999
   0.62218054  0.71199103  0.42264004
   0.95645968  0.78899581  0.22100756
   0.79431358  0.62283920  0.31869408
   0.29035371  0.63122911  0.31786704
   0.20217908  0.27972982  0.22528100
   0.70611390  0.54959934  0.22097174
   0.04036407  0.63157605  0.32455883
   0.79601056  0.86182010  0.04358326
   0.05654378  0.86511100  0.03922008
   0.04354811  0.63172365  0.03890931
   0.62768151  0.22351632  0.12936912
   0.38251648  0.95408414  0.13073287
   0.03528268  0.38373991  0.32354596
   0.02789537  0.38111357  0.03922688
   0.87238548  0.21524336  0.12909491
   0.95467932  0.54470465  0.22394960
   0.29644672  0.11628504  0.32044908
   0.54060553  0.62917590  0.32136700
   0.29593874  0.11566849  0.04109769
   0.54915757  0.62535345  0.04512996
   0.29444361  0.38188257  0.03954700
   0.62577798  0.94799811  0.13283874
   0.70705774  0.79324161  0.22005214
   0.86523064  0.70443471  0.12965162
   0.62674088  0.45978399  0.12791088
   0.29845064  0.87417220  0.31768696
   0.30656831  0.86859519  0.04153612
   0.62656079  0.71505450  0.12903147
   0.22515281  0.02743556  0.22759778
   0.54425403  0.38139876  0.03593963
   0.37883082  0.20414358  0.13341050
   0.13702030  0.70469682  0.13275664
   0.70477493  0.05064794  0.22041944
   0.79288205  0.12930665  0.31656623
   0.53879004  0.87299165  0.31663114
   0.79690904  0.12300803  0.03589815
   0.54639677  0.86991640  0.03703501
   0.20779659  0.54239767  0.22376022
   0.95111425  0.29749285  0.22182122
   0.87203635  0.96412677  0.12966428
   0.71537339  0.29000752  0.22356538
   0.45718173  0.29225077  0.22086730
   0.87549525  0.45703326  0.12894021
   0.12808024  0.20618715  0.12934578
   0.79201094  0.62176511  0.04149761
   0.29752238  0.62870438  0.04356032
   0.38614974  0.71252577  0.12966825
   0.38234618  0.45146388  0.12688447
   0.79315007  0.37965716  0.31998752
   0.79142063  0.37689392  0.04093851
   0.95561894  0.05311826  0.22176563
   0.45832980  0.79639200  0.22484809
   0.21473375  0.79774967  0.22502562
   0.46199744  0.02941329  0.22254954
   0.53403580  0.12495784  0.46840172
 
 position of ions in cartesian coordinates  (Angst):
  13.07615599  8.11800551  6.96759867
   5.15499251  8.14680092  6.95004655
   5.00430200  3.51521882  7.00937790
  14.41615247  8.89918061  9.34195677
   3.75336201  4.26944112  9.36740170
   6.47458174  8.89830346  9.28672158
  11.76757422  4.24392924  9.35485963
   9.10612809  8.86426075  9.20909647
  10.43427746  1.97066527  9.21061932
   2.46529630  1.96128357  9.26111228
  11.77224579  8.86835980  9.28561147
  13.08805823  6.55389440  9.33531328
   5.10480797  1.93257482  9.30542384
   7.81391199  6.56870955  9.27402517
   9.12953571  4.26331063  9.26597090
   5.11614291  6.52365937  9.40225030
   7.77830774  1.94899106  9.25368057
   7.84577839  3.46942635  6.96040778
   6.36000644  1.15290638  6.91645200
   6.49877769  1.12700682  0.91782815
   3.73329140  4.24365001  2.82304227
   1.19165074  1.25191993  6.90677896
   1.14168689  1.20489139  0.75465211
   6.49937211  8.84077982  2.91410569
   6.45335914  4.25764239  9.33160810
   7.75839111  5.03956240  4.81249981
  10.42735662  6.57298059  9.29808086
  14.40120767  7.28387573  4.86216630
  11.78711552  5.74994601  7.01126987
   6.45962155  5.82740022  6.99307492
   3.64618885  2.58241830  4.95618191
  10.45653852  5.07380801  4.86137834
   3.79658130  5.83060319  7.14029420
  13.07897347  7.95617723  0.95883175
   5.21379828  7.98655826  0.86284167
   3.83130979  5.83196573  0.85600479
   7.88242681  2.06346482  2.84612068
   9.16289403  8.80794326  2.87612304
   2.42144708  3.54262184  7.11801115
   2.32869997  3.51837592  0.86299137
  10.44687620  1.98709023  2.84008810
  13.08015720  5.02862111  4.92689116
   3.77992122  1.07352384  7.04987973
   9.11636234  5.80844539  7.07007403
   3.77121995  1.06783187  0.90414915
   9.18715339  5.77315714  0.99285907
   5.17420286  3.52547522  0.87003394
  11.72362308  8.75175804  2.92245229
  11.76521306  7.32307218  4.84114715
  12.97799537  6.50322193  2.85233561
   9.13170631  4.24464793  2.81403934
   7.84082150  8.07020973  6.98911306
   7.89763048  8.01872375  0.91379463
  10.49037833  6.60126203  2.83869239
   2.54636042  0.25328046  5.00715111
   7.83460323  3.52100880  0.79067188
   5.12642169  1.88461893  2.93503107
   5.21667036  6.50564171  2.92064609
   7.78285419  0.46757319  4.84922766
   9.14132700  1.19373713  6.96445700
  10.39654712  8.05931108  6.96588500
   9.15068307  1.13558928  0.78975929
  10.46124387  8.03092093  0.81477030
   5.10609115  5.00732347  4.92272485
  11.72451460  2.74640359  4.88006674
  14.43470298  8.90065509  2.85261421
   9.17162027  2.67730030  4.91843837
   6.43125380  2.69800961  4.85908059
  11.76876646  4.21925362  2.83668457
   2.46431279  1.90348482  2.84560726
  11.75684446  5.74003023  0.91294740
   6.52258279  5.80409234  0.95832694
   7.91411848  6.57791728  2.85270146
   6.48211261  4.16783809  2.79145838
  10.47855222  3.50493060  7.03972547
  10.44538833  3.47942085  0.90064720
  10.47001811  0.49037882  4.87884395
   9.13056487  7.35215612  4.94665795
   6.54106736  7.36468985  4.95056361
   5.08166545  0.27153855  4.89608981
   6.35884681  1.15358964 10.30483790
 


--------------------------------------------------------------------------------------------------------


 k-point  1 :   0.0000 0.0000 0.0000  plane waves:   63475
 k-point  2 :   0.5000-0.0000 0.0000  plane waves:   63428
 k-point  3 :   0.0000 0.5000 0.0000  plane waves:   63428
 k-point  4 :   0.5000 0.5000 0.0000  plane waves:   63428

 maximum and minimum number of plane-waves per node :     15884    15811

 maximum number of plane-waves:     63475
 maximum index in each direction: 
   IXMAX=   20   IYMAX=   20   IZMAX=   42
   IXMIN=  -20   IYMIN=  -20   IZMIN=  -42


 real space projection operators:
  total allocation   :      76347.17 KBytes
  max/ min on nodes  :      19104.82      19064.86


 parallel 3D FFT for wavefunctions:
    minimum data exchange during FFTs selected (reduces bandwidth)
 parallel 3D FFT for charge:
    minimum data exchange during FFTs selected (reduces bandwidth)


 total amount of memory used by VASP MPI-rank0   231984. kBytes
=======================================================================

   base      :      30000. kBytes
   nonlr-proj:      34034. kBytes
   fftplans  :      16133. kBytes
   grid      :      49182. kBytes
   one-center:        653. kBytes
   wavefun   :     101982. kBytes
 
     INWAV:  cpu time    0.0000: real time    0.0005
 Broyden mixing: mesh for mixing (old mesh)
   NGX = 41   NGY = 41   NGZ = 85
  (NGX  =168   NGY  =168   NGZ  =336)
  gives a total of 142885 points

 initial charge density was supplied:
 charge density of overlapping atoms calculated
 number of electron     778.0000000 magnetization     231.0000000
 keeping initial charge density in first step


--------------------------------------------------------------------------------------------------------


 Maximum index for non-local projection operator         1866
 Maximum index for augmentation-charges         1444 (set IRDMAX)


--------------------------------------------------------------------------------------------------------


 First call to EWALD:  gamma=   0.137
 Maximum number of real-space cells 4x 4x 2
 Maximum number of reciprocal cells 2x 2x 4

    FEWALD:  cpu time    0.0101: real time    0.0101


--------------------------------------- Iteration      1(   1)  ---------------------------------------


    POTLOK:  cpu time    0.4072: real time    0.4150
    SETDIJ:  cpu time    0.0372: real time    0.0374
     EDDAV:  cpu time   62.7204: real time   62.9522
       DOS:  cpu time    0.0025: real time    0.0366
    --------------------------------------------
      LOOP:  cpu time   63.1673: real time   63.4413

 eigenvalue-minimisations  :  9408
 total energy-change (2. order) : 0.7828634E+04  (-0.3294586E+05)
 number of electron     778.0000000 magnetization     231.0000000
 augmentation part      778.0000000 magnetization     231.0000000

 Free energy of the ion-electron system (eV)
  ---------------------------------------------------
  alpha Z        PSCENC =      2197.15539535
  Ewald energy   TEWEN  =    222779.36178992
  -Hartree energ DENC   =   -294921.97769407
  -exchange      EXHF   =         0.00000000
  -V(xc)+E(xc)   XCENC  =      1384.67371895
  PAW double counting   =     64136.80006862   -66038.70876209
  entropy T*S    EENTRO =         0.00781430
  eigenvalues    EBANDS =      8072.66726283
  atomic energy  EATOM  =     70218.65458108
  Solvation  Ediel_sol  =         0.00000000
  ---------------------------------------------------
  free energy    TOTEN  =      7828.63417489 eV

  energy without entropy =     7828.62636059  energy(sigma->0) =     7828.63157012


--------------------------------------------------------------------------------------------------------




--------------------------------------- Iteration      1(   2)  ---------------------------------------


     EDDAV:  cpu time   62.3265: real time   62.5216
       DOS:  cpu time    0.0044: real time    0.1187
    --------------------------------------------
      LOOP:  cpu time   62.3309: real time   62.6403

 eigenvalue-minimisations  :  9408
 total energy-change (2. order) :-0.6998039E+04  (-0.6260528E+04)
 number of electron     778.0000000 magnetization     231.0000000
 augmentation part      778.0000000 magnetization     231.0000000

 Free energy of the ion-electron system (eV)
  ---------------------------------------------------
  alpha Z        PSCENC =      2197.15539535
  Ewald energy   TEWEN  =    222779.36178992
  -Hartree energ DENC   =   -294921.97769407
  -exchange      EXHF   =         0.00000000
  -V(xc)+E(xc)   XCENC  =      1384.67371895
  PAW double counting   =     64136.80006862   -66038.70876209
  entropy T*S    EENTRO =         0.00090469
  eigenvalues    EBANDS =      1074.63479733
  atomic energy  EATOM  =     70218.65458108
  Solvation  Ediel_sol  =         0.00000000
  ---------------------------------------------------
  free energy    TOTEN  =       830.59479978 eV

  energy without entropy =      830.59389509  energy(sigma->0) =      830.59449822


--------------------------------------------------------------------------------------------------------




--------------------------------------- Iteration      1(   3)  ---------------------------------------


     EDDAV:  cpu time   62.5076: real time   62.7020
       DOS:  cpu time    0.0030: real time    0.0055
    --------------------------------------------
      LOOP:  cpu time   62.5106: real time   62.7075

 eigenvalue-minimisations  :  9408
 total energy-change (2. order) :-0.1206339E+04  (-0.9767017E+03)
 number of electron     778.0000000 magnetization     231.0000000
 augmentation part      778.0000000 magnetization     231.0000000

 Free energy of the ion-electron system (eV)
  ---------------------------------------------------
  alpha Z        PSCENC =      2197.15539535
  Ewald energy   TEWEN  =    222779.36178992
  -Hartree energ DENC   =   -294921.97769407
  -exchange      EXHF   =         0.00000000
  -V(xc)+E(xc)   XCENC  =      1384.67371895
  PAW double counting   =     64136.80006862   -66038.70876209
  entropy T*S    EENTRO =        -0.00071086
  eigenvalues    EBANDS =      -131.70255594
  atomic energy  EATOM  =     70218.65458108
  Solvation  Ediel_sol  =         0.00000000
  ---------------------------------------------------
  free energy    TOTEN  =      -375.74416904 eV

  energy without entropy =     -375.74345818  energy(sigma->0) =     -375.74393209


--------------------------------------------------------------------------------------------------------




--------------------------------------- Iteration      1(   4)  ---------------------------------------


     EDDAV:  cpu time   74.5967: real time   75.0081
       DOS:  cpu time    0.0029: real time    0.0040
    --------------------------------------------
      LOOP:  cpu time   74.5996: real time   75.0121

 eigenvalue-minimisations  : 11808
 total energy-change (2. order) :-0.1170753E+03  (-0.1073505E+03)
 number of electron     778.0000000 magnetization     231.0000000
 augmentation part      778.0000000 magnetization     231.0000000

 Free energy of the ion-electron system (eV)
  ---------------------------------------------------
  alpha Z        PSCENC =      2197.15539535
  Ewald energy   TEWEN  =    222779.36178992
  -Hartree energ DENC   =   -294921.97769407
  -exchange      EXHF   =         0.00000000
  -V(xc)+E(xc)   XCENC  =      1384.67371895
  PAW double counting   =     64136.80006862   -66038.70876209
  entropy T*S    EENTRO =        -0.01081939
  eigenvalues    EBANDS =      -248.76770835
  atomic energy  EATOM  =     70218.65458108
  Solvation  Ediel_sol  =         0.00000000
  ---------------------------------------------------
  free energy    TOTEN  =      -492.81942998 eV

  energy without entropy =     -492.80861059  energy(sigma->0) =     -492.81582352


--------------------------------------------------------------------------------------------------------




--------------------------------------- Iteration      1(   5)  ---------------------------------------


     EDDAV:  cpu time   71.3253: real time   71.5276
       DOS:  cpu time    0.0031: real time    0.0174
    CHARGE:  cpu time    3.8460: real time    3.8560
    MIXING:  cpu time    0.0100: real time    0.0100
    --------------------------------------------
      LOOP:  cpu time   75.1844: real time   75.4110

 eigenvalue-minimisations  : 11184
 total energy-change (2. order) :-0.4358396E+01  (-0.4324307E+01)
 number of electron     778.0000011 magnetization     216.5186944
 augmentation part      335.1165019 magnetization     184.1425721

 Broyden mixing:
  rms(total) = 0.11729E+02    rms(broyden)= 0.11729E+02
  rms(prec ) = 0.12043E+02
  weight for this iteration     100.00

 Free energy of the ion-electron system (eV)
  ---------------------------------------------------
  alpha Z        PSCENC =      2197.15539535
  Ewald energy   TEWEN  =    222779.36178992
  -Hartree energ DENC   =   -294921.97769407
  -exchange      EXHF   =         0.00000000
  -V(xc)+E(xc)   XCENC  =      1384.67371895
  PAW double counting   =     64136.80006862   -66038.70876209
  entropy T*S    EENTRO =        -0.00839877
  eigenvalues    EBANDS =      -253.12852533
  atomic energy  EATOM  =     70218.65458108
  Solvation  Ediel_sol  =         0.00000000
  ---------------------------------------------------
  free energy    TOTEN  =      -497.17782634 eV

  energy without entropy =     -497.16942758  energy(sigma->0) =     -497.17502675


--------------------------------------------------------------------------------------------------------




--------------------------------------- Iteration      1(   6)  ---------------------------------------


    POTLOK:  cpu time    0.3780: real time    0.3975
    SETDIJ:  cpu time    0.0340: real time    0.0341
    EDDIAG:  cpu time   11.1887: real time   11.2278
  RMM-DIIS:  cpu time   37.7597: real time   37.9132
    ORTHCH:  cpu time    1.3242: real time    1.3290
       DOS:  cpu time    0.0024: real time    0.0024
    CHARGE:  cpu time    3.7444: real time    3.7565
    MIXING:  cpu time    0.0106: real time    0.0121
    --------------------------------------------
      LOOP:  cpu time   54.4419: real time   54.6727

 eigenvalue-minimisations  :  9546
 total energy-change (2. order) :-0.1575130E+03  (-0.9227650E+02)
 number of electron     778.0000015 magnetization     212.4065501
 augmentation part      406.1563720 magnetization     179.6657768

 Broyden mixing:
  rms(total) = 0.19575E+02    rms(broyden)= 0.19575E+02
  rms(prec ) = 0.25306E+02
  weight for this iteration     100.00

 eigenvalues of (default mixing * dielectric matrix)
  average eigenvalue GAMMA=   0.2263
  0.2263

 Free energy of the ion-electron system (eV)
  ---------------------------------------------------
  alpha Z        PSCENC =      2197.15539535
  Ewald energy   TEWEN  =    222779.36178992
  -Hartree energ DENC   =   -293319.69023374
  -exchange      EXHF   =         0.00000000
  -V(xc)+E(xc)   XCENC  =      1338.73832833
  PAW double counting   =     69079.02118807   -70772.07963118
  entropy T*S    EENTRO =         0.00362795
  eigenvalues    EBANDS =     -2175.85589767
  atomic energy  EATOM  =     70218.65458108
  Solvation  Ediel_sol  =         0.00000000
  ---------------------------------------------------
  free energy    TOTEN  =      -654.69085190 eV

  energy without entropy =     -654.69447984  energy(sigma->0) =     -654.69206121


--------------------------------------------------------------------------------------------------------




--------------------------------------- Iteration      1(   7)  ---------------------------------------


    POTLOK:  cpu time    0.3764: real time    0.4022
    SETDIJ:  cpu time    0.0342: real time    0.0344
    EDDIAG:  cpu time   11.1569: real time   11.1938
  RMM-DIIS:  cpu time   37.1853: real time   37.3309
    ORTHCH:  cpu time    1.3180: real time    1.3417
       DOS:  cpu time    0.0025: real time    0.0025
    CHARGE:  cpu time    3.7876: real time    3.7986
    MIXING:  cpu time    0.0117: real time    0.0119
    --------------------------------------------
      LOOP:  cpu time   53.8727: real time   54.1160

 eigenvalue-minimisations  :  9418
 total energy-change (2. order) : 0.1155904E+03  (-0.1657656E+02)
 number of electron     778.0000016 magnetization     207.7803834
 augmentation part      366.1446044 magnetization     165.0902140

 Broyden mixing:
  rms(total) = 0.15619E+02    rms(broyden)= 0.15619E+02
  rms(prec ) = 0.21066E+02
  weight for this iteration     100.00

 eigenvalues of (default mixing * dielectric matrix)
  average eigenvalue GAMMA=   0.2688
  0.3705  0.1671

 Free energy of the ion-electron system (eV)
  ---------------------------------------------------
  alpha Z        PSCENC =      2197.15539535
  Ewald energy   TEWEN  =    222779.36178992
  -Hartree energ DENC   =   -294002.92504019
  -exchange      EXHF   =         0.00000000
  -V(xc)+E(xc)   XCENC  =      1359.09517656
  PAW double counting   =     70136.36095450   -71990.00432007
  entropy T*S    EENTRO =        -0.00617040
  eigenvalues    EBANDS =     -1236.79280817
  atomic energy  EATOM  =     70218.65458108
  Solvation  Ediel_sol  =         0.00000000
  ---------------------------------------------------
  free energy    TOTEN  =      -539.10044144 eV

  energy without entropy =     -539.09427103  energy(sigma->0) =     -539.09838464


--------------------------------------------------------------------------------------------------------




--------------------------------------- Iteration      1(   8)  ---------------------------------------


    POTLOK:  cpu time    0.3919: real time    0.4425
    SETDIJ:  cpu time    0.0344: real time    0.0345
    EDDIAG:  cpu time   11.1647: real time   11.1955
  RMM-DIIS:  cpu time   37.3522: real time   37.4770
    ORTHCH:  cpu time    1.3201: real time    1.3255
       DOS:  cpu time    0.0027: real time    0.0027
    CHARGE:  cpu time    3.7171: real time    3.7325
    MIXING:  cpu time    0.0114: real time    0.0116
    --------------------------------------------
      LOOP:  cpu time   53.9948: real time   54.2220

 eigenvalue-minimisations  :  9430
 total energy-change (2. order) : 0.6024729E+02  (-0.1028213E+02)
 number of electron     778.0000013 magnetization     200.5900413
 augmentation part      371.6294845 magnetization     163.3490228

 Broyden mixing:
  rms(total) = 0.16162E+02    rms(broyden)= 0.16162E+02
  rms(prec ) = 0.18928E+02
  weight for this iteration     100.00

 eigenvalues of (default mixing * dielectric matrix)
  average eigenvalue GAMMA=   0.3064
  0.5778  0.2605  0.0809

 Free energy of the ion-electron system (eV)
  ---------------------------------------------------
  alpha Z        PSCENC =      2197.15539535
  Ewald energy   TEWEN  =    222779.36178992
  -Hartree energ DENC   =   -294265.50518862
  -exchange      EXHF   =         0.00000000
  -V(xc)+E(xc)   XCENC  =      1364.45437827
  PAW double counting   =     71328.75258907   -73250.27819883
  entropy T*S    EENTRO =         0.00320244
  eigenvalues    EBANDS =      -851.45169555
  atomic energy  EATOM  =     70218.65458108
  Solvation  Ediel_sol  =         0.00000000
  ---------------------------------------------------
  free energy    TOTEN  =      -478.85314687 eV

  energy without entropy =     -478.85634931  energy(sigma->0) =     -478.85421435


--------------------------------------------------------------------------------------------------------




--------------------------------------- Iteration      1(   9)  ---------------------------------------


    POTLOK:  cpu time    0.3805: real time    0.3878
    SETDIJ:  cpu time    0.0343: real time    0.0345
    EDDIAG:  cpu time   11.2059: real time   11.2848
  RMM-DIIS:  cpu time   37.3986: real time   37.5180
    ORTHCH:  cpu time    1.3370: real time    1.3414
       DOS:  cpu time    0.0026: real time    0.0026
    CHARGE:  cpu time    3.7399: real time    3.7498
    MIXING:  cpu time    0.0115: real time    0.0116
    --------------------------------------------
      LOOP:  cpu time   54.1101: real time   54.3303

 eigenvalue-minimisations  :  9446
 total energy-change (2. order) : 0.1015633E+03  (-0.1494390E+02)
 number of electron     778.0000010 magnetization     192.3872163
 augmentation part      373.4814102 magnetization     147.3530599

 Broyden mixing:
  rms(total) = 0.12546E+02    rms(broyden)= 0.12546E+02
  rms(prec ) = 0.14260E+02
  weight for this iteration     100.00

 eigenvalues of (default mixing * dielectric matrix)
  average eigenvalue GAMMA=   0.3657
  0.8867  0.3434  0.1396  0.0931

 Free energy of the ion-electron system (eV)
  ---------------------------------------------------
  alpha Z        PSCENC =      2197.15539535
  Ewald energy   TEWEN  =    222779.36178992
  -Hartree energ DENC   =   -293995.24471810
  -exchange      EXHF   =         0.00000000
  -V(xc)+E(xc)   XCENC  =      1381.16976750
  PAW double counting   =     72776.31496646   -74750.08796091
  entropy T*S    EENTRO =        -0.00392431
  eigenvalues    EBANDS =      -984.60976798
  atomic energy  EATOM  =     70218.65458108
  Solvation  Ediel_sol  =         0.00000000
  ---------------------------------------------------
  free energy    TOTEN  =      -377.28987100 eV

[...]
   -.533E+01 0.284E+02 -.289E+04   0.574E+01 -.284E+02 0.289E+04   -.423E+00 0.643E-03 0.985E+00   0.243E-01 0.221E-01 0.938E-02
   -.102E+02 0.395E+01 -.289E+04   0.955E+01 -.353E+01 0.289E+04   0.589E+00 -.416E+00 0.157E+01   0.399E-01 0.169E-02 0.681E-01
   0.100E+01 0.183E+01 -.288E+04   -.101E+01 -.208E+01 0.288E+04   0.464E-01 0.237E+00 0.100E+01   -.394E-01 -.442E-03 0.130E-01
   -.198E+02 -.457E+01 -.292E+04   0.199E+02 0.418E+01 0.292E+04   -.514E-01 0.381E+00 0.152E+01   -.480E-01 -.172E-01 0.362E-01
   0.107E+02 -.230E+02 -.289E+04   -.113E+02 0.230E+02 0.289E+04   0.667E+00 0.100E+00 0.212E+01   0.281E-02 -.333E-02 0.462E-01
   -.289E+02 0.134E+02 -.291E+04   0.287E+02 -.132E+02 0.291E+04   0.155E+00 -.212E+00 0.114E+01   -.390E-01 -.173E-01 0.324E-03
   -.610E+01 -.788E+00 -.287E+04   0.654E+01 0.105E+01 0.287E+04   -.390E+00 -.209E+00 0.168E+01   -.640E-02 -.395E-01 0.432E-01
   -.534E+01 0.909E+01 -.290E+04   0.567E+01 -.100E+02 0.290E+04   -.385E+00 0.922E+00 0.257E+00   0.179E-01 0.161E-01 0.380E-01
   -.134E+02 0.376E+01 -.289E+04   0.136E+02 -.407E+01 0.289E+04   -.236E+00 0.272E+00 0.121E+01   0.213E-01 0.452E-01 0.502E-01
   0.187E+02 -.232E+02 -.288E+04   -.195E+02 0.234E+02 0.288E+04   0.816E+00 -.149E+00 0.320E+00   0.319E-01 -.158E-01 0.434E-01
   0.234E+02 0.883E+01 -.290E+04   -.230E+02 -.872E+01 0.290E+04   -.453E+00 -.116E+00 0.145E+01   -.142E-01 -.116E-01 0.156E-01
   0.190E+02 -.155E+02 -.290E+04   -.187E+02 0.157E+02 0.290E+04   -.331E+00 -.172E+00 0.139E+01   -.156E-01 -.188E-01 0.104E-02
   -.165E+01 -.180E+01 -.289E+04   0.133E+01 0.130E+01 0.289E+04   0.284E+00 0.464E+00 0.117E+01   0.190E-01 0.303E-01 0.159E-01
   0.173E+02 -.121E+02 -.290E+04   -.163E+02 0.128E+02 0.290E+04   -.102E+01 -.733E+00 0.930E+00   0.267E-01 0.116E-01 0.305E-01
   0.707E+02 -.666E+02 -.152E+04   -.695E+02 0.667E+02 0.151E+04   -.120E+01 -.100E+00 0.173E+01   0.460E-01 0.113E-01 0.653E-01
   0.280E+02 -.441E+02 -.153E+04   -.291E+02 0.437E+02 0.153E+04   0.113E+01 0.422E+00 0.266E+01   0.956E-02 0.331E-01 0.117E+00
   0.376E+02 0.173E+02 0.299E+04   -.378E+02 -.176E+02 -.299E+04   0.212E-01 0.359E+00 -.254E+01   0.177E-01 0.467E-01 -.102E+00
   0.244E+02 -.262E+01 0.159E+04   -.253E+02 0.335E+01 -.160E+04   0.968E+00 -.684E+00 0.871E+00   -.226E-01 -.480E-02 0.184E-01
   -.678E+02 0.113E+02 -.146E+04   0.688E+02 -.106E+02 0.146E+04   -.880E+00 -.660E+00 0.263E+01   -.592E-01 -.819E-02 0.407E-01
   -.543E+02 0.531E+02 0.305E+04   0.550E+02 -.522E+02 -.305E+04   -.720E+00 -.100E+01 -.221E+01   -.109E-01 0.179E-01 -.907E-02
   0.457E+01 -.547E+02 0.157E+04   -.436E+01 0.542E+02 -.157E+04   -.303E+00 0.462E+00 -.778E+00   0.437E-01 -.328E-01 0.195E-01
   0.119E+02 0.819E+00 -.288E+04   -.120E+02 -.441E+00 0.288E+04   0.706E-01 -.380E+00 0.932E+00   0.280E-01 0.234E-02 0.176E-01
   -.165E+02 -.281E+01 0.154E+02   0.165E+02 0.310E+01 -.167E+02   -.390E-01 -.371E+00 0.127E+01   0.343E-01 0.202E-01 0.792E-02
   -.100E+02 0.137E+02 -.290E+04   0.951E+01 -.138E+02 0.290E+04   0.533E+00 0.101E+00 0.141E+01   -.149E-01 -.340E-02 0.395E-01
   0.161E+02 0.589E+02 0.156E+02   -.172E+02 -.601E+02 -.160E+02   0.103E+01 0.120E+01 0.293E+00   0.141E+00 0.627E-02 0.564E-01
   -.642E+02 0.759E+01 -.148E+04   0.647E+02 -.874E+01 0.147E+04   -.444E+00 0.125E+01 0.287E+01   -.735E-01 -.389E-01 0.101E+00
   0.291E+02 0.285E+02 -.152E+04   -.289E+02 -.277E+02 0.152E+04   -.267E+00 -.710E+00 0.230E+01   0.344E-01 -.136E-01 0.240E-01
   0.137E+02 -.640E+02 -.683E+02   -.146E+02 0.634E+02 0.686E+02   0.999E+00 0.525E+00 -.281E+00   0.105E-01 -.245E-01 0.207E-01
   -.209E+02 -.194E+02 0.301E+01   0.217E+02 0.202E+02 -.368E+01   -.784E+00 -.755E+00 0.666E+00   -.113E+00 -.935E-01 0.687E-02
   0.178E+02 0.151E+02 -.123E+04   -.179E+02 -.154E+02 0.123E+04   0.106E+00 0.443E+00 0.429E+00   0.466E-01 0.212E-01 0.421E-01
   -.634E+02 -.569E+01 0.241E+04   0.637E+02 0.443E+01 -.240E+04   -.355E+00 0.132E+01 -.278E+01   0.265E-01 -.329E-01 -.972E-01
   0.327E+02 -.164E+02 0.244E+04   -.327E+02 0.149E+02 -.244E+04   -.512E-01 0.156E+01 -.242E+01   0.470E-01 -.212E-02 -.117E-01
   0.172E+02 0.615E+01 0.244E+04   -.173E+02 -.548E+01 -.244E+04   0.170E+00 -.775E+00 -.295E+01   0.135E-02 -.403E-02 -.280E-01
   0.160E+02 0.544E+02 0.127E+04   -.152E+02 -.537E+02 -.127E+04   -.929E+00 -.770E+00 -.651E-01   0.681E-01 0.914E-01 0.935E-02
   0.300E+02 -.615E+02 0.126E+04   -.298E+02 0.613E+02 -.126E+04   -.956E-01 0.253E+00 -.422E+00   -.114E+00 -.543E-01 -.122E-02
   -.566E+02 -.222E+02 -.122E+04   0.568E+02 0.224E+02 0.122E+04   -.155E+00 -.228E+00 0.695E+00   -.186E-01 -.414E-01 0.309E-01
   -.111E+03 0.207E+02 0.245E+04   0.110E+03 -.205E+02 -.245E+04   0.529E+00 -.191E+00 -.282E+01   -.630E-01 0.425E-02 -.950E-02
   -.341E+02 0.483E+02 0.128E+04   0.333E+02 -.479E+02 -.128E+04   0.835E+00 -.514E+00 -.443E+00   0.898E-02 0.465E-01 -.187E-02
   -.494E+02 0.226E+01 -.408E+02   0.492E+02 -.182E+01 0.408E+02   0.207E+00 -.403E+00 -.935E-01   0.616E-02 -.725E-01 -.100E-01
   0.122E+02 -.835E+02 -.123E+04   -.123E+02 0.833E+02 0.123E+04   0.988E-01 0.223E+00 0.106E+01   0.169E-01 -.280E-02 0.524E-01
   0.125E+02 0.295E+02 -.122E+04   -.126E+02 -.295E+02 0.122E+04   0.120E+00 -.185E-01 0.331E+00   -.225E-01 -.528E-01 0.287E-01
   0.545E+01 -.627E+02 0.242E+04   -.614E+01 0.618E+02 -.242E+04   0.790E+00 0.999E+00 -.289E+01   -.470E-01 -.330E-01 -.156E-01
   0.856E+01 -.149E+02 0.272E+04   -.863E+01 0.152E+02 -.272E+04   0.947E-01 -.250E+00 -.238E+01   -.214E-01 -.279E-01 -.245E-02
   0.119E+03 0.348E+02 0.276E+04   -.119E+03 -.339E+02 -.276E+04   0.420E+00 -.852E+00 -.279E+01   0.142E-01 0.287E-01 -.249E-01
   -.416E+02 -.395E+02 0.140E+04   0.412E+02 0.384E+02 -.140E+04   0.479E+00 0.113E+01 -.429E+00   -.505E-01 0.311E-01 -.496E-01
   -.622E+02 0.596E+02 0.207E+02   0.623E+02 -.594E+02 -.215E+02   -.521E-01 -.244E+00 0.723E+00   -.727E-01 -.545E-01 0.964E-01
   -.973E+02 0.160E+02 0.139E+04   0.968E+02 -.154E+02 -.139E+04   0.481E+00 -.512E+00 -.146E+00   0.445E-01 -.120E+00 -.675E-01
   -.152E+02 0.954E+01 0.137E+04   0.154E+02 -.988E+01 -.137E+04   -.125E+00 0.307E+00 -.163E+00   0.994E-02 0.747E-01 -.642E-01
   0.452E+02 0.466E+01 -.138E+04   -.450E+02 -.483E+01 0.138E+04   -.237E+00 0.238E+00 0.135E+01   0.440E-02 -.198E-01 0.865E-02
   0.564E+02 -.799E+02 0.273E+04   -.561E+02 0.799E+02 -.273E+04   -.420E+00 0.212E+00 -.250E+01   0.344E-01 -.909E-01 0.195E-01
   -.131E+02 0.326E+01 0.136E+04   0.135E+02 -.288E+01 -.136E+04   -.130E+00 -.258E+00 -.469E+00   -.200E+00 -.149E+00 -.117E+00
   0.235E+02 -.704E+02 -.130E+02   -.226E+02 0.699E+02 0.133E+02   -.855E+00 0.595E+00 -.390E+00   0.916E-02 -.364E-01 -.417E-02
   0.461E+02 0.350E+02 0.340E+04   -.462E+02 -.343E+02 -.340E+04   -.108E+00 -.860E+00 -.390E+01   0.127E+00 0.126E+00 -.956E-02
   0.586E+02 -.104E+01 0.173E+04   -.587E+02 0.317E+00 -.173E+04   0.111E+00 0.759E+00 -.208E+00   -.666E-01 0.533E-01 0.406E-01
   0.104E+03 -.272E+02 0.169E+04   -.104E+03 0.272E+02 -.170E+04   -.155E+00 -.323E-01 -.186E-01   0.103E+00 0.489E-02 0.266E-01
   0.176E+02 0.674E+02 0.873E+02   -.183E+02 -.674E+02 -.881E+02   0.562E+00 -.194E+00 0.548E+00   0.858E-01 0.134E+00 0.174E+00
   0.156E+02 0.527E+02 -.169E+04   -.154E+02 -.523E+02 0.169E+04   -.326E+00 -.457E+00 0.135E+01   0.419E-01 0.432E-01 0.848E-01
   -.405E+02 0.277E+02 -.166E+04   0.398E+02 -.273E+02 0.166E+04   0.885E+00 -.336E+00 0.217E+01   -.611E-01 0.566E-02 0.119E+00
   -.223E+01 0.990E+02 0.335E+04   0.226E+01 -.995E+02 -.335E+04   -.136E+00 0.421E+00 -.309E+01   0.542E-01 0.705E-01 -.386E-01
   -.192E+02 -.830E+02 0.338E+04   0.184E+02 0.828E+02 -.338E+04   0.970E+00 0.311E+00 -.279E+01   -.142E+00 -.138E+00 -.986E-01
   0.106E+03 0.958E+01 -.569E+02   -.106E+03 -.941E+01 0.571E+02   -.427E-01 -.244E+00 -.318E+00   0.800E-01 0.215E-02 0.427E-01
   -.115E+03 -.336E+02 0.416E+02   0.115E+03 0.335E+02 -.416E+02   0.341E+00 0.167E+00 0.519E-02   -.665E-01 -.738E-02 0.824E-02
   -.881E+01 0.558E+02 0.179E+04   0.837E+01 -.553E+02 -.179E+04   0.309E+00 -.613E+00 -.726E+00   0.143E+00 0.402E-01 0.118E-01
   0.143E+02 -.717E+02 0.477E+02   -.140E+02 0.705E+02 -.483E+02   -.323E+00 0.131E+01 0.476E+00   0.261E-01 0.591E-01 0.612E-01
   0.554E+02 -.322E+02 0.487E+01   -.548E+02 0.318E+02 -.512E+01   -.644E+00 0.346E+00 0.191E+00   0.233E-01 0.150E-01 0.117E+00
   -.762E+02 0.439E+01 0.153E+04   0.758E+02 -.423E+01 -.153E+04   0.428E+00 -.802E-01 -.176E+00   -.824E-01 -.372E-01 -.442E-01
   -.182E+02 0.159E+02 0.160E+04   0.186E+02 -.162E+02 -.160E+04   -.382E+00 0.272E+00 -.473E+00   -.440E-01 -.117E-01 0.454E-02
   -.103E+03 -.248E+01 0.305E+04   0.104E+03 0.264E+01 -.305E+04   -.547E+00 -.689E-01 -.149E+01   -.130E+00 -.704E-01 -.495E-01
   0.738E+02 -.367E+02 0.305E+04   -.743E+02 0.372E+02 -.305E+04   0.349E+00 -.650E+00 -.960E+00   0.141E+00 0.271E-01 0.479E-02
   0.200E+02 -.333E+02 0.153E+04   -.197E+02 0.331E+02 -.153E+04   -.365E+00 0.224E+00 -.561E-01   0.535E-01 -.380E-01 -.434E-01
   0.581E+02 0.849E+01 0.159E+04   -.577E+02 -.860E+01 -.159E+04   -.491E+00 0.589E-01 -.128E+00   0.926E-01 0.753E-01 0.264E-01
   -.364E+02 -.677E+02 -.153E+04   0.363E+02 0.678E+02 0.153E+04   0.130E+00 -.565E-01 0.731E+00   -.847E-01 -.231E-01 0.441E-01
   -.497E+02 0.300E+02 0.303E+04   0.501E+02 -.295E+02 -.303E+04   -.397E+00 -.588E+00 -.196E+01   -.483E-01 0.890E-01 0.335E-02
   -.469E+02 0.754E+02 0.799E+02   0.472E+02 -.752E+02 -.800E+02   -.355E+00 -.351E+00 -.271E-01   0.117E-01 0.303E-01 0.524E-01
   0.144E+00 0.583E+02 -.823E+01   -.923E-01 -.574E+02 0.813E+01   0.868E-01 -.872E+00 -.223E-01   -.104E+00 -.556E-01 -.129E-01
   0.522E+02 0.331E+01 -.271E+02   -.519E+02 -.268E+01 0.271E+02   -.405E+00 -.615E+00 -.543E-01   0.694E-01 -.604E-01 -.111E-01
   0.170E+02 -.560E+02 0.269E+02   -.173E+02 0.555E+02 -.273E+02   0.346E+00 0.469E+00 0.137E+00   -.982E-01 0.791E-01 0.138E+00
   -.198E+01 -.138E+01 -.345E+03   0.225E+01 0.148E+01 0.346E+03   -.252E+00 -.102E+00 -.163E+01   0.591E-03 0.868E-03 -.269E-02
 -----------------------------------------------------------------------------------------------
   -.160E+01 -.668E+00 -.462E+01   0.400E-14 0.310E-12 0.100E-10   0.156E+01 0.757E+00 0.309E+01   0.806E-01 -.119E+00 0.151E+01
 
 
 POSITION                                       TOTAL-FORCE (eV/Angst)
 -----------------------------------------------------------------------------------
     13.06991      8.11553      6.96931        -0.005322     -0.003057     -0.004820
      5.15661      8.14397      6.92249         0.008496      0.010754     -0.017734
      5.00708      3.50558      7.02372         0.000720     -0.019748      0.005018
     14.46492      8.87726      9.27104         0.019323     -0.004786      0.017056
      3.75079      4.28140      9.37467         0.022076     -0.013516     -0.005965
      6.45338      8.87367      9.23745        -0.019986      0.019820     -0.003288
     11.76685      4.24364      9.34372        -0.003436      0.001683      0.001516
      9.09196      8.85603      9.20398         0.003514      0.004284     -0.004693
     10.44243      1.94803      9.21856         0.001427     -0.003786     -0.013018
      2.45966      1.94961      9.25148         0.001240     -0.008848     -0.002084
     11.78242      8.83967      9.34184         0.000119      0.013125      0.001914
     13.10606      6.55994      9.34863         0.012058      0.005621     -0.016549
      5.08009      1.96350      9.36581         0.015199     -0.012905      0.012840
      7.79895      6.57581      9.29045         0.027682     -0.007332     -0.012991
      9.13240      4.26292      9.26612         0.002957      0.009227      0.008237
      5.11003      6.56084      9.33845        -0.013662      0.002471      0.010484
      7.81010      1.96176      9.30802        -0.004829     -0.012637      0.011374
      7.84422      3.46267      6.96887         0.005100     -0.004964      0.012204
      6.36059      1.14918      6.94826        -0.002343      0.009890      0.014592
      6.49878      1.12701      0.91783        -0.027566      0.013166      0.011057
      3.73329      4.24365      2.82304         0.020863      0.005074     -0.034693
      1.19300      1.25755      6.89298         0.000880     -0.010649      0.001799
      1.14169      1.20489      0.75465        -0.009977      0.011305     -0.013181
      6.49937      8.84078      2.91411        -0.002291      0.007988      0.002272
      6.45476      4.28051      9.33398        -0.008690      0.017407      0.000473
      7.76186      5.03566      4.81180        -0.006423     -0.004360     -0.003392
     10.42466      6.56750      9.28190        -0.014150     -0.000839      0.010484
     14.39600      7.27944      4.85580         0.003003     -0.004102     -0.019045
     11.79566      5.74546      7.00926        -0.011573     -0.008866     -0.006063
      6.46981      5.82277      6.98554         0.000749     -0.020327     -0.020776
      3.64905      2.58120      4.95889         0.010914      0.002852      0.005204
     10.45789      5.07556      4.86251        -0.005985     -0.007167      0.000065
      3.79789      5.82463      7.13561        -0.000970     -0.008826     -0.008663
     13.07897      7.95618      0.95883        -0.010944      0.000415      0.029899
      5.21380      7.98656      0.86284         0.008588      0.013137      0.013176
      3.83131      5.83197      0.85600         0.026350     -0.022969     -0.005856
      7.88243      2.06346      2.84612        -0.030690     -0.000427      0.051248
      9.16289      8.80794      2.87612         0.026786      0.022487      0.039563
      2.42538      3.53897      7.11774         0.002816     -0.001329     -0.002894
      2.32870      3.51838      0.86299         0.026499      0.002975     -0.033572
     10.44688      1.98709      2.84009        -0.009082      0.009182     -0.006028
     13.08373      5.02314      4.92594        -0.001696      0.002688     -0.002516
      3.78392      1.06252      7.04849         0.002828      0.001585      0.011459
      9.11550      5.80615      7.06655         0.005667     -0.004856      0.003472
      3.77122      1.06783      0.90415        -0.006101      0.029318     -0.004554
      9.18715      5.77316      0.99286        -0.010873      0.014845     -0.019741
      5.17420      3.52548      0.87003         0.016984      0.002596      0.018893
     11.72362      8.75176      2.92245        -0.001905      0.012969      0.036399
     11.76767      7.32419      4.84860        -0.000881      0.003599      0.003749
     12.97800      6.50322      2.85234         0.003408     -0.006611     -0.018279
      9.13171      4.24465      2.81404         0.011464     -0.000865     -0.020639
      7.83713      8.07252      6.99100         0.013688      0.005269     -0.011952
      7.89763      8.01872      0.91379        -0.006124      0.011196      0.009206
     10.49038      6.60126      2.83869        -0.000179     -0.005820      0.009512
      2.55521      0.25117      5.00274         0.010325     -0.009963     -0.004507
      7.83460      3.52101      0.79067        -0.027535      0.001858      0.000300
      5.12642      1.88462      2.93503        -0.009625      0.005585      0.008553
      5.21667      6.50564      2.92065         0.018867     -0.016659     -0.024679
      7.77848      0.46961      4.85709         0.000366     -0.006485     -0.004288
      9.13862      1.19565      6.96654         0.004352     -0.000243     -0.001425
     10.39918      8.05679      6.97119        -0.002733     -0.006404      0.006548
      9.15068      1.13559      0.78976        -0.023730      0.000246      0.007191
     10.46124      8.03092      0.81477        -0.015302      0.021674      0.017866
      5.10779      4.99879      4.92419         0.001961      0.003795     -0.009846
     11.72492      2.74933      4.87509        -0.000302     -0.000289     -0.000341
     14.43470      8.90066      2.85261        -0.022288      0.009207      0.011176
      9.17000      2.67595      4.92223        -0.001318      0.002187     -0.001733
      6.43123      2.69093      4.86965        -0.006069     -0.009484     -0.000987
     11.76877      4.21925      2.83668        -0.023523     -0.016623     -0.039259
      2.46431      1.90348      2.84561        -0.009755      0.013711     -0.000110
     11.75684      5.74003      0.91295        -0.010566      0.018730     -0.008374
      6.52258      5.80409      0.95833        -0.005569     -0.026009      0.013619
      7.91412      6.57792      2.85270         0.001889     -0.012035      0.003082
      6.48211      4.16784      2.79146        -0.017579     -0.014073      0.010683
     10.47767      3.50184      7.04145         0.001586      0.002200     -0.001791
     10.44539      3.47942      0.90065         0.000177     -0.014462     -0.033063
     10.46621      0.49112      4.87159        -0.000167      0.000029      0.000937
      9.13443      7.35291      4.94807         0.010277     -0.003999     -0.010107
      6.54071      7.36040      4.94071         0.021134     -0.016346      0.005180
      5.09294      0.27328      4.90631        -0.000379      0.001401     -0.009186
      6.37987      1.14219     10.32617         0.019782      0.005118      0.024385
 -----------------------------------------------------------------------------------
    total drift:                                0.040078     -0.029811     -0.023945


--------------------------------------------------------------------------------------------------------



  FREE ENERGIE OF THE ION-ELECTRON SYSTEM (eV)
  ---------------------------------------------------
  free  energy   TOTEN  =      -510.29795694 eV

  energy  without entropy=     -510.31903996  energy(sigma->0) =     -510.30498461
 
 d Force = 0.1519591E-02[ 0.740E-03, 0.230E-02]  d Energy = 0.1527128E-02-0.754E-05
 d Force =-0.1309586E+02[-0.131E+02,-0.131E+02]  d Ewald  =-0.1309587E+02 0.114E-05


--------------------------------------------------------------------------------------------------------


    POTLOK:  cpu time    0.4237: real time    0.4264


--------------------------------------------------------------------------------------------------------


 Conjugate gradient step on ions:
 trial-energy change:   -0.001527  1 .order   -0.001520   -0.002299   -0.000740
  (g-gl).g = 0.149E-02      g.g   = 0.149E-02  gl.gl    = 0.267E-02
 g(Force)  = 0.149E-02   g(Stress)= 0.000E+00 ortho     =-0.131E-04
 gamma     =   0.55789
 trial     =   1.55328
 opt step  =   2.29068  (harmonic =   2.29068) maximal distance =0.01283201
 next E    =  -510.298125   (d E  =  -0.00170)


--------------------------------------------------------------------------------------------------------


  
 reached required accuracy - stopping structural energy minimisation
     LOOP+:  cpu time  570.7262: real time  573.2435
    4ORBIT:  cpu time    0.0000: real time    0.0000

 total amount of memory used by VASP MPI-rank0   231984. kBytes
=======================================================================

   base      :      30000. kBytes
   nonlr-proj:      34034. kBytes
   fftplans  :      16133. kBytes
   grid      :      49182. kBytes
   one-center:        653. kBytes
   wavefun   :     101982. kBytes
 
  
  
 General timing and accounting informations for this job:
 ========================================================
  
                  Total CPU time used (sec):    15530.358
                            User time (sec):    15070.915
                          System time (sec):      459.444
                         Elapsed time (sec):    15626.322
  
                   Maximum memory used (kb):      391452.
                   Average memory used (kb):           0.
  
                          Minor page faults:      8054714
                          Major page faults:          289
                 Voluntary context switches:        10995
