 vasp.5.4.4.18Apr17-6-g9f103f2a35 (build Oct 25 2019 11:13:22) complex          
  
 executed on             LinuxIFC date 2021.10.11  21:11:31
 running on   48 total cores
 distrk:  each k-point on   48 cores,    1 groups
 distr:  one band on NCORES_PER_BAND=   4 cores,   12 groups


--------------------------------------------------------------------------------------------------------


 INCAR:
 POTCAR:    PAW_PBE Pt 04Feb2005                  
 POTCAR:    PAW_PBE Fe 06Sep2000                  
 POTCAR:    PAW_PBE Co 02Aug2007                  
 POTCAR:    PAW_PBE Cu 22Jun2005                  
 POTCAR:    PAW_PBE Ni 02Aug2007                  
 POTCAR:    PAW_PBE H 15Jun2001                   
 POTCAR:    PAW_PBE Pt 04Feb2005                  
   VRHFIN =Pt: s1d9                                                             
   LEXCH  = PE                                                                  
   EATOM  =   729.1176 eV,   53.5886 Ry                                         
                                                                                
   TITEL  = PAW_PBE Pt 04Feb2005                                                
   LULTRA =        F    use ultrasoft PP ?                                      
   IUNSCR =        1    unscreen: 0-lin 1-nonlin 2-no                           
   RPACOR =    2.330    partial core radius                                     
   POMASS =  195.080; ZVAL   =   10.000    mass and valenz                      
   RCORE  =    2.600    outmost cutoff radius                                   
   RWIGS  =    2.750; RWIGS  =    1.455    wigner-seitz radius (au A)           
   ENMAX  =  230.283; ENMIN  =  172.712 eV                                      
   ICORE  =        3    local potential                                         
   LCOR   =        T    correct aug charges                                     
   LPAW   =        T    paw PP                                                  
   EAUG   =  358.966                                                            
   DEXC   =    0.000                                                            
   RMAX   =    2.658    core radius for proj-oper                               
   RAUG   =    1.300    factor for augmentation sphere                          
   RDEP   =    2.761    radius for radial grids                                 
   RDEPT  =    2.203    core radius for aug-charge                              
                                                                                
   Atomic configuration                                                         
   16 entries                                                                   
     n  l   j            E        occ.                                          
     1  0  0.50    -78401.1885   2.0000                                         
     2  0  0.50    -13770.7750   2.0000                                         
     2  1  1.50    -11931.0468   6.0000                                         
     3  0  0.50     -3234.7234   2.0000                                         
     3  1  1.50     -2699.2216   6.0000                                         
     3  2  2.50     -2119.5714  10.0000                                         
     4  0  0.50      -695.1528   2.0000                                         
     4  1  1.50      -519.6034   6.0000                                         
     4  2  2.50      -306.6786  10.0000                                         
     4  3  3.50       -70.1041  14.0000                                         
     5  0  0.50      -101.7747   2.0000                                         
     5  1  1.50       -55.9873   6.0000                                         
     5  2  2.50        -6.1423   9.0000                                         
     6  0  0.50        -5.6573   1.0000                                         
     6  1  1.50        -6.8029   0.0000                                         
     5  3  2.50        -1.3606   0.0000                                         
   Description                                                                  
     l       E           TYP  RCUT    TYP  RCUT                                 
     2     -6.1423404     23  2.500                                             
     2     -7.5029230     23  2.500                                             
     0     -5.6573207     23  2.500                                             
     0      0.7416693     23  2.500                                             
     1     -2.7211652     23  2.600                                             
     1     20.4087390     23  2.600                                             
     3     -1.3605826     23  2.500                                             
  local pseudopotential read in
  partial core-charges read in
  partial kinetic energy density read in
  atomic valenz-charges read in
  non local Contribution for L=           2  read in
    real space projection operators read in
  non local Contribution for L=           2  read in
    real space projection operators read in
  non local Contribution for L=           0  read in
    real space projection operators read in
  non local Contribution for L=           0  read in
    real space projection operators read in
  non local Contribution for L=           1  read in
    real space projection operators read in
  non local Contribution for L=           1  read in
    real space projection operators read in
    PAW grid and wavefunctions read in
 
   number of l-projection  operators is LMAX  =           6
   number of lm-projection operators is LMMAX =          18
 
 POTCAR:    PAW_PBE Fe 06Sep2000                  
   VRHFIN =Fe:  d7 s1                                                           
   LEXCH  = PE                                                                  
   EATOM  =   594.3153 eV,   43.6809 Ry                                         
                                                                                
   TITEL  = PAW_PBE Fe 06Sep2000                                                
   LULTRA =        F    use ultrasoft PP ?                                      
   IUNSCR =        1    unscreen: 0-lin 1-nonlin 2-no                           
   RPACOR =    2.000    partial core radius                                     
   POMASS =   55.847; ZVAL   =    8.000    mass and valenz                      
   RCORE  =    2.300    outmost cutoff radius                                   
   RWIGS  =    2.460; RWIGS  =    1.302    wigner-seitz radius (au A)           
   ENMAX  =  267.882; ENMIN  =  200.911 eV                                      
   RCLOC  =    1.701    cutoff for local pot                                    
   LCOR   =        T    correct aug charges                                     
   LPAW   =        T    paw PP                                                  
   EAUG   =  511.368                                                            
   DEXC   =    0.000                                                            
   RMAX   =    2.356    core radius for proj-oper                               
   RAUG   =    1.300    factor for augmentation sphere                          
   RDEP   =    2.442    radius for radial grids                                 
   RDEPT  =    1.890    core radius for aug-charge                              
                                                                                
   Atomic configuration                                                         
    9 entries                                                                   
     n  l   j            E        occ.                                          
     1  0  0.50     -6993.8440   2.0000                                         
     2  0  0.50      -814.6047   2.0000                                         
     2  1  1.50      -693.3689   6.0000                                         
     3  0  0.50       -89.4732   2.0000                                         
     3  1  1.50       -55.6373   6.0000                                         
     3  2  2.50        -3.8151   7.0000                                         
     4  0  0.50        -4.2551   1.0000                                         
     4  1  1.50        -3.4015   0.0000                                         
     4  3  2.50        -1.3606   0.0000                                         
   Description                                                                  
     l       E           TYP  RCUT    TYP  RCUT                                 
     2     -3.8151135     23  2.300                                             
     2     -5.1756961     23  2.300                                             
     0     -4.2550963     23  2.300                                             
     0      7.2035603     23  2.300                                             
     1     -2.7211652     23  2.300                                             
     1     18.4316424     23  2.300                                             
  local pseudopotential read in
  partial core-charges read in
  partial kinetic energy density read in
  atomic valenz-charges read in
  non local Contribution for L=           2  read in
    real space projection operators read in
  non local Contribution for L=           2  read in
    real space projection operators read in
  non local Contribution for L=           0  read in
    real space projection operators read in
  non local Contribution for L=           0  read in
    real space projection operators read in
  non local Contribution for L=           1  read in
    real space projection operators read in
  non local Contribution for L=           1  read in
    real space projection operators read in
    PAW grid and wavefunctions read in
 
   number of l-projection  operators is LMAX  =           6
   number of lm-projection operators is LMMAX =          18
 
 POTCAR:    PAW_PBE Co 02Aug2007                  
   VRHFIN =Co: d8 s1                                                            
   LEXCH  = PE                                                                  
   EATOM  =   813.3670 eV,   59.7808 Ry                                         
                                                                                
   TITEL  = PAW_PBE Co 02Aug2007                                                
   LULTRA =        F    use ultrasoft PP ?                                      
   IUNSCR =        1    unscreen: 0-lin 1-nonlin 2-no                           
   RPACOR =    2.000    partial core radius                                     
   POMASS =   58.933; ZVAL   =    9.000    mass and valenz                      
   RCORE  =    2.300    outmost cutoff radius                                   
   RWIGS  =    2.460; RWIGS  =    1.302    wigner-seitz radius (au A)           
   ENMAX  =  267.968; ENMIN  =  200.976 eV                                      
   RCLOC  =    1.203    cutoff for local pot                                    
   LCOR   =        T    correct aug charges                                     
   LPAW   =        T    paw PP                                                  
   EAUG   =  477.818                                                            
   DEXC   =    0.000                                                            
   RMAX   =    2.360    core radius for proj-oper                               
   RAUG   =    1.300    factor for augmentation sphere                          
   RDEP   =    2.393    radius for radial grids                                 
   RDEPT  =    1.864    core radius for aug-charge                              
                                                                                
   Atomic configuration                                                         
    9 entries                                                                   
     n  l   j            E        occ.                                          
     1  0  0.50     -7587.6674   2.0000                                         
     2  0  0.50      -893.6084   2.0000                                         
     2  1  1.50      -764.5805   6.0000                                         
     3  0  0.50       -97.5973   2.0000                                         
     3  1  1.50       -60.9648   6.0000                                         
     3  2  2.50        -4.2382   8.0000                                         
     4  0  0.50        -4.3746   1.0000                                         
     4  1  1.50        -4.0817   0.0000                                         
     4  3  2.50        -1.3606   0.0000                                         
   Description                                                                  
     l       E           TYP  RCUT    TYP  RCUT                                 
     2     -4.2382362     23  2.300                                             
     2     -5.5988188     23  2.300                                             
     0     -4.3745797     23  2.300                                             
     0      5.7660125     23  2.300                                             
     1     -2.7211652     23  2.300                                             
     1     16.9860234     23  2.300                                             
  local pseudopotential read in
  partial core-charges read in
  partial kinetic energy density read in
  atomic valenz-charges read in
  non local Contribution for L=           2  read in
    real space projection operators read in
  non local Contribution for L=           2  read in
    real space projection operators read in
  non local Contribution for L=           0  read in
    real space projection operators read in
  non local Contribution for L=           0  read in
    real space projection operators read in
  non local Contribution for L=           1  read in
    real space projection operators read in
  non local Contribution for L=           1  read in
    real space projection operators read in
    PAW grid and wavefunctions read in
 
   number of l-projection  operators is LMAX  =           6
   number of lm-projection operators is LMMAX =          18
 
 POTCAR:    PAW_PBE Cu 22Jun2005                  
   VRHFIN =Cu: d10 p1                                                           
   LEXCH  = PE                                                                  
   EATOM  =  1390.9808 eV,  102.2342 Ry                                         
                                                                                
   TITEL  = PAW_PBE Cu 22Jun2005                                                
   LULTRA =        F    use ultrasoft PP ?                                      
   IUNSCR =        1    unscreen: 0-lin 1-nonlin 2-no                           
   RPACOR =    2.000    partial core radius                                     
   POMASS =   63.546; ZVAL   =   11.000    mass and valenz                      
   RCORE  =    2.300    outmost cutoff radius                                   
   RWIGS  =    2.200; RWIGS  =    1.164    wigner-seitz radius (au A)           
   ENMAX  =  295.446; ENMIN  =  221.585 eV                                      
   ICORE  =        3    local potential                                         
   LCOR   =        T    correct aug charges                                     
   LPAW   =        T    paw PP                                                  
   EAUG   =  586.980                                                            
   DEXC   =    0.000                                                            
   RMAX   =    2.344    core radius for proj-oper                               
   RAUG   =    1.300    factor for augmentation sphere                          
   RDEP   =    2.302    radius for radial grids                                 
   RDEPT  =    1.771    core radius for aug-charge                              
                                                                                
   Atomic configuration                                                         
    9 entries                                                                   
     n  l   j            E        occ.                                          
     1  0  0.50     -8850.2468   2.0000                                         
     2  0  0.50     -1062.3498   2.0000                                         
     2  1  1.50      -916.8226   6.0000                                         
     3  0  0.50      -114.6929   2.0000                                         
     3  1  1.50       -72.1325   6.0000                                         
     3  2  2.50        -5.0394  10.0000                                         
     4  0  0.50        -4.6097   1.0000                                         
     4  1  0.50        -4.0817   0.0000                                         
     4  3  2.50        -1.3606   0.0000                                         
   Description                                                                  
     l       E           TYP  RCUT    TYP  RCUT                                 
     2     -5.0393973     23  2.200                                             
     2     10.8846608     23  2.200                                             
     0     -4.6097109     23  2.200                                             
     0      8.2520465     23  2.200                                             
     1     -2.7211652     23  2.200                                             
     1     21.7055443     23  2.200                                             
     3      2.7211652     23  2.300                                             
  local pseudopotential read in
  partial core-charges read in
  partial kinetic energy density read in
  atomic valenz-charges read in
  non local Contribution for L=           2  read in
    real space projection operators read in
  non local Contribution for L=           2  read in
    real space projection operators read in
  non local Contribution for L=           0  read in
    real space projection operators read in
  non local Contribution for L=           0  read in
    real space projection operators read in
  non local Contribution for L=           1  read in
    real space projection operators read in
  non local Contribution for L=           1  read in
    real space projection operators read in
    PAW grid and wavefunctions read in
 
   number of l-projection  operators is LMAX  =           6
   number of lm-projection operators is LMMAX =          18
 
 POTCAR:    PAW_PBE Ni 02Aug2007                  
   VRHFIN =Ni:                                                                  
   LEXCH  = PE                                                                  
   EATOM  =  1077.6739 eV,   79.2068 Ry                                         
                                                                                
   TITEL  = PAW_PBE Ni 02Aug2007                                                
   LULTRA =        F    use ultrasoft PP ?                                      
   IUNSCR =        1    unscreen: 0-lin 1-nonlin 2-no                           
   RPACOR =    2.000    partial core radius                                     
   POMASS =   58.690; ZVAL   =   10.000    mass and valenz                      
   RCORE  =    2.300    outmost cutoff radius                                   
   RWIGS  =    2.430; RWIGS  =    1.286    wigner-seitz radius (au A)           
   ENMAX  =  269.532; ENMIN  =  202.149 eV                                      
   RCLOC  =    1.201    cutoff for local pot                                    
   LCOR   =        T    correct aug charges                                     
   LPAW   =        T    paw PP                                                  
   EAUG   =  544.565                                                            
   DEXC   =    0.000                                                            
   RMAX   =    2.357    core radius for proj-oper                               
   RAUG   =    1.300    factor for augmentation sphere                          
   RDEP   =    2.390    radius for radial grids                                 
   RDEPT  =    1.838    core radius for aug-charge                              
                                                                                
   Atomic configuration                                                         
    9 entries                                                                   
     n  l   j            E        occ.                                          
     1  0  0.50     -8206.4253   2.0000                                         
     2  0  0.50      -976.1748   2.0000                                         
     2  1  1.50      -839.0571   6.0000                                         
     3  0  0.50      -105.9991   2.0000                                         
     3  1  1.50       -66.4603   6.0000                                         
     3  2  2.50        -4.6458   9.0000                                         
     4  0  0.50        -4.4926   1.0000                                         
     4  1  1.50        -4.0817   0.0000                                         
     4  3  2.50        -1.3606   0.0000                                         
   Description                                                                  
     l       E           TYP  RCUT    TYP  RCUT                                 
     2     -4.6457903     23  2.300                                             
     2     -6.0063729     23  2.300                                             
     0     -4.4925590     23  2.300                                             
     0      5.0102601     23  2.300                                             
     1     -2.7211652     23  2.300                                             
     1     16.5183231     23  2.300                                             
  local pseudopotential read in
  partial core-charges read in
  partial kinetic energy density read in
  atomic valenz-charges read in
  non local Contribution for L=           2  read in
    real space projection operators read in
  non local Contribution for L=           2  read in
    real space projection operators read in
  non local Contribution for L=           0  read in
    real space projection operators read in
  non local Contribution for L=           0  read in
    real space projection operators read in
  non local Contribution for L=           1  read in
    real space projection operators read in
  non local Contribution for L=           1  read in
    real space projection operators read in
    PAW grid and wavefunctions read in
 
   number of l-projection  operators is LMAX  =           6
   number of lm-projection operators is LMMAX =          18
 
 POTCAR:    PAW_PBE H 15Jun2001                   
   VRHFIN =H: ultrasoft test                                                    
   LEXCH  = PE                                                                  
   EATOM  =    12.4884 eV,    0.9179 Ry                                         
                                                                                
   TITEL  = PAW_PBE H 15Jun2001                                                 
   LULTRA =        F    use ultrasoft PP ?                                      
   IUNSCR =        0    unscreen: 0-lin 1-nonlin 2-no                           
   RPACOR =    0.000    partial core radius                                     
   POMASS =    1.000; ZVAL   =    1.000    mass and valenz                      
   RCORE  =    1.100    outmost cutoff radius                                   
   RWIGS  =    0.700; RWIGS  =    0.370    wigner-seitz radius (au A)           
   ENMAX  =  250.000; ENMIN  =  200.000 eV                                      
   RCLOC  =    0.701    cutoff for local pot                                    
   LCOR   =        T    correct aug charges                                     
   LPAW   =        T    paw PP                                                  
   EAUG   =  400.000                                                            
   RMAX   =    1.123    core radius for proj-oper                               
   RAUG   =    1.200    factor for augmentation sphere                          
   RDEP   =    1.112    radius for radial grids                                 
   RDEPT  =    0.926    core radius for aug-charge                              
                                                                                
   Atomic configuration                                                         
    2 entries                                                                   
     n  l   j            E        occ.                                          
     1  0  0.50        -6.4927   1.0000                                         
     2  1  0.50        -3.4015   0.0000                                         
   Description                                                                  
     l       E           TYP  RCUT    TYP  RCUT                                 
     0     -6.4927494     23  1.100                                             
     0      6.8029130     23  1.100                                             
     1     -4.0817478     23  1.100                                             
  local pseudopotential read in
  atomic valenz-charges read in
  non local Contribution for L=           0  read in
    real space projection operators read in
  non local Contribution for L=           0  read in
    real space projection operators read in
  non local Contribution for L=           1  read in
    real space projection operators read in
    PAW grid and wavefunctions read in
 
   number of l-projection  operators is LMAX  =           3
   number of lm-projection operators is LMMAX =           5
 
 Optimization of the real space projectors (new method)

 maximal supplied QI-value         = 14.36
 optimisation between [QCUT,QGAM] = [ 11.92, 23.98] = [ 39.79,161.09] Ry 
 Optimized for a Real-space Cutoff    1.49 Angstroem

   l    n(q)    QCUT    max X(q) W(low)/X(q) W(high)/X(q)  e(spline) 
   2     10    11.920    66.195    0.79E-04    0.18E-03    0.24E-06
   2     10    11.920    64.643    0.81E-04    0.19E-03    0.24E-06
   0     11    11.920    95.520    0.28E-04    0.54E-04    0.18E-06
   0     11    11.920    63.403    0.27E-04    0.52E-04    0.17E-06
   1     10    11.920    19.961    0.18E-04    0.11E-03    0.23E-06
   1     10    11.920    13.289    0.25E-04    0.87E-04    0.19E-06
 Optimization of the real space projectors (new method)

 maximal supplied QI-value         = 16.25
 optimisation between [QCUT,QGAM] = [ 11.86, 23.89] = [ 39.41,159.82] Ry 
 Optimized for a Real-space Cutoff    1.49 Angstroem

   l    n(q)    QCUT    max X(q) W(low)/X(q) W(high)/X(q)  e(spline) 
   2     10    11.864    80.901    0.13E-03    0.23E-03    0.37E-06
   2     10    11.864    75.754    0.13E-03    0.23E-03    0.38E-06
   0     11    11.864    58.752    0.44E-04    0.11E-04    0.20E-06
   0     11    11.864    30.679    0.36E-04    0.10E-04    0.18E-06
   1     10    11.864    17.977    0.31E-04    0.45E-04    0.10E-06
   1     10    11.864    13.559    0.25E-04    0.37E-04    0.89E-07
 Optimization of the real space projectors (new method)

 maximal supplied QI-value         = 16.25
 optimisation between [QCUT,QGAM] = [ 11.86, 23.89] = [ 39.41,159.82] Ry 
 Optimized for a Real-space Cutoff    1.33 Angstroem

   l    n(q)    QCUT    max X(q) W(low)/X(q) W(high)/X(q)  e(spline) 
   2      9    11.864    65.824    0.22E-03    0.53E-03    0.26E-06
   2      9    11.864    61.429    0.22E-03    0.53E-03    0.26E-06
   0      9    11.864    56.174    0.21E-03    0.32E-04    0.15E-06
   0      9    11.864    31.263    0.19E-03    0.30E-04    0.14E-06
   1      9    11.864    19.828    0.63E-04    0.30E-03    0.16E-06
   1      9    11.864    15.139    0.49E-04    0.25E-03    0.13E-06
 Optimization of the real space projectors (new method)

 maximal supplied QI-value         = 16.25
 optimisation between [QCUT,QGAM] = [ 11.86, 23.89] = [ 39.41,159.82] Ry 
 Optimized for a Real-space Cutoff    1.49 Angstroem

   l    n(q)    QCUT    max X(q) W(low)/X(q) W(high)/X(q)  e(spline) 
   2     10    11.864     4.610    0.10E-03    0.20E-03    0.29E-06
   2     10    11.864     8.522    0.17E-03    0.33E-03    0.50E-06
   0     11    11.864    51.609    0.52E-04    0.55E-04    0.33E-06
   0     11    11.864    27.747    0.46E-04    0.52E-04    0.31E-06
   1     10    11.864    20.408    0.54E-04    0.25E-04    0.21E-06
   1     10    11.864    13.425    0.48E-04    0.22E-04    0.18E-06
 Optimization of the real space projectors (new method)

 maximal supplied QI-value         = 16.25
 optimisation between [QCUT,QGAM] = [ 11.86, 23.89] = [ 39.41,159.82] Ry 
 Optimized for a Real-space Cutoff    1.33 Angstroem

   l    n(q)    QCUT    max X(q) W(low)/X(q) W(high)/X(q)  e(spline) 
   2      9    11.864    60.317    0.21E-03    0.51E-03    0.25E-06
   2      9    11.864    55.921    0.21E-03    0.51E-03    0.26E-06
   0      9    11.864    51.690    0.22E-03    0.30E-04    0.17E-06
   0      9    11.864    30.015    0.20E-03    0.28E-04    0.15E-06
   1      9    11.864    18.849    0.76E-04    0.33E-03    0.17E-06
   1      9    11.864    14.624    0.60E-04    0.28E-03    0.15E-06
 Optimization of the real space projectors (new method)

 maximal supplied QI-value         = 34.20
 optimisation between [QCUT,QGAM] = [ 11.97, 23.94] = [ 40.13,160.53] Ry 
 Optimized for a Real-space Cutoff    1.18 Angstroem

   l    n(q)    QCUT    max X(q) W(low)/X(q) W(high)/X(q)  e(spline) 
   0      8    11.971    19.460    0.15E-03    0.31E-03    0.25E-06
   0      8    11.971    12.209    0.13E-03    0.29E-03    0.25E-06
   1      8    11.971     4.655    0.22E-03    0.24E-03    0.21E-06
  PAW_PBE Pt 04Feb2005                  :
 energy of atom  1       EATOM= -729.1176
 kinetic energy error for atom=    0.0021 (will be added to EATOM!!)
  PAW_PBE Fe 06Sep2000                  :
 energy of atom  2       EATOM= -594.3153
 kinetic energy error for atom=    0.0024 (will be added to EATOM!!)
  PAW_PBE Co 02Aug2007                  :
 energy of atom  3       EATOM= -813.3670
 kinetic energy error for atom=    0.0026 (will be added to EATOM!!)
  PAW_PBE Cu 22Jun2005                  :
 energy of atom  4       EATOM=-1390.9808
 kinetic energy error for atom=    0.0036 (will be added to EATOM!!)
  PAW_PBE Ni 02Aug2007                  :
 energy of atom  5       EATOM=-1077.6739
 kinetic energy error for atom=    0.0027 (will be added to EATOM!!)
  PAW_PBE H 15Jun2001                   :
 energy of atom  6       EATOM=  -12.4884
 kinetic energy error for atom=    0.0008 (will be added to EATOM!!)
 
 
 POSCAR: 10.46                                   
  positions in direct lattice
  velocities in cartesian coordinates
 exchange correlation table for  LEXCH =        8
   RHO(1)=    0.500       N(1)  =     2000
   RHO(2)=  100.500       N(2)  =     4000
 


--------------------------------------------------------------------------------------------------------


 ion  position               nearest neighbor table
   1  0.789  0.879  0.319-  19 2.61  33 2.62  28 2.63  60 2.64  61 2.64  49 2.65  29 2.66  59 2.66
                             2 2.67  11 2.78  12 2.84   4 2.93
   2  0.042  0.883  0.318-  79 2.57  60 2.59  30 2.62  77 2.62  52 2.64  33 2.65  22 2.66  28 2.67
                             1 2.67   6 2.80   4 2.97  16 2.99
   3  0.279  0.381  0.321-  39 2.54  33 2.56  64 2.58  31 2.63  43 2.68  19 2.68  30 2.69  68 2.73
                            18 2.79  13 2.80   5 2.80  25 2.87
   4  0.872  0.963  0.433-  17 2.59  11 2.60   9 2.64  12 2.64   6 2.66  16 2.67   1 2.93  60 2.95
                             2 2.97
   5  0.123  0.461  0.431-  16 2.60  12 2.60   7 2.61  10 2.61  13 2.64  25 2.64  33 2.74  39 2.75
                             3 2.80
   6  0.125  0.963  0.426-   8 2.60  10 2.60   9 2.63  14 2.63   4 2.66  16 2.66   2 2.80  52 2.86
                            22 2.92
   7  0.874  0.460  0.430-  81 1.85  15 2.60   9 2.60   5 2.61  12 2.61  10 2.61  27 2.63  39 2.72
                            75 2.82  29 2.84
   8  0.374  0.960  0.421-  14 2.59   6 2.60  27 2.60  43 2.61  13 2.61  11 2.62  10 2.62  52 2.70
                            61 2.73
   9  0.873  0.213  0.421-  15 2.59   7 2.60  17 2.61  10 2.63   6 2.63   4 2.64  75 2.67  60 2.71
                            22 2.81
  10  0.125  0.211  0.424-   6 2.60  13 2.60   5 2.61   7 2.61   8 2.62   9 2.63  39 2.67  43 2.73
                            22 2.80
  11  0.624  0.961  0.426-   4 2.60  13 2.61  27 2.62  17 2.62  12 2.62   8 2.62   1 2.78  19 2.84
                            61 2.86
  12  0.874  0.710  0.428-   5 2.60   7 2.61  27 2.61  11 2.62  16 2.64   4 2.64  33 2.67  29 2.82
                             1 2.84
  13  0.375  0.209  0.426-  10 2.60  11 2.61   8 2.61  17 2.63   5 2.64  25 2.64  43 2.78   3 2.80
                            19 2.84
  14  0.377  0.711  0.424-  27 2.57   8 2.59  15 2.61  25 2.63   6 2.63  16 2.64  44 2.69  30 2.75
                            52 2.78
  15  0.626  0.461  0.424-  81 1.94   9 2.59   7 2.60  27 2.60  14 2.61  25 2.62  17 2.63  44 2.71
                            75 2.73  18 2.76
  16  0.127  0.708  0.433-  25 2.59   5 2.60  12 2.64  14 2.64   6 2.66   4 2.67  33 2.75  30 2.91
                             2 2.99
  17  0.625  0.211  0.423-   4 2.59   9 2.61  11 2.62  25 2.62  15 2.63  13 2.63  18 2.77  60 2.77
                            19 2.86
  18  0.548  0.376  0.317-  67 2.57  60 2.57  75 2.58  44 2.63  68 2.66  26 2.66  30 2.68  19 2.70
                            15 2.76  17 2.77   3 2.79  25 2.91
  19  0.535  0.124  0.316-  43 2.55  80 2.55  68 2.58  59 2.60  61 2.61   1 2.61   3 2.68  18 2.70
                            60 2.72  11 2.84  13 2.84  17 2.86
  20  0.546  0.123  0.038-  37 2.55  57 2.56  48 2.58  62 2.61  45 2.65  63 2.65  47 2.66  56 2.67
                            34 2.68
  21  0.121  0.460  0.127-  40 2.52  47 2.53  36 2.53  69 2.59  42 2.60  70 2.61  50 2.62  64 2.62
                            58 2.64  57 2.68  74 2.69  31 2.70
  22  0.043  0.136  0.315-  65 2.52  55 2.53  43 2.55  39 2.56  77 2.57  75 2.58  60 2.65   2 2.66
                            52 2.70  10 2.80   9 2.81   6 2.92  31 3.39
  23  0.043  0.130  0.032-  70 2.58  40 2.59  45 2.59  41 2.62  62 2.62  76 2.62  24 2.68  35 2.69
                            53 2.75
  24  0.130  0.958  0.131-  79 2.51  77 2.53  53 2.57  35 2.58  55 2.58  70 2.59  58 2.62  38 2.62
                            73 2.63  66 2.68  23 2.68  41 2.70
  25  0.375  0.461  0.429-  16 2.59  17 2.62  15 2.62  14 2.63   5 2.64  13 2.64  30 2.86   3 2.87
                            18 2.91
  26  0.454  0.545  0.219-  73 2.49  74 2.54  51 2.56  79 2.59  64 2.60  68 2.65  78 2.65  18 2.66
                            30 2.66  32 2.67  67 2.70  44 2.76
  27  0.623  0.711  0.426-  81 1.88  14 2.57   8 2.60  15 2.60  12 2.61  11 2.62   7 2.63  44 2.71
                            29 2.80  61 2.80
  28  0.956  0.790  0.221-  58 2.57  42 2.57  66 2.58  50 2.59  49 2.59  64 2.61   1 2.63   2 2.67
                            59 2.67  79 2.72  77 2.73  33 2.75
  29  0.794  0.622  0.319-  39 2.51  75 2.55  42 2.56  44 2.61  32 2.62  33 2.64  61 2.65   1 2.66
                            49 2.70  27 2.80  12 2.82   7 2.84
  30  0.291  0.631  0.319-  79 2.58  52 2.59  44 2.61  64 2.61   2 2.62  33 2.62  26 2.66  18 2.68
                             3 2.69  14 2.75  25 2.86  16 2.91
  31  0.203  0.282  0.225-  70 2.53  55 2.55  65 2.56  43 2.60  57 2.61   3 2.63  80 2.67  42 2.68
                            39 2.68  21 2.70  68 2.71  64 2.75  22 3.39
  32  0.707  0.549  0.221-  54 2.53  69 2.56  49 2.57  42 2.58  51 2.58  65 2.60  78 2.60  29 2.62
                            26 2.67  67 2.68  75 2.69  44 2.70
  33  0.041  0.631  0.328-   3 2.56  39 2.62   1 2.62  30 2.62  29 2.64   2 2.65  12 2.67  64 2.73
                             5 2.74  16 2.75  28 2.75  42 2.77
  34  0.798  0.862  0.040-  50 2.39  66 2.50  71 2.53  36 2.54  48 2.54  63 2.59  20 2.68  35 2.72
                            62 2.73
  35  0.056  0.867  0.036-  72 2.53  58 2.54  36 2.55  24 2.58  53 2.62  66 2.62  23 2.69  62 2.70
                            34 2.72
  36  0.047  0.627  0.035-  21 2.53  34 2.54  35 2.55  58 2.59  47 2.59  72 2.62  50 2.62  40 2.64
                            71 2.69
  37  0.627  0.221  0.128-  74 2.49  51 2.51  67 2.52  41 2.54  56 2.54  20 2.55  59 2.56  68 2.56
                            62 2.60  66 2.63  57 2.68  48 2.82
  38  0.382  0.955  0.129-  80 2.48  53 2.48  45 2.51  48 2.52  78 2.53  73 2.54  54 2.54  63 2.55
                            55 2.59  57 2.60  24 2.62  70 2.65
  39  0.035  0.383  0.326-  29 2.51   3 2.54  22 2.56  75 2.56  33 2.62  10 2.67  42 2.68  31 2.68
                             7 2.72   5 2.75  43 2.76  65 2.78
  40  0.032  0.382  0.036-  69 2.46  71 2.51  21 2.52  76 2.55  70 2.58  23 2.59  36 2.64  47 2.73
                            45 2.75
  41  0.872  0.216  0.128-  76 2.46  65 2.51  37 2.54  69 2.54  67 2.54  77 2.54  51 2.57  62 2.58
                            23 2.62  70 2.63  66 2.64  24 2.70
  42  0.955  0.545  0.224-  29 2.56  50 2.56  28 2.57  32 2.58  21 2.60  49 2.61  64 2.62  69 2.62
                            65 2.63  31 2.68  39 2.68  33 2.77
  43  0.296  0.116  0.322-  52 2.51  55 2.54  61 2.54  22 2.55  19 2.55  31 2.60   8 2.61  80 2.67
                             3 2.68  10 2.73  39 2.76  13 2.78
  44  0.541  0.631  0.322-  61 2.53  52 2.55  29 2.61  30 2.61  18 2.63  78 2.63  75 2.64  14 2.69
                            32 2.70  15 2.71  27 2.71  26 2.76
  45  0.295  0.120  0.038-  70 2.50  38 2.51  57 2.57  53 2.59  23 2.59  63 2.62  20 2.65  47 2.72
                            40 2.75
  46  0.548  0.625  0.042-  51 2.38  73 2.40  54 2.42  53 2.54  71 2.55  63 2.56  76 2.57  56 2.59
                            72 2.61
  47  0.295  0.380  0.037-  74 2.43  21 2.53  72 2.58  36 2.59  56 2.61  57 2.61  20 2.66  45 2.72
                            40 2.73
  48  0.625  0.951  0.131-  49 2.40  54 2.48  80 2.48  38 2.52  34 2.54  59 2.54  50 2.54  63 2.58
                            20 2.58  57 2.62  66 2.64  37 2.82
  49  0.706  0.795  0.220-  48 2.40  50 2.48  54 2.49  80 2.51  32 2.57  78 2.59  28 2.59  42 2.61
                            61 2.63   1 2.65  59 2.66  29 2.70
  50  0.866  0.707  0.128-  34 2.39  71 2.43  54 2.46  49 2.48  48 2.54  42 2.56  69 2.57  28 2.59
                            21 2.62  36 2.62  66 2.71  58 2.80
  51  0.626  0.461  0.126-  46 2.38  76 2.45  37 2.51  56 2.53  26 2.56  73 2.57  41 2.57  32 2.58
                            69 2.58  74 2.60  67 2.63  54 2.65
  52  0.298  0.875  0.318-  55 2.43  61 2.50  43 2.51  78 2.52  79 2.53  44 2.55  30 2.59   2 2.64
                            22 2.70   8 2.70  14 2.78   6 2.86
  53  0.305  0.868  0.039-  73 2.42  38 2.48  63 2.53  46 2.54  24 2.57  72 2.58  45 2.59  35 2.62
                            23 2.75
  54  0.627  0.714  0.128-  46 2.42  71 2.46  50 2.46  48 2.48  63 2.49  49 2.49  32 2.53  38 2.54
                            73 2.55  78 2.62  69 2.64  51 2.65
  55  0.223  0.029  0.227-  52 2.43  78 2.44  79 2.48  80 2.51  22 2.53  43 2.54  31 2.55  24 2.58
                            38 2.59  77 2.69  70 2.72  65 2.82
  56  0.543  0.380  0.033-  74 2.50  51 2.53  37 2.54  72 2.57  76 2.58  46 2.59  47 2.61  62 2.67
                            20 2.67
  57  0.379  0.205  0.131-  68 2.46  80 2.54  20 2.56  45 2.57  38 2.60  74 2.60  31 2.61  47 2.61
                            70 2.61  48 2.62  37 2.68  21 2.68
  58  0.135  0.705  0.131-  72 2.47  64 2.54  35 2.54  28 2.57  79 2.58  36 2.59  24 2.62  74 2.62
                            21 2.64  73 2.65  66 2.73  50 2.80
  59  0.705  0.050  0.220-  66 2.53  48 2.54  67 2.55  37 2.56  68 2.56  19 2.60  60 2.63  77 2.63
                            80 2.64   1 2.66  49 2.66  28 2.67
  60  0.793  0.129  0.318-  67 2.54  18 2.57  77 2.59   2 2.59  75 2.61  59 2.63   1 2.64  22 2.65
                             9 2.71  19 2.72  17 2.77   4 2.95
  61  0.538  0.873  0.317-  78 2.49  52 2.50  44 2.53  80 2.54  43 2.54  19 2.61  49 2.63   1 2.64
                            29 2.65   8 2.73  27 2.80  11 2.86
  62  0.796  0.123  0.033-  66 2.55  41 2.58  37 2.60  20 2.61  23 2.62  76 2.63  56 2.67  35 2.70
                            34 2.73
  63  0.546  0.870  0.035-  54 2.49  53 2.53  38 2.55  46 2.56  48 2.58  71 2.58  34 2.59  45 2.62
                            20 2.65
  64  0.207  0.542  0.224-  58 2.54   3 2.58  26 2.60  28 2.61  30 2.61  42 2.62  21 2.62  68 2.63
                            74 2.69  79 2.70  33 2.73  31 2.75
  65  0.952  0.296  0.221-  41 2.51  22 2.52  67 2.52  69 2.53  77 2.53  31 2.56  70 2.59  32 2.60
                            75 2.62  42 2.63  39 2.78  55 2.82
  66  0.872  0.963  0.128-  34 2.50  59 2.53  62 2.55  28 2.58  77 2.58  35 2.62  37 2.63  41 2.64
                            48 2.64  24 2.68  50 2.71  58 2.73
  67  0.714  0.289  0.223-  77 2.51  37 2.52  65 2.52  41 2.54  60 2.54  59 2.55  18 2.57  51 2.63
                            75 2.64  68 2.67  32 2.68  26 2.70
  68  0.457  0.291  0.221-  57 2.46  74 2.55  59 2.56  37 2.56  19 2.58  64 2.63  26 2.65  18 2.66
                            67 2.67  80 2.69  31 2.71   3 2.73
  69  0.875  0.456  0.127-  71 2.45  76 2.45  40 2.46  65 2.53  41 2.54  32 2.56  50 2.57  51 2.58
                            21 2.59  42 2.62  70 2.62  54 2.64
  70  0.128  0.208  0.128-  45 2.50  31 2.53  40 2.58  23 2.58  65 2.59  24 2.59  21 2.61  57 2.61
                            69 2.62  41 2.63  38 2.65  55 2.72
  71  0.792  0.622  0.039-  50 2.43  69 2.45  54 2.46  40 2.51  34 2.53  46 2.55  76 2.57  63 2.58
                            36 2.69
  72  0.298  0.625  0.041-  74 2.44  58 2.47  73 2.49  35 2.53  56 2.57  53 2.58  47 2.58  46 2.61
                            36 2.62
  73  0.386  0.710  0.128-  46 2.40  53 2.42  72 2.49  26 2.49  38 2.54  54 2.55  78 2.55  51 2.57
                            24 2.63  79 2.64  58 2.65  74 2.73
  74  0.382  0.452  0.125-  47 2.43  72 2.44  37 2.49  56 2.50  26 2.54  68 2.55  51 2.60  57 2.60
                            58 2.62  21 2.69  64 2.69  73 2.73
  75  0.793  0.378  0.321-  29 2.55  39 2.56  18 2.58  22 2.58  60 2.61  65 2.62  67 2.64  44 2.64
                             9 2.67  32 2.69  15 2.73   7 2.82
  76  0.791  0.377  0.038-  51 2.45  69 2.45  41 2.46  40 2.55  46 2.57  71 2.57  56 2.58  23 2.62
                            62 2.63
  77  0.956  0.052  0.221-  67 2.51  65 2.53  24 2.53  41 2.54  22 2.57  66 2.58  60 2.59   2 2.62
                            59 2.63  79 2.67  55 2.69  28 2.73
  78  0.458  0.797  0.224-  55 2.44  80 2.47  61 2.49  52 2.52  38 2.53  73 2.55  79 2.57  49 2.59
                            32 2.60  54 2.62  44 2.63  26 2.65
  79  0.212  0.798  0.224-  55 2.48  24 2.51  52 2.53  78 2.57   2 2.57  58 2.58  30 2.58  26 2.59
                            73 2.64  77 2.67  64 2.70  28 2.72
  80  0.462  0.031  0.222-  78 2.47  48 2.48  38 2.48  49 2.51  55 2.51  61 2.54  57 2.54  19 2.55
                            59 2.64  43 2.67  31 2.67  68 2.69
  81  0.707  0.548  0.478-   7 1.85  27 1.88  15 1.94
 
  LATTYP: Found a hexagonal cell.
 ALAT       =    10.4600000381
 C/A-ratio  =     2.1032504704
  
  Lattice vectors:
  
 A1 = (   5.2300000190,  -9.0586257566,   0.0000000000)
 A2 = ( -10.4600000381,   0.0000000000,   0.0000000000)
 A3 = (   0.0000000000,   0.0000000000, -22.0000000000)


Analysis of symmetry for initial positions (statically):
=====================================================================
 Subroutine PRICEL returns:
 Original cell was already a primitive cell.
 

 Routine SETGRP: Setting up the symmetry group for a 
 hexagonal supercell.


 Subroutine GETGRP returns: Found  1 space group operations
 (whereof  1 operations were pure point group operations)
 out of a pool of 24 trial point group operations.


The static configuration has the point symmetry C_1 .


Analysis of symmetry for dynamics (positions and initial velocities):
=====================================================================
 Subroutine PRICEL returns:
 Original cell was already a primitive cell.
 

 Routine SETGRP: Setting up the symmetry group for a 
 hexagonal supercell.


 Subroutine GETGRP returns: Found  1 space group operations
 (whereof  1 operations were pure point group operations)
 out of a pool of 24 trial point group operations.


The dynamic configuration has the point symmetry C_1 .


Analysis of constrained symmetry for selective dynamics:
=====================================================================
 Subroutine PRICEL returns:
 Original cell was already a primitive cell.
 

 Routine SETGRP: Setting up the symmetry group for a 
 hexagonal supercell.


 Subroutine GETGRP returns: Found  1 space group operations
 (whereof  1 operations were pure point group operations)
 out of a pool of 24 trial point group operations.


The constrained configuration has the point symmetry C_1 .


Analysis of structural, dynamic, and magnetic symmetry:
=====================================================================
 Subroutine PRICEL returns:
 Original cell was already a primitive cell.
 

 Routine SETGRP: Setting up the symmetry group for a 
 hexagonal supercell.


 Subroutine GETGRP returns: Found  1 space group operations
 (whereof  1 operations were pure point group operations)
 out of a pool of 24 trial point group operations.


The magnetic configuration has the point symmetry C_1 .


 Subroutine INISYM returns: Found  1 space group operations
 (whereof  1 operations are pure point group operations),
 and found     1 'primitive' translations

 
 
 KPOINTS: mesh auto                               

Automatic generation of k-mesh.
Space group operators:
 irot       det(A)        alpha          n_x          n_y          n_z        tau_x        tau_y        tau_z
    1     1.000000     0.000000     1.000000     0.000000     0.000000     0.000000     0.000000     0.000000
 
 Subroutine IBZKPT returns following result:
 ===========================================
 
 Found      4 irreducible k-points:
 
 Following reciprocal coordinates:
            Coordinates               Weight
  0.000000  0.000000  0.000000      1.000000
  0.500000 -0.000000  0.000000      1.000000
  0.000000  0.500000  0.000000      1.000000
  0.500000  0.500000  0.000000      1.000000
 
 Following cartesian coordinates:
            Coordinates               Weight
  0.000000  0.000000  0.000000      1.000000
  0.047801 -0.027598  0.000000      1.000000
  0.000000  0.055196  0.000000      1.000000
  0.047801  0.027598  0.000000      1.000000
 


--------------------------------------------------------------------------------------------------------




 Dimension of arrays:
   k-points           NKPTS =      4   k-points in BZ     NKDIM =      4   number of bands    NBANDS=    588
   number of dos      NEDOS =    301   number of ions     NIONS =     81
   non local maximal  LDIM  =      6   non local SUM 2l+1 LMDIM =     18
   total plane-waves  NPLWV = ******
   max r-space proj   IRMAX =   7217   max aug-charges    IRDMAX=  31436
   dimension x,y,z NGX =    80 NGY =   80 NGZ =  168
   dimension x,y,z NGXF=   160 NGYF=  160 NGZF=  336
   support grid    NGXF=   160 NGYF=  160 NGZF=  336
   ions per type =              32  13  10  13  12   1
   NGX,Y,Z   is equivalent  to a cutoff of  12.71, 12.71, 12.70 a.u.
   NGXF,Y,Z  is equivalent  to a cutoff of  25.43, 25.43, 25.39 a.u.

 SYSTEM =  Pt111                                   
 POSCAR =  10.46                                   

 Startparameter for this run:
   NWRITE =      2    write-flag & timer
   PREC   = accura    normal or accurate (medium, high low for compatibility)
   ISTART =      0    job   : 0-new  1-cont  2-samecut
   ICHARG =      2    charge: 1-file 2-atom 10-const
   ISPIN  =      2    spin polarized calculation?
   LNONCOLLINEAR =      F non collinear calculations
   LSORBIT =      F    spin-orbit coupling
   INIWAV =      1    electr: 0-lowe 1-rand  2-diag
   LASPH  =      F    aspherical Exc in radial PAW
   METAGGA=      F    non-selfconsistent MetaGGA calc.

 Electronic Relaxation 1
   ENCUT  =  550.0 eV  40.42 Ry    6.36 a.u.  20.00 20.00 42.07*2*pi/ulx,y,z
   ENINI  =  550.0     initial cutoff
   ENAUG  =  587.0 eV  augmentation charge cutoff
   NELM   =    200;   NELMIN=  2; NELMDL= -5     # of ELM steps 
   EDIFF  = 0.1E-04   stopping-criterion for ELM
   LREAL  =      T    real-space projection
   NLSPLINE    = F    spline interpolate recip. space projectors
   LCOMPAT=      F    compatible to vasp.4.4
   GGA_COMPAT  = T    GGA compatible to vasp.4.4-vasp.4.6
   LMAXPAW     = -100 max onsite density
   LMAXMIX     =    2 max onsite mixed and CHGCAR
   VOSKOWN=      0    Vosko Wilk Nusair interpolation
   ROPT   =   -0.00025  -0.00025  -0.00025  -0.00025
   ROPT   =   -0.00025  -0.00025
 Ionic relaxation
   EDIFFG = -.5E-01   stopping-criterion for IOM
   NSW    =    300    number of steps for IOM
   NBLOCK =      1;   KBLOCK =    300    inner block; outer block 
   IBRION =      2    ionic relax: 0-MD 1-quasi-New 2-CG
   NFREE  =      1    steps in history (QN), initial steepest desc. (CG)
   ISIF   =      2    stress and relaxation
   IWAVPR =     11    prediction:  0-non 1-charg 2-wave 3-comb
   ISYM   =      2    0-nonsym 1-usesym 2-fastsym
   LCORR  =      T    Harris-Foulkes like correction to forces

   POTIM  = 0.5000    time-step for ionic-motion
   TEIN   =    0.0    initial temperature
   TEBEG  =    0.0;   TEEND  =   0.0 temperature during run
   SMASS  =  -3.00    Nose mass-parameter (am)
   estimated Nose-frequenzy (Omega)   =  0.10E-29 period in steps =****** mass=  -0.250E-26a.u.
   SCALEE = 1.0000    scale energy and forces
   NPACO  =    256;   APACO  = 16.0  distance and # of slots for P.C.
   PSTRESS=    0.0 pullay stress

  Mass of Ions in am
   POMASS = 195.08 55.85 58.93 63.55 58.69  1.00
  Ionic Valenz
   ZVAL   =  10.00  8.00  9.00 11.00 10.00  1.00
  Atomic Wigner-Seitz radii
   RWIGS  =  -1.00 -1.00 -1.00 -1.00 -1.00 -1.00
  virtual crystal weights 
   VCA    =   1.00  1.00  1.00  1.00  1.00  1.00
   NELECT =     778.0000    total number of electrons
   NUPDOWN=      -1.0000    fix difference up-down

 DOS related values:
   EMIN   =  10.00;   EMAX   =-10.00  energy-range for DOS
   EFERMI =   0.00
   ISMEAR =     1;   SIGMA  =   0.10  broadening in eV -4-tet -1-fermi 0-gaus

 Electronic relaxation 2 (details)
   IALGO  =     68    algorithm
   LDIAG  =      T    sub-space diagonalisation (order eigenvalues)
   LSUBROT=      F    optimize rotation matrix (better conditioning)
   TURBO    =      0    0=normal 1=particle mesh
   IRESTART =      0    0=no restart 2=restart with 2 vectors
   NREBOOT  =      0    no. of reboots
   NMIN     =      0    reboot dimension
   EREF     =   0.00    reference energy to select bands
   IMIX   =      4    mixing-type and parameters
     AMIX     =   0.40;   BMIX     =  1.00
     AMIX_MAG =   1.60;   BMIX_MAG =  1.00
     AMIN     =   0.10
     WC   =   100.;   INIMIX=   1;  MIXPRE=   1;  MAXMIX= -45

 Intra band minimization:
   WEIMIN = 0.0010     energy-eigenvalue tresh-hold
   EBREAK =  0.43E-08  absolut break condition
   DEPER  =   0.30     relativ break condition  

   TIME   =   0.40     timestep for ELM

  volume/ion in A,a.u.               =      25.74       173.67
  Fermi-wavevector in a.u.,A,eV,Ry     =   1.178680  2.227382 18.902381  1.389286
  Thomas-Fermi vector in A             =   2.315004
 
 Write flags
   LWAVE        =      F    write WAVECAR
   LDOWNSAMPLE  =      F    k-point downsampling of WAVECAR
   LCHARG       =      F    write CHGCAR
   LVTOT        =      F    write LOCPOT, total local potential
   LVHAR        =      F    write LOCPOT, Hartree potential only
   LELF         =      F    write electronic localiz. function (ELF)
   LORBIT       =      0    0 simple, 1 ext, 2 COOP (PROOUT), +10 PAW based schemes


 Dipole corrections
   LMONO  =      F    monopole corrections only (constant potential shift)
   LDIPOL =      F    correct potential (dipole corrections)
   IDIPOL =      0    1-x, 2-y, 3-z, 4-all directions 
   EPSILON=  1.0000000 bulk dielectric constant

 Exchange correlation treatment:
   GGA     =    --    GGA type
   LEXCH   =     8    internal setting for exchange type
   VOSKOWN=      0    Vosko Wilk Nusair interpolation
   LHFCALC =     F    Hartree Fock is set to
   LHFONE  =     F    Hartree Fock one center treatment
   AEXX    =    0.0000 exact exchange contribution

 Linear response parameters
   LEPSILON=     F    determine dielectric tensor
   LRPA    =     F    only Hartree local field effects (RPA)
   LNABLA  =     F    use nabla operator in PAW spheres
   LVEL    =     F    velocity operator in full k-point grid
   LINTERFAST=   F  fast interpolation
   KINTER  =     0    interpolate to denser k-point grid
   CSHIFT  =0.1000    complex shift for real part using Kramers Kronig
   OMEGAMAX=  -1.0    maximum frequency
   DEG_THRESHOLD= 0.2000000E-02 threshold for treating states as degnerate
   RTIME   =   -0.100 relaxation time in fs
  (WPLASMAI=    0.000 imaginary part of plasma frequency in eV, 0.658/RTIME)
   DFIELD  = 0.0000000 0.0000000 0.0000000 field for delta impulse in time
 
 Orbital magnetization related:
   ORBITALMAG=     F  switch on orbital magnetization
   LCHIMAG   =     F  perturbation theory with respect to B field
   DQ        =  0.001000  dq finite difference perturbation B field
   LLRAUG    =     F  two centre corrections for induced B field



--------------------------------------------------------------------------------------------------------


 conjugate gradient relaxation of ions
   using selective dynamics as specified on POSCAR
 charge density and potential will be updated during run
 spin polarized calculation
 RMM-DIIS sequential band-by-band and
  variant of blocked Davidson during initial phase
 perform sub-space diagonalisation
    before iterative eigenvector-optimisation
 modified Broyden-mixing scheme, WC =      100.0
 initial mixing is a Kerker type mixing with AMIX =  0.4000 and BMIX =      1.0000
 Hartree-type preconditioning will be used
 using additional bands          199
 real space projection scheme for non local part
 use partial core corrections
 calculate Harris-corrections to forces 
   (improved forces if not selfconsistent)
 use gradient corrections 
 use of overlap-Matrix (Vanderbilt PP)
 Methfessel and Paxton  Order N= 1 SIGMA  =   0.10


--------------------------------------------------------------------------------------------------------


  energy-cutoff  :      550.00
  volume of cell :     2084.57
      direct lattice vectors                 reciprocal lattice vectors
    10.460000038  0.000000000  0.000000000     0.095602294 -0.055196010  0.000000000
     5.230000019  9.058625757  0.000000000     0.000000000  0.110392020  0.000000000
     0.000000000  0.000000000 22.000000000     0.000000000  0.000000000  0.045454545

  length of vectors
    10.460000038 10.460000038 22.000000000     0.110392020  0.110392020  0.045454545


 
 k-points in units of 2pi/SCALE and weight: mesh auto                               
   0.00000000  0.00000000  0.00000000       0.250
   0.04780115 -0.02759801  0.00000000       0.250
   0.00000000  0.05519601  0.00000000       0.250
   0.04780115  0.02759801  0.00000000       0.250
 
 k-points in reciprocal lattice and weights: mesh auto                               
   0.00000000  0.00000000  0.00000000       0.250
   0.50000000 -0.00000000  0.00000000       0.250
   0.00000000  0.50000000  0.00000000       0.250
   0.50000000  0.50000000  0.00000000       0.250
 
 position of ions in fractional coordinates (direct lattice) 
   0.78852304  0.87884220  0.31884249
   0.04206956  0.88269688  0.31795472
   0.27911115  0.38060434  0.32065352
   0.87156088  0.96276319  0.43303786
   0.12271553  0.46137150  0.43054108
   0.12513232  0.96274180  0.42625368
   0.87427435  0.45995995  0.42985112
   0.37439614  0.96000135  0.42129745
   0.87293043  0.21290242  0.42105925
   0.12496132  0.21137341  0.42414687
   0.62430824  0.96080216  0.42555685
   0.87355811  0.70959078  0.42758676
   0.37454355  0.20932409  0.42630875
   0.37707255  0.71111080  0.42435516
   0.62551999  0.46134724  0.42380252
   0.12669093  0.70764645  0.43315439
   0.62501422  0.21055733  0.42331214
   0.54823204  0.37596473  0.31747532
   0.53516660  0.12428796  0.31558056
   0.54635554  0.12346440  0.03801974
   0.12124064  0.46039479  0.12715021
   0.04316409  0.13601217  0.31455795
   0.04283891  0.12981457  0.03173287
   0.13019387  0.95827841  0.13124685
   0.37489598  0.46124798  0.42868751
   0.45403289  0.54545091  0.21870836
   0.62305009  0.71135940  0.42559712
   0.95636135  0.79046790  0.22127113
   0.79387849  0.62214751  0.31945544
   0.29099544  0.63139178  0.31938530
   0.20299264  0.28191601  0.22537426
   0.70728990  0.54862033  0.22052174
   0.04093140  0.63117576  0.32771469
   0.79775823  0.86189876  0.04039458
   0.05564464  0.86654624  0.03604956
   0.04678687  0.62731106  0.03496113
   0.62680793  0.22051446  0.12798747
   0.38242997  0.95507716  0.12934307
   0.03537316  0.38348615  0.32557778
   0.03228695  0.38241898  0.03570727
   0.87180834  0.21550419  0.12750532
   0.95519237  0.54505519  0.22370187
   0.29572707  0.11638239  0.32179289
   0.54061596  0.63068249  0.32228197
   0.29501736  0.12008867  0.03750641
   0.54755980  0.62539500  0.04218165
   0.29450307  0.37991063  0.03693883
   0.62547323  0.95120890  0.13146718
   0.70629551  0.79479816  0.21965480
   0.86639037  0.70660939  0.12805709
   0.62604680  0.46066035  0.12631648
   0.29849050  0.87531944  0.31773645
   0.30524438  0.86778677  0.03913090
   0.62727034  0.71381420  0.12769253
   0.22342560  0.02895889  0.22713189
   0.54327421  0.38045200  0.03307323
   0.37859094  0.20515622  0.13147005
   0.13501613  0.70531698  0.13067687
   0.70508973  0.04998780  0.22044003
   0.79306305  0.12926170  0.31786958
   0.53848508  0.87346905  0.31699431
   0.79612970  0.12318704  0.03281809
   0.54606913  0.87006807  0.03477158
   0.20705462  0.54237546  0.22432821
   0.95183918  0.29572597  0.22078627
   0.87174178  0.96317289  0.12820031
   0.71391943  0.28911011  0.22288637
   0.45746385  0.29078742  0.22068324
   0.87522322  0.45648295  0.12682467
   0.12758453  0.20753202  0.12806114
   0.79233835  0.62247135  0.03901829
   0.29812102  0.62506428  0.04053259
   0.38563452  0.71042955  0.12826607
   0.38240893  0.45157229  0.12544734
   0.79334629  0.37835312  0.32053611
   0.79084340  0.37728899  0.03790948
   0.95584833  0.05187198  0.22132157
   0.45788199  0.79706057  0.22411927
   0.21215454  0.79805172  0.22448805
   0.46238740  0.03124127  0.22181689
   0.70749755  0.54816266  0.47812898
 
 position of ions in cartesian coordinates  (Angst):
  12.84429570  7.96110257  7.01453481
   5.05655231  7.99602067  6.99500380
   4.91006333  3.44775228  7.05437750
  14.15177832  8.72131146  9.52683302
   3.69657741  4.17939172  9.47190382
   6.34402372  8.72111764  9.37758100
  11.55050025  4.16660505  9.45672453
   8.93699069  8.69629291  9.26854395
  10.24433202  1.92860338  9.26330352
   2.41257832  1.91475264  9.33123114
  11.55525949  8.70354715  9.36225070
  12.84857769  6.42791735  9.40690870
   5.01249051  1.89618863  9.37879240
   7.66328842  6.44168664  9.33581353
   8.95578524  4.17917203  9.32365539
   5.02617811  6.41030435  9.52939667
   7.63886361  1.90736010  9.31286707
   7.70080268  3.40572381  6.98445698
   6.24786870  1.12587813  6.94277224
   6.36059777  1.11841783  0.83643430
   3.67604182  4.17054411  2.79730458
   1.16284001  1.23208338  6.92027486
   1.12702522  1.17594162  0.69812310
   6.37362399  8.68068553  2.88743074
   6.33373886  4.17827283  9.43112524
   7.60189228  4.94103567  4.81158384
  10.23751365  6.44393856  9.36313670
  14.13768686  7.16055290  4.86796493
  11.55780051  5.63580147  7.02801974
   6.34599128  5.71954183  7.02647667
   3.59772373  2.55377166  4.95823367
  10.26753667  4.96974625  4.85147823
   3.72919167  5.71758503  7.20972310
  12.85228162  7.80761834  0.88868079
   5.11407977  7.84971811  0.79309028
   3.77022748  5.68257614  0.76914493
   7.70970158  1.99755794  2.81572435
   8.99527104  8.65168656  2.84554761
   2.37563590  3.47385755  7.16271120
   2.33777282  3.46419046  0.78556002
  10.24620218  1.95217182  2.80511704
  12.84195085  4.93745094  4.92144108
   3.70198506  1.05426455  7.07944361
   8.95331242  5.71311666  7.09020343
   3.71394535  1.08783833  0.82514106
   8.99829143  5.66521924  0.92799621
   5.06743477  3.44146824  0.81265419
  11.51727260  8.61664542  2.89227791
  11.54464544  7.19977908  4.83240552
  12.75801039  6.40091003  2.81725595
   8.95770316  4.17294967  2.77896252
   7.70013131  7.92919123  6.99020188
   7.73138105  7.86095560  0.86087976
  10.29449606  6.46617565  2.80923565
   2.48848679  0.26232775  4.99690168
   7.67241216  3.44637226  0.72761104
   5.03302831  1.85843343  2.89234121
   5.10107653  6.38920253  2.87489115
   7.63667477  0.45282080  4.84968064
   8.97147830  1.17093341  6.99313073
  10.20079707  7.91242926  6.97387491
   8.97178491  1.11590525  0.72199805
  10.26233915  7.88162099  0.76497477
   5.00241504  4.91317635  4.93522055
  11.50288465  2.67887089  4.85729792
  14.15581328  8.72502274  2.82040678
   8.97964314  2.61894028  4.90350016
   6.30589003  2.63413437  4.85503126
  11.54224082  4.13510824  2.79014274
   2.41992666  1.87995489  2.81734516
  11.54338437  5.63873500  0.85840246
   6.38743212  5.66222338  0.89171700
   7.74928366  6.43551543  2.82185349
   6.36172048  4.09062433  2.75984157
  10.27718907  3.42735932  7.05179444
  10.24544346  3.41771980  0.83400850
  10.26946403  0.46988889  4.86907455
   8.95807246  7.22027342  4.93062403
   6.39294697  7.22925187  4.93873718
   4.99996406  0.28300299  4.87997169
  10.26731512  4.96560036 10.51883754
 


--------------------------------------------------------------------------------------------------------


 k-point  1 :   0.0000 0.0000 0.0000  plane waves:   60991
 k-point  2 :   0.5000-0.0000 0.0000  plane waves:   60974
 k-point  3 :   0.0000 0.5000 0.0000  plane waves:   60974
 k-point  4 :   0.5000 0.5000 0.0000  plane waves:   60974

 maximum and minimum number of plane-waves per node :     15277    15213

 maximum number of plane-waves:     60991
 maximum index in each direction: 
   IXMAX=   20   IYMAX=   20   IZMAX=   42
   IXMIN=  -20   IYMIN=  -20   IZMIN=  -42


 real space projection operators:
  total allocation   :      71949.41 KBytes
  max/ min on nodes  :      18007.98      17966.16


 parallel 3D FFT for wavefunctions:
    minimum data exchange during FFTs selected (reduces bandwidth)
 parallel 3D FFT for charge:
    minimum data exchange during FFTs selected (reduces bandwidth)


 total amount of memory used by VASP MPI-rank0   221618. kBytes
=======================================================================

   base      :      30000. kBytes
   nonlr-proj:      32064. kBytes
   fftplans  :      14920. kBytes
   grid      :      45762. kBytes
   one-center:        653. kBytes
   wavefun   :      98219. kBytes
 
     INWAV:  cpu time    0.0001: real time    0.0005
 Broyden mixing: mesh for mixing (old mesh)
   NGX = 41   NGY = 41   NGZ = 85
  (NGX  =160   NGY  =160   NGZ  =336)
  gives a total of 142885 points

 initial charge density was supplied:
 charge density of overlapping atoms calculated
 number of electron     778.0000000 magnetization     231.0000000
 keeping initial charge density in first step


--------------------------------------------------------------------------------------------------------


 Maximum index for non-local projection operator         1753
 Maximum index for augmentation-charges         1830 (set IRDMAX)


--------------------------------------------------------------------------------------------------------


 First call to EWALD:  gamma=   0.139
 Maximum number of real-space cells 4x 4x 2
 Maximum number of reciprocal cells 2x 2x 4

    FEWALD:  cpu time    0.0074: real time    0.0074


--------------------------------------- Iteration      1(   1)  ---------------------------------------


    POTLOK:  cpu time    0.3722: real time    0.3762
    SETDIJ:  cpu time    0.0352: real time    0.0353
     EDDAV:  cpu time   57.7098: real time   59.8604
       DOS:  cpu time    0.0025: real time    0.0039
    --------------------------------------------
      LOOP:  cpu time   58.1197: real time   60.2758

 eigenvalue-minimisations  :  9408
 total energy-change (2. order) : 0.7948695E+04  (-0.3299207E+05)
 number of electron     778.0000000 magnetization     231.0000000
 augmentation part      778.0000000 magnetization     231.0000000

 Free energy of the ion-electron system (eV)
  ---------------------------------------------------
  alpha Z        PSCENC =      2281.97981454
  Ewald energy   TEWEN  =    224340.29801187
  -Hartree energ DENC   =   -296721.43305055
  -exchange      EXHF   =         0.00000000
  -V(xc)+E(xc)   XCENC  =      1390.94231314
  PAW double counting   =     64136.80006862   -66038.70876209
  entropy T*S    EENTRO =        -0.00955595
  eigenvalues    EBANDS =      8340.17189567
  atomic energy  EATOM  =     70218.65458108
  Solvation  Ediel_sol  =         0.00000000
  ---------------------------------------------------
  free energy    TOTEN  =      7948.69531633 eV

  energy without entropy =     7948.70487228  energy(sigma->0) =     7948.69850165


--------------------------------------------------------------------------------------------------------




--------------------------------------- Iteration      1(   2)  ---------------------------------------


     EDDAV:  cpu time   57.6697: real time   57.8181
       DOS:  cpu time    0.0026: real time    0.0177
    --------------------------------------------
      LOOP:  cpu time   57.6723: real time   57.8358

 eigenvalue-minimisations  :  9408
 total energy-change (2. order) :-0.7075558E+04  (-0.6322668E+04)
 number of electron     778.0000000 magnetization     231.0000000
 augmentation part      778.0000000 magnetization     231.0000000

 Free energy of the ion-electron system (eV)
  ---------------------------------------------------
  alpha Z        PSCENC =      2281.97981454
  Ewald energy   TEWEN  =    224340.29801187
  -Hartree energ DENC   =   -296721.43305055
  -exchange      EXHF   =         0.00000000
  -V(xc)+E(xc)   XCENC  =      1390.94231314
  PAW double counting   =     64136.80006862   -66038.70876209
  entropy T*S    EENTRO =        -0.00189982
  eigenvalues    EBANDS =      1264.60619198
  atomic energy  EATOM  =     70218.65458108
  Solvation  Ediel_sol  =         0.00000000
  ---------------------------------------------------
  free energy    TOTEN  =       873.13726877 eV

  energy without entropy =      873.13916859  energy(sigma->0) =      873.13790205


--------------------------------------------------------------------------------------------------------




--------------------------------------- Iteration      1(   3)  ---------------------------------------


     EDDAV:  cpu time   57.6551: real time   57.8304
       DOS:  cpu time    0.0029: real time    0.0037
    --------------------------------------------
      LOOP:  cpu time   57.6580: real time   57.8341

 eigenvalue-minimisations  :  9408
 total energy-change (2. order) :-0.1244585E+04  (-0.1009635E+04)
 number of electron     778.0000000 magnetization     231.0000000
 augmentation part      778.0000000 magnetization     231.0000000

 Free energy of the ion-electron system (eV)
  ---------------------------------------------------
  alpha Z        PSCENC =      2281.97981454
  Ewald energy   TEWEN  =    224340.29801187
  -Hartree energ DENC   =   -296721.43305055
  -exchange      EXHF   =         0.00000000
  -V(xc)+E(xc)   XCENC  =      1390.94231314
  PAW double counting   =     64136.80006862   -66038.70876209
  entropy T*S    EENTRO =        -0.00293453
  eigenvalues    EBANDS =        20.02214439
  atomic energy  EATOM  =     70218.65458108
  Solvation  Ediel_sol  =         0.00000000
  ---------------------------------------------------
  free energy    TOTEN  =      -371.44781352 eV

  energy without entropy =     -371.44487900  energy(sigma->0) =     -371.44683535


--------------------------------------------------------------------------------------------------------




--------------------------------------- Iteration      1(   4)  ---------------------------------------


     EDDAV:  cpu time   68.1335: real time   68.3387
       DOS:  cpu time    0.0030: real time    0.0082
    --------------------------------------------
      LOOP:  cpu time   68.1365: real time   68.3468

 eigenvalue-minimisations  : 11664
 total energy-change (2. order) :-0.1196918E+03  (-0.1099232E+03)
 number of electron     778.0000000 magnetization     231.0000000
 augmentation part      778.0000000 magnetization     231.0000000

 Free energy of the ion-electron system (eV)
  ---------------------------------------------------
  alpha Z        PSCENC =      2281.97981454
  Ewald energy   TEWEN  =    224340.29801187
  -Hartree energ DENC   =   -296721.43305055
  -exchange      EXHF   =         0.00000000
  -V(xc)+E(xc)   XCENC  =      1390.94231314
  PAW double counting   =     64136.80006862   -66038.70876209
  entropy T*S    EENTRO =         0.00002589
  eigenvalues    EBANDS =       -99.67260018
  atomic energy  EATOM  =     70218.65458108
  Solvation  Ediel_sol  =         0.00000000
  ---------------------------------------------------
  free energy    TOTEN  =      -491.13959768 eV

  energy without entropy =     -491.13962357  energy(sigma->0) =     -491.13960631


--------------------------------------------------------------------------------------------------------




--------------------------------------- Iteration      1(   5)  ---------------------------------------


     EDDAV:  cpu time   65.6859: real time   65.9118
       DOS:  cpu time    0.0031: real time    0.0062
    CHARGE:  cpu time    3.4624: real time    3.4747
    MIXING:  cpu time    0.0099: real time    0.0101
    --------------------------------------------
      LOOP:  cpu time   69.1613: real time   69.4028

 eigenvalue-minimisations  : 11124
 total energy-change (2. order) :-0.4482472E+01  (-0.4449055E+01)
 number of electron     778.0000062 magnetization     216.2462586
 augmentation part      334.9743162 magnetization     184.9285569

 Broyden mixing:
  rms(total) = 0.12053E+02    rms(broyden)= 0.12053E+02
  rms(prec ) = 0.12341E+02
  weight for this iteration     100.00

 Free energy of the ion-electron system (eV)
  ---------------------------------------------------
  alpha Z        PSCENC =      2281.97981454
  Ewald energy   TEWEN  =    224340.29801187
  -Hartree energ DENC   =   -296721.43305055
  -exchange      EXHF   =         0.00000000
  -V(xc)+E(xc)   XCENC  =      1390.94231314
  PAW double counting   =     64136.80006862   -66038.70876209
  entropy T*S    EENTRO =         0.00025529
  eigenvalues    EBANDS =      -104.15530110
  atomic energy  EATOM  =     70218.65458108
  Solvation  Ediel_sol  =         0.00000000
  ---------------------------------------------------
  free energy    TOTEN  =      -495.62206920 eV

  energy without entropy =     -495.62232449  energy(sigma->0) =     -495.62215430


--------------------------------------------------------------------------------------------------------




--------------------------------------- Iteration      1(   6)  ---------------------------------------


    POTLOK:  cpu time    0.3475: real time    0.3660
    SETDIJ:  cpu time    0.0344: real time    0.0345
    EDDIAG:  cpu time   10.2076: real time   10.2439
  RMM-DIIS:  cpu time   34.4847: real time   34.5732
    ORTHCH:  cpu time    1.2323: real time    1.2393
       DOS:  cpu time    0.0025: real time    0.0025
    CHARGE:  cpu time    3.3869: real time    3.3994
    MIXING:  cpu time    0.0121: real time    0.0126
    --------------------------------------------
      LOOP:  cpu time   49.7080: real time   49.8714

 eigenvalue-minimisations  :  9509
 total energy-change (2. order) :-0.1191268E+03  (-0.8749727E+02)
 number of electron     778.0000085 magnetization     211.8954941
 augmentation part      405.2347730 magnetization     179.5042669

 Broyden mixing:
  rms(total) = 0.18792E+02    rms(broyden)= 0.18792E+02
  rms(prec ) = 0.24362E+02
  weight for this iteration     100.00

 eigenvalues of (default mixing * dielectric matrix)
  average eigenvalue GAMMA=   0.2481
  0.2481

 Free energy of the ion-electron system (eV)
  ---------------------------------------------------
  alpha Z        PSCENC =      2281.97981454
  Ewald energy   TEWEN  =    224340.29801187
  -Hartree energ DENC   =   -295096.80415519
  -exchange      EXHF   =         0.00000000
  -V(xc)+E(xc)   XCENC  =      1346.16350145
  PAW double counting   =     69551.25415561   -71252.94851547
  entropy T*S    EENTRO =         0.00851588
  eigenvalues    EBANDS =     -2003.35478549
  atomic energy  EATOM  =     70218.65458108
  Solvation  Ediel_sol  =         0.00000000
  ---------------------------------------------------
  free energy    TOTEN  =      -614.74887573 eV

  energy without entropy =     -614.75739161  energy(sigma->0) =     -614.75171435


--------------------------------------------------------------------------------------------------------




--------------------------------------- Iteration      1(   7)  ---------------------------------------


    POTLOK:  cpu time    0.3474: real time    0.3632
    SETDIJ:  cpu time    0.0339: real time    0.0341
    EDDIAG:  cpu time   10.2065: real time   10.2354
  RMM-DIIS:  cpu time   34.0786: real time   34.1658
    ORTHCH:  cpu time    1.2376: real time    1.2431
       DOS:  cpu time    0.0025: real time    0.0025
    CHARGE:  cpu time    3.3962: real time    3.4050
    MIXING:  cpu time    0.0103: real time    0.0105
    --------------------------------------------
      LOOP:  cpu time   49.3131: real time   49.4595

 eigenvalue-minimisations  :  9423
 total energy-change (2. order) : 0.4379987E+02  (-0.1727554E+02)
 number of electron     778.0000070 magnetization     207.2471431
 augmentation part      362.0592438 magnetization     165.1690476

 Broyden mixing:
  rms(total) = 0.16678E+02    rms(broyden)= 0.16678E+02
  rms(prec ) = 0.22826E+02
  weight for this iteration     100.00

 eigenvalues of (default mixing * dielectric matrix)
  average eigenvalue GAMMA=   0.2748
  0.3942  0.1554

 Free energy of the ion-electron system (eV)
  ---------------------------------------------------
  alpha Z        PSCENC =      2281.97981454
  Ewald energy   TEWEN  =    224340.29801187
  -Hartree energ DENC   =   -295835.74734965
  -exchange      EXHF   =         0.00000000
  -V(xc)+E(xc)   XCENC  =      1366.87427342
  PAW double counting   =     70704.92127299   -72573.57117012
  entropy T*S    EENTRO =         0.00287996
  eigenvalues    EBANDS =     -1074.36132105
  atomic energy  EATOM  =     70218.65458108
  Solvation  Ediel_sol  =         0.00000000
  ---------------------------------------------------
  free energy    TOTEN  =      -570.94900697 eV

  energy without entropy =     -570.95188693  energy(sigma->0) =     -570.94996696


--------------------------------------------------------------------------------------------------------




--------------------------------------- Iteration      1(   8)  ---------------------------------------


    POTLOK:  cpu time    0.3469: real time    0.3628
    SETDIJ:  cpu time    0.0336: real time    0.0339
    EDDIAG:  cpu time   10.2190: real time   10.2510
  RMM-DIIS:  cpu time   34.1278: real time   34.2167
    ORTHCH:  cpu time    1.2310: real time    1.2390
       DOS:  cpu time    0.0026: real time    0.0026
    CHARGE:  cpu time    3.3361: real time    3.3487
    MIXING:  cpu time    0.0145: real time    0.0147
    --------------------------------------------
      LOOP:  cpu time   49.3114: real time   49.4695

 eigenvalue-minimisations  :  9423
 total energy-change (2. order) : 0.9171088E+02  (-0.9017149E+01)
 number of electron     778.0000062 magnetization     200.2231641
 augmentation part      369.1497513 magnetization     162.0419504

 Broyden mixing:
  rms(total) = 0.16182E+02    rms(broyden)= 0.16182E+02
  rms(prec ) = 0.19062E+02
  weight for this iteration     100.00

 eigenvalues of (default mixing * dielectric matrix)
  average eigenvalue GAMMA=   0.3053
  0.5789  0.2558  0.0812

 Free energy of the ion-electron system (eV)
  ---------------------------------------------------
  alpha Z        PSCENC =      2281.97981454
  Ewald energy   TEWEN  =    224340.29801187
  -Hartree energ DENC   =   -296150.91894258
  -exchange      EXHF   =         0.00000000
  -V(xc)+E(xc)   XCENC  =      1371.55767745
  PAW double counting   =     71971.13618943   -73906.90055382
  entropy T*S    EENTRO =         0.01248763
  eigenvalues    EBANDS =      -605.05739355
  atomic energy  EATOM  =     70218.65458108
  Solvation  Ediel_sol  =         0.00000000
  ---------------------------------------------------
  free energy    TOTEN  =      -479.23812796 eV

  energy without entropy =     -479.25061559  energy(sigma->0) =     -479.24229050


--------------------------------------------------------------------------------------------------------




--------------------------------------- Iteration      1(   9)  ---------------------------------------


    POTLOK:  cpu time    0.3486: real time    0.3604
    SETDIJ:  cpu time    0.0338: real time    0.0339
    EDDIAG:  cpu time   10.1956: real time   10.2275
  RMM-DIIS:  cpu time   34.1811: real time   34.3129
    ORTHCH:  cpu time    1.2663: real time    1.2738
       DOS:  cpu time    0.0025: real time    0.0025
    CHARGE:  cpu time    3.3423: real time    3.3550
    MIXING:  cpu time    0.0116: real time    0.0116
    --------------------------------------------
      LOOP:  cpu time   49.3817: real time   49.5775

 eigenvalue-minimisations  :  9439
 total energy-change (2. order) : 0.1043631E+03  (-0.1452423E+02)
 number of electron     778.0000074 magnetization     191.7018739
 augmentation part      370.0845643 magnetization     147.8856264

 Broyden mixing:
  rms(total) = 0.12730E+02    rms(broyden)= 0.12730E+02
  rms(prec ) = 0.15203E+02
  weight for this iteration     100.00

 eigenvalues of (default mixing * dielectric matrix)
  average eigenvalue GAMMA=   0.3712
  0.8966  0.3498  0.1531  0.0851

 Free energy of the ion-electron system (eV)
  ---------------------------------------------------
  alpha Z        PSCENC =      2281.97981454
  Ewald energy   TEWEN  =    224340.29801187
  -Hartree energ DENC   =   -295827.84741095
  -exchange      EXHF   =         0.00000000
  -V(xc)+E(xc)   XCENC  =      1388.05856445
  PAW double counting   =     73483.10723077   -75470.32660268
  entropy T*S    EENTRO =        -0.01839666
  eigenvalues    EBANDS =      -788.78084041
  atomic energy  EATOM  =     70218.65458108
  Solvation  Ediel_sol  =         0.00000000
  ---------------------------------------------------
  free energy    TOTEN  =      -374.87504800 eV

[...]
   -.543E+01 0.186E+02 -.298E+04   0.557E+01 -.186E+02 0.298E+04   -.147E+00 -.441E-02 0.578E+00   0.408E-02 -.319E-02 -.237E-03
   -.140E+02 0.692E+01 -.295E+04   0.135E+02 -.660E+01 0.295E+04   0.506E+00 -.316E+00 0.121E+01   -.106E-01 0.151E-01 0.743E-02
   -.235E+01 0.265E+01 -.293E+04   0.223E+01 -.292E+01 0.293E+04   0.163E+00 0.244E+00 0.636E+00   -.162E-01 0.277E-02 -.572E-02
   -.223E+02 0.442E+01 -.299E+04   0.235E+02 -.523E+01 0.299E+04   -.123E+01 0.778E+00 0.101E+01   -.535E-02 -.919E-03 -.809E-02
   0.144E+02 -.188E+02 -.295E+04   -.146E+02 0.190E+02 0.295E+04   0.244E+00 -.177E+00 0.167E+01   -.959E-02 -.779E-02 0.507E-02
   -.207E+02 0.113E+02 -.294E+04   0.206E+02 -.114E+02 0.294E+04   0.776E-01 0.727E-01 0.861E+00   -.105E-02 -.471E-02 -.141E-01
   -.121E+02 0.532E+01 -.293E+04   0.125E+02 -.497E+01 0.293E+04   -.252E+00 -.331E+00 0.137E+01   -.233E-01 -.440E-02 -.970E-02
   -.556E+01 -.882E+01 -.297E+04   0.583E+01 0.861E+01 0.297E+04   -.317E+00 0.191E+00 0.437E+00   0.116E-01 -.102E-01 0.687E-02
   -.777E+01 0.887E+00 -.293E+04   0.831E+01 -.103E+01 0.293E+04   -.542E+00 0.122E+00 0.806E+00   0.199E-02 0.578E-02 0.108E-01
   0.344E+01 -.156E+02 -.295E+04   -.370E+01 0.154E+02 0.295E+04   0.273E+00 0.234E+00 0.587E+00   0.202E-02 -.593E-02 0.556E-03
   0.185E+02 0.659E+01 -.294E+04   -.184E+02 -.633E+01 0.294E+04   -.415E-01 -.277E+00 0.127E+01   -.484E-02 -.755E-02 -.378E-02
   0.299E+02 -.327E+01 -.294E+04   -.302E+02 0.309E+01 0.294E+04   0.347E+00 0.213E+00 0.255E+00   0.890E-02 0.345E-02 -.124E-01
   -.313E+01 -.184E+01 -.295E+04   0.288E+01 0.151E+01 0.295E+04   0.240E+00 0.312E+00 0.808E+00   -.414E-02 0.884E-02 0.375E-04
   0.278E+02 -.342E+01 -.295E+04   -.277E+02 0.356E+01 0.295E+04   -.146E+00 -.193E+00 0.736E+00   0.162E-01 -.180E-02 0.588E-02
   0.699E+02 -.778E+02 -.156E+04   -.684E+02 0.782E+02 0.156E+04   -.147E+01 -.384E+00 0.146E+01   0.161E-01 0.331E-02 -.237E-01
   0.341E+02 -.429E+02 -.154E+04   -.352E+02 0.425E+02 0.154E+04   0.104E+01 0.412E+00 0.248E+01   0.879E-02 -.297E-02 -.314E-01
   0.347E+02 0.330E+02 0.308E+04   -.348E+02 -.332E+02 -.308E+04   0.146E+00 0.188E+00 -.228E+01   0.167E-02 -.136E-01 0.751E-02
   0.390E+02 -.861E+01 0.162E+04   -.399E+02 0.931E+01 -.162E+04   0.879E+00 -.634E+00 0.937E+00   -.976E-02 -.149E-02 -.880E-02
   -.737E+02 0.607E+01 -.150E+04   0.747E+02 -.534E+01 0.150E+04   -.901E+00 -.728E+00 0.268E+01   -.179E-01 0.402E-02 -.249E-01
   -.556E+02 0.487E+02 0.312E+04   0.562E+02 -.479E+02 -.312E+04   -.696E+00 -.785E+00 -.188E+01   0.458E-02 -.449E-02 0.903E-02
   -.458E+01 -.524E+02 0.161E+04   0.486E+01 0.519E+02 -.161E+04   -.333E+00 0.373E+00 -.764E+00   0.169E-02 0.465E-02 0.747E-02
   0.883E+01 0.213E+01 -.296E+04   -.914E+01 -.209E+01 0.296E+04   0.305E+00 -.605E-01 0.517E+00   0.116E-01 0.124E-01 0.780E-02
   -.272E+02 -.907E+01 0.369E+01   0.271E+02 0.925E+01 -.502E+01   0.100E+00 -.305E+00 0.136E+01   0.586E-02 0.988E-02 -.486E-02
   -.819E+01 -.700E+01 -.296E+04   0.791E+01 0.795E+01 0.296E+04   0.311E+00 -.899E+00 0.774E+00   0.180E-02 -.573E-02 -.129E-01
   0.236E+02 0.721E+02 -.593E+01   -.245E+02 -.733E+02 0.550E+01   0.100E+01 0.107E+01 0.318E+00   0.620E-02 0.171E-01 -.176E-01
   -.623E+02 0.122E+02 -.153E+04   0.625E+02 -.136E+02 0.152E+04   -.147E+00 0.143E+01 0.285E+01   -.153E-01 0.670E-02 -.104E-01
   0.265E+02 0.292E+02 -.156E+04   -.262E+02 -.285E+02 0.156E+04   -.323E+00 -.648E+00 0.233E+01   0.761E-02 0.117E-02 -.193E-01
   0.282E+02 -.642E+02 -.830E+02   -.291E+02 0.637E+02 0.833E+02   0.910E+00 0.477E+00 -.191E+00   -.576E-02 -.178E-01 -.241E-01
   -.240E+02 -.246E+02 -.161E+01   0.248E+02 0.252E+02 0.941E+00   -.894E+00 -.717E+00 0.782E+00   -.452E-02 0.498E-02 -.386E-02
   0.204E+02 0.158E+02 -.127E+04   -.206E+02 -.162E+02 0.127E+04   0.214E+00 0.469E+00 0.576E+00   -.138E-02 0.142E-01 -.744E-02
   -.571E+02 -.166E+01 0.247E+04   0.575E+02 0.387E+00 -.247E+04   -.419E+00 0.130E+01 -.257E+01   0.871E-03 0.221E-02 0.549E-02
   0.290E+02 -.126E+02 0.250E+04   -.288E+02 0.112E+02 -.250E+04   -.646E-01 0.141E+01 -.217E+01   -.244E-02 0.638E-02 0.560E-02
   0.226E+02 -.752E+01 0.251E+04   -.227E+02 0.801E+01 -.251E+04   0.197E+00 -.525E+00 -.275E+01   -.797E-02 0.754E-02 0.179E-02
   0.176E+01 0.465E+02 0.131E+04   -.954E+00 -.459E+02 -.131E+04   -.852E+00 -.627E+00 -.165E+00   0.334E-02 -.130E-01 -.118E-02
   0.355E+02 -.514E+02 0.129E+04   -.354E+02 0.511E+02 -.129E+04   -.124E+00 0.218E+00 -.425E+00   -.314E-02 0.343E-02 0.301E-02
   -.476E+02 -.282E+02 -.127E+04   0.477E+02 0.284E+02 0.127E+04   -.106E+00 -.272E+00 0.918E+00   -.156E-01 -.327E-02 -.126E-01
   -.857E+02 0.231E+02 0.251E+04   0.856E+02 -.228E+02 -.251E+04   0.846E-01 -.283E+00 -.252E+01   -.617E-03 -.442E-02 0.221E-02
   -.325E+02 0.453E+02 0.132E+04   0.318E+02 -.448E+02 -.131E+04   0.781E+00 -.546E+00 -.436E+00   0.282E-02 -.134E-01 0.216E-02
   -.364E+02 0.274E+01 -.501E+02   0.362E+02 -.240E+01 0.500E+02   0.145E+00 -.387E+00 -.113E-01   -.622E-02 0.468E-02 -.158E-01
   0.143E+02 -.830E+02 -.126E+04   -.145E+02 0.828E+02 0.126E+04   0.181E+00 0.233E+00 0.122E+01   -.511E-02 -.435E-02 -.271E-01
   0.784E+01 0.322E+02 -.126E+04   -.789E+01 -.322E+02 0.126E+04   0.412E-01 0.196E-01 0.610E+00   0.727E-02 -.875E-02 -.978E-02
   0.178E+02 -.424E+02 0.248E+04   -.184E+02 0.418E+02 -.248E+04   0.655E+00 0.625E+00 -.260E+01   -.535E-02 -.526E-02 0.639E-02
   0.167E+01 -.216E+02 0.279E+04   -.178E+01 0.218E+02 -.279E+04   0.135E+00 -.222E+00 -.218E+01   0.279E-02 0.109E-01 0.209E-02
   0.115E+03 0.301E+02 0.283E+04   -.116E+03 -.294E+02 -.282E+04   0.516E+00 -.692E+00 -.219E+01   -.945E-02 -.641E-02 0.598E-03
   -.306E+02 -.210E+02 0.144E+04   0.302E+02 0.200E+02 -.144E+04   0.388E+00 0.100E+01 -.456E+00   -.661E-03 -.124E-03 -.231E-02
   -.566E+02 0.755E+02 0.213E+02   0.566E+02 -.752E+02 -.222E+02   0.180E-01 -.273E+00 0.941E+00   -.596E-02 0.756E-02 -.153E-01
   -.816E+02 0.235E+02 0.142E+04   0.812E+02 -.231E+02 -.142E+04   0.502E+00 -.496E+00 -.799E-01   -.528E-03 0.106E-01 -.717E-02
   -.204E+02 0.131E+02 0.141E+04   0.206E+02 -.133E+02 -.141E+04   -.152E+00 0.250E+00 -.400E-01   0.245E-02 -.471E-02 0.563E-02
   0.450E+02 0.104E+02 -.141E+04   -.447E+02 -.106E+02 0.140E+04   -.340E+00 0.247E+00 0.161E+01   -.243E-02 -.189E-02 -.287E-01
   0.502E+02 -.831E+02 0.279E+04   -.500E+02 0.829E+02 -.279E+04   -.312E+00 0.207E+00 -.220E+01   -.115E-02 0.127E-01 0.786E-02
   -.139E+02 -.515E+00 0.139E+04   0.140E+02 0.702E+00 -.139E+04   -.110E+00 -.211E+00 -.397E+00   0.372E-02 0.140E-01 0.375E-02
   0.136E+02 -.670E+02 -.153E+02   -.128E+02 0.664E+02 0.155E+02   -.783E+00 0.591E+00 -.328E+00   -.651E-02 -.334E-02 -.299E-01
   0.308E+02 0.331E+02 0.348E+04   -.310E+02 -.323E+02 -.348E+04   0.995E-01 -.846E+00 -.338E+01   0.278E-02 -.139E-01 0.948E-03
   0.665E+02 0.803E+01 0.177E+04   -.667E+02 -.871E+01 -.177E+04   0.947E-01 0.738E+00 -.161E+00   -.522E-02 -.206E-01 -.213E-02
   0.962E+02 -.280E+02 0.174E+04   -.960E+02 0.280E+02 -.174E+04   -.176E+00 0.311E-01 0.152E+00   -.739E-03 0.200E-01 0.223E-03
   0.148E+02 0.742E+02 0.770E+02   -.154E+02 -.740E+02 -.779E+02   0.593E+00 -.303E+00 0.795E+00   0.707E-02 -.436E-02 -.230E-01
   0.128E+02 0.532E+02 -.173E+04   -.123E+02 -.527E+02 0.173E+04   -.456E+00 -.465E+00 0.161E+01   0.143E-01 0.147E-02 -.212E-01
   -.399E+02 0.396E+02 -.170E+04   0.390E+02 -.395E+02 0.170E+04   0.103E+01 -.135E+00 0.243E+01   0.660E-02 -.121E-01 -.298E-01
   -.106E+02 0.100E+03 0.343E+04   0.107E+02 -.101E+03 -.343E+04   -.117E+00 0.353E+00 -.265E+01   0.953E-03 -.119E-01 0.989E-02
   -.146E+02 -.778E+02 0.345E+04   0.137E+02 0.774E+02 -.345E+04   0.941E+00 0.354E+00 -.242E+01   0.375E-02 0.106E-01 0.821E-02
   0.105E+03 0.455E+01 -.780E+02   -.105E+03 -.435E+01 0.781E+02   0.399E-01 -.300E+00 -.211E+00   0.660E-02 0.112E-01 -.183E-01
   -.118E+03 -.520E+02 0.433E+02   0.117E+03 0.517E+02 -.435E+02   0.360E+00 0.254E+00 0.188E+00   -.866E-02 -.193E-01 -.139E-01
   -.163E+02 0.474E+02 0.183E+04   0.158E+02 -.469E+02 -.183E+04   0.502E+00 -.499E+00 -.495E+00   0.297E-02 0.292E-02 -.172E-02
   0.586E+01 -.871E+02 0.514E+02   -.552E+01 0.860E+02 -.523E+02   -.391E+00 0.134E+01 0.770E+00   0.824E-02 -.115E-01 -.797E-02
   0.537E+02 -.463E+02 -.495E+00   -.532E+02 0.458E+02 -.357E-01   -.508E+00 0.483E+00 0.570E+00   0.614E-02 -.110E-01 -.173E-01
   -.756E+02 0.143E+01 0.157E+04   0.752E+02 -.128E+01 -.157E+04   0.395E+00 -.645E-01 -.332E-01   0.603E-02 -.455E-02 -.573E-02
   -.115E+02 0.203E+02 0.164E+04   0.119E+02 -.205E+02 -.164E+04   -.341E+00 0.200E+00 -.413E+00   -.312E-02 -.137E-01 -.454E-02
   -.987E+02 -.336E+01 0.312E+04   0.992E+02 0.343E+01 -.312E+04   -.549E+00 -.582E-01 -.114E+01   0.118E-01 0.638E-02 0.263E-02
   0.711E+02 -.553E+02 0.312E+04   -.714E+02 0.559E+02 -.312E+04   0.295E+00 -.545E+00 -.682E+00   -.427E-02 0.152E-01 0.213E-02
   0.129E+02 -.447E+02 0.156E+04   -.126E+02 0.444E+02 -.156E+04   -.381E+00 0.234E+00 0.374E-01   -.201E-02 0.208E-01 0.901E-02
   0.502E+02 0.200E+01 0.161E+04   -.498E+02 -.193E+01 -.161E+04   -.479E+00 -.137E-01 -.485E-01   0.181E-02 -.233E-02 0.341E-02
   -.447E+02 -.846E+02 -.157E+04   0.446E+02 0.848E+02 0.157E+04   0.819E-01 -.235E+00 0.869E+00   -.688E-02 -.314E-02 -.111E-01
   -.583E+02 0.293E+02 0.311E+04   0.586E+02 -.288E+02 -.310E+04   -.365E+00 -.533E+00 -.182E+01   0.107E-01 -.108E-01 0.233E-02
   -.480E+02 0.704E+02 0.748E+02   0.484E+02 -.701E+02 -.751E+02   -.315E+00 -.325E+00 0.162E+00   0.598E-02 -.548E-02 -.146E-01
   -.197E+01 0.660E+02 -.246E+01   0.194E+01 -.652E+02 0.242E+01   0.690E-01 -.856E+00 -.577E-01   0.366E-03 0.822E-02 -.210E-01
   0.409E+02 0.114E+02 -.333E+02   -.405E+02 -.108E+02 0.331E+02   -.366E+00 -.608E+00 0.112E+00   -.696E-03 0.159E-01 -.246E-01
   0.304E+02 -.432E+02 0.300E+02   -.307E+02 0.427E+02 -.302E+02   0.340E+00 0.477E+00 0.234E+00   -.564E-02 -.107E-01 -.245E-01
   0.104E+01 -.985E+00 -.354E+03   -.949E+00 0.107E+01 0.355E+03   -.139E+00 -.968E-01 -.176E+01   -.458E-03 -.460E-03 0.201E-03
 -----------------------------------------------------------------------------------------------
   -.158E+01 -.532E+00 -.706E+01   -.242E-12 0.209E-12 -.268E-10   0.161E+01 0.538E+00 0.756E+01   -.926E-02 -.120E-02 -.550E+00
 
 
 POSITION                                       TOTAL-FORCE (eV/Angst)
 -----------------------------------------------------------------------------------
     12.82798      7.95221      6.99987         0.022378     -0.010625     -0.002534
      5.05710      7.99801      6.96630         0.001257     -0.002100      0.016901
      4.91624      3.44654      7.05426         0.002721     -0.001834      0.003791
     14.18678      8.70846      9.40820        -0.005414      0.010354      0.024870
      3.70886      4.18346      9.46619        -0.001365      0.003095      0.002424
      6.34070      8.70699      9.29772        -0.000254      0.008707      0.021252
     11.58449      4.15229      9.55328         0.018150     -0.015290     -0.004398
      8.94722      8.70203      9.27764        -0.008422     -0.005022     -0.004872
     10.25890      1.89688      9.25625         0.004488      0.015202     -0.002306
      2.41959      1.90748      9.33648         0.007493     -0.003865      0.005964
     11.56961      8.70050      9.36047         0.003546      0.007167     -0.005080
     12.88630      6.44259      9.41126        -0.008066     -0.009306     -0.019650
      5.02168      1.89367      9.37652         0.007722      0.002773      0.010402
      7.64362      6.45973      9.33738         0.018646     -0.008980     -0.015664
      8.94177      4.16063      9.37851        -0.020422     -0.000451      0.019301
      5.03032      6.43777      9.43343        -0.003221      0.000691      0.018605
      7.64486      1.90200      9.30846        -0.000212     -0.020796     -0.002869
      7.71009      3.41000      7.00648         0.006345      0.014518     -0.003131
      6.25246      1.12779      6.94146        -0.005255      0.011058      0.000309
      6.36060      1.11842      0.83643        -0.002882     -0.003071     -0.007961
      3.67604      4.17054      2.79730         0.000704      0.008746     -0.010855
      1.16960      1.24547      6.91028        -0.004064      0.000472      0.022008
      1.12703      1.17594      0.69812        -0.029489      0.007622     -0.005042
      6.37362      8.68069      2.88743        -0.007375     -0.003754     -0.007743
      6.32909      4.17700      9.45201         0.009602     -0.000431     -0.015329
      7.60189      4.94104      4.81158         0.061845     -0.064225      0.026411
     10.24893      6.46828      9.43285         0.006575      0.021495      0.009442
     14.13769      7.16055      4.86796        -0.004397     -0.031297     -0.056335
     11.55246      5.62411      7.04404        -0.004937      0.001621      0.019988
      6.35596      5.71614      7.01723         0.000603      0.002419      0.016644
      3.59772      2.55377      4.95823        -0.029416      0.012896      0.018244
     10.26754      4.96975      4.85148        -0.001874     -0.016307      0.094229
      3.72221      5.70824      7.18584         0.007053      0.010786      0.003869
     12.85228      7.80762      0.88868        -0.005462      0.009111     -0.001017
      5.11408      7.84972      0.79309         0.011664      0.015452      0.014780
      3.77023      5.68258      0.76914         0.009005     -0.004812     -0.009746
      7.70970      1.99756      2.81572        -0.017637     -0.018583     -0.022806
      8.99527      8.65169      2.84555        -0.000623     -0.002486     -0.019511
      2.38000      3.47338      7.18234        -0.007131     -0.004162      0.003043
      2.33777      3.46419      0.78556         0.003981      0.003823     -0.009587
     10.24620      1.95217      2.80512        -0.020905     -0.018181     -0.021347
     12.84195      4.93745      4.92144        -0.027772     -0.019704      0.034189
      3.70818      1.05047      7.07918        -0.005804     -0.000091      0.011939
      8.95870      5.70750      7.11186         0.002752      0.004920     -0.015681
      3.71395      1.08784      0.82514         0.000847     -0.004512      0.014789
      8.99829      5.66522      0.92800         0.006354      0.004309     -0.002597
      5.06743      3.44147      0.81265         0.003051      0.025730      0.003828
     11.51727      8.61665      2.89228        -0.001605     -0.024315      0.010114
     11.54465      7.19978      4.83241        -0.006605      0.024923     -0.019257
     12.75801      6.40091      2.81726         0.022313     -0.000664     -0.009334
      8.95770      4.17295      2.77896        -0.010719      0.015828     -0.000978
      7.70420      7.93563      6.98680        -0.000973     -0.002060      0.006886
      7.73138      7.86096      0.86088        -0.007686      0.006175      0.001985
     10.29450      6.46618      2.80924        -0.001466      0.006410     -0.019750
      2.48849      0.26233      4.99690         0.015523      0.014188     -0.044588
      7.67241      3.44637      0.72761        -0.007143     -0.014000      0.011165
      5.03303      1.85843      2.89234        -0.022196      0.004711      0.006961
      5.10108      6.38920      2.87489        -0.008083      0.002207      0.000769
      7.63667      0.45282      4.84968         0.001041     -0.010452     -0.019266
      8.96907      1.17269      6.98036         0.014954     -0.003549      0.002107
     10.19871      7.90653      6.98480         0.001685     -0.012284      0.000675
      8.97178      1.11591      0.72200         0.004611     -0.006642      0.011003
     10.26234      7.88162      0.76497        -0.013247     -0.000412      0.015288
      5.00242      4.91318      4.93522         0.010463     -0.014068     -0.047973
     11.50288      2.67887      4.85730         0.026240      0.014115     -0.015749
     14.15581      8.72502      2.82041         0.005843      0.000386     -0.007658
      8.97964      2.61894      4.90350        -0.038397      0.030748      0.035216
      6.30589      2.63413      4.85503         0.010944      0.016579     -0.039307
     11.54224      4.13511      2.79014         0.005166      0.012327     -0.001637
      2.41993      1.87995      2.81735         0.016611      0.020734      0.022219
     11.54338      5.63874      0.85840         0.009898      0.018695     -0.020017
      6.38743      5.66222      0.89172        -0.008499      0.008598     -0.010395
      7.74928      6.43552      2.82185        -0.011668      0.014309     -0.009448
      6.36172      4.09062      2.75984        -0.010734      0.005298      0.006648
     10.27914      3.42836      7.05791         0.007239     -0.002056     -0.015200
     10.24544      3.41772      0.83401         0.000858     -0.007355     -0.013739
     10.26946      0.46989      4.86907        -0.000067     -0.008456     -0.019766
      8.95807      7.22027      4.93062         0.020855     -0.016027     -0.005046
      6.39295      7.22925      4.93874         0.018045     -0.005602     -0.012648
      4.99996      0.28300      4.87997         0.005240     -0.002119      0.036018
     10.11069      4.93914     10.49036        -0.042824     -0.019253      0.013545
 -----------------------------------------------------------------------------------
    total drift:                                0.015557      0.004684     -0.044662


--------------------------------------------------------------------------------------------------------



  FREE ENERGIE OF THE ION-ELECTRON SYSTEM (eV)
  ---------------------------------------------------
  free  energy   TOTEN  =      -511.40360699 eV

  energy  without entropy=     -511.41778119  energy(sigma->0) =     -511.40833173
 
 d Force = 0.1250440E-02[ 0.739E-03, 0.176E-02]  d Energy = 0.1210057E-02 0.404E-04
 d Force =-0.1841158E+01[-0.185E+01,-0.184E+01]  d Ewald  =-0.1841158E+01 0.418E-06


--------------------------------------------------------------------------------------------------------


    POTLOK:  cpu time    0.3846: real time    0.3862


--------------------------------------------------------------------------------------------------------


 Conjugate gradient step on ions:
 trial-energy change:   -0.001210  1 .order   -0.001250   -0.001762   -0.000739
  (g-gl).g = 0.165E-02      g.g   = 0.160E-02  gl.gl    = 0.341E-02
 g(Force)  = 0.160E-02   g(Stress)= 0.000E+00 ortho     =-0.174E-03
 gamma     =   0.48356
 trial     =   1.16580
 opt step  =   2.00831  (harmonic =   2.00831) maximal distance =0.01211262
 next E    =  -511.403914   (d E  =  -0.00152)


--------------------------------------------------------------------------------------------------------


  
 reached required accuracy - stopping structural energy minimisation
     LOOP+:  cpu time  633.6636: real time  635.8049
    4ORBIT:  cpu time    0.0000: real time    0.0000

 total amount of memory used by VASP MPI-rank0   221618. kBytes
=======================================================================

   base      :      30000. kBytes
   nonlr-proj:      32064. kBytes
   fftplans  :      14920. kBytes
   grid      :      45762. kBytes
   one-center:        653. kBytes
   wavefun   :      98219. kBytes
 
  
  
 General timing and accounting informations for this job:
 ========================================================
  
                  Total CPU time used (sec):    16064.354
                            User time (sec):    15602.267
                          System time (sec):      462.087
                         Elapsed time (sec):    16144.944
  
                   Maximum memory used (kb):      416904.
                   Average memory used (kb):           0.
  
                          Minor page faults:      3436233
                          Major page faults:          241
                 Voluntary context switches:        10323
