 vasp.5.4.4.18Apr17-6-g9f103f2a35 (build Nov 30 2020 22:55:02) complex          
  
 executed on             LinuxIFC date 2022.03.26  15:28:26
 running on   40 total cores
 distrk:  each k-point on   40 cores,    1 groups
 distr:  one band on NCORES_PER_BAND=   1 cores,   40 groups


--------------------------------------------------------------------------------------------------------


 INCAR:
 POTCAR:    PAW_PBE Pt 04Feb2005                  
 POTCAR:    PAW_PBE H 15Jun2001                   

 ----------------------------------------------------------------------------- 
|                                                                             |
|           W    W    AA    RRRRR   N    N  II  N    N   GGGG   !!!           |
|           W    W   A  A   R    R  NN   N  II  NN   N  G    G  !!!           |
|           W    W  A    A  R    R  N N  N  II  N N  N  G       !!!           |
|           W WW W  AAAAAA  RRRRR   N  N N  II  N  N N  G  GGG   !            |
|           WW  WW  A    A  R   R   N   NN  II  N   NN  G    G                |
|           W    W  A    A  R    R  N    N  II  N    N   GGGG   !!!           |
|                                                                             |
|      For optimal performance we recommend to set                            |
|        NCORE= 4 - approx SQRT( number of cores)                             |
|      NCORE specifies how many cores store one orbital (NPAR=cpu/NCORE).     |
|      This setting can  greatly improve the performance of VASP for DFT.     |
|      The default,   NCORE=1            might be grossly inefficient         |
|      on modern multi-core architectures or massively parallel machines.     |
|      Do your own testing !!!!                                               |
|      Unfortunately you need to use the default for GW and RPA calculations. |
|      (for HF NCORE is supported but not extensively tested yet)             |
|                                                                             |
 ----------------------------------------------------------------------------- 

 POTCAR:    PAW_PBE Pt 04Feb2005                  
   VRHFIN =Pt: s1d9                                                             
   LEXCH  = PE                                                                  
   EATOM  =   729.1176 eV,   53.5886 Ry                                         
                                                                                
   TITEL  = PAW_PBE Pt 04Feb2005                                                
   LULTRA =        F    use ultrasoft PP ?                                      
   IUNSCR =        1    unscreen: 0-lin 1-nonlin 2-no                           
   RPACOR =    2.330    partial core radius                                     
   POMASS =  195.080; ZVAL   =   10.000    mass and valenz                      
   RCORE  =    2.600    outmost cutoff radius                                   
   RWIGS  =    2.750; RWIGS  =    1.455    wigner-seitz radius (au A)           
   ENMAX  =  230.283; ENMIN  =  172.712 eV                                      
   ICORE  =        3    local potential                                         
   LCOR   =        T    correct aug charges                                     
   LPAW   =        T    paw PP                                                  
   EAUG   =  358.966                                                            
   DEXC   =    0.000                                                            
   RMAX   =    2.658    core radius for proj-oper                               
   RAUG   =    1.300    factor for augmentation sphere                          
   RDEP   =    2.761    radius for radial grids                                 
   RDEPT  =    2.203    core radius for aug-charge                              
                                                                                
   Atomic configuration                                                         
   16 entries                                                                   
     n  l   j            E        occ.                                          
     1  0  0.50    -78401.1885   2.0000                                         
     2  0  0.50    -13770.7750   2.0000                                         
     2  1  1.50    -11931.0468   6.0000                                         
     3  0  0.50     -3234.7234   2.0000                                         
     3  1  1.50     -2699.2216   6.0000                                         
     3  2  2.50     -2119.5714  10.0000                                         
     4  0  0.50      -695.1528   2.0000                                         
     4  1  1.50      -519.6034   6.0000                                         
     4  2  2.50      -306.6786  10.0000                                         
     4  3  3.50       -70.1041  14.0000                                         
     5  0  0.50      -101.7747   2.0000                                         
     5  1  1.50       -55.9873   6.0000                                         
     5  2  2.50        -6.1423   9.0000                                         
     6  0  0.50        -5.6573   1.0000                                         
     6  1  1.50        -6.8029   0.0000                                         
     5  3  2.50        -1.3606   0.0000                                         
   Description                                                                  
     l       E           TYP  RCUT    TYP  RCUT                                 
     2     -6.1423404     23  2.500                                             
     2     -7.5029230     23  2.500                                             
     0     -5.6573207     23  2.500                                             
     0      0.7416693     23  2.500                                             
     1     -2.7211652     23  2.600                                             
     1     20.4087390     23  2.600                                             
     3     -1.3605826     23  2.500                                             
  local pseudopotential read in
  partial core-charges read in
  partial kinetic energy density read in
  atomic valenz-charges read in
  non local Contribution for L=           2  read in
    real space projection operators read in
  non local Contribution for L=           2  read in
    real space projection operators read in
  non local Contribution for L=           0  read in
    real space projection operators read in
  non local Contribution for L=           0  read in
    real space projection operators read in
  non local Contribution for L=           1  read in
    real space projection operators read in
  non local Contribution for L=           1  read in
    real space projection operators read in
    PAW grid and wavefunctions read in
 
   number of l-projection  operators is LMAX  =           6
   number of lm-projection operators is LMMAX =          18
 
 POTCAR:    PAW_PBE H 15Jun2001                   
   VRHFIN =H: ultrasoft test                                                    
   LEXCH  = PE                                                                  
   EATOM  =    12.4884 eV,    0.9179 Ry                                         
                                                                                
   TITEL  = PAW_PBE H 15Jun2001                                                 
   LULTRA =        F    use ultrasoft PP ?                                      
   IUNSCR =        0    unscreen: 0-lin 1-nonlin 2-no                           
   RPACOR =    0.000    partial core radius                                     
   POMASS =    1.000; ZVAL   =    1.000    mass and valenz                      
   RCORE  =    1.100    outmost cutoff radius                                   
   RWIGS  =    0.700; RWIGS  =    0.370    wigner-seitz radius (au A)           
   ENMAX  =  250.000; ENMIN  =  200.000 eV                                      
   RCLOC  =    0.701    cutoff for local pot                                    
   LCOR   =        T    correct aug charges                                     
   LPAW   =        T    paw PP                                                  
   EAUG   =  400.000                                                            
   RMAX   =    1.123    core radius for proj-oper                               
   RAUG   =    1.200    factor for augmentation sphere                          
   RDEP   =    1.112    radius for radial grids                                 
   RDEPT  =    0.926    core radius for aug-charge                              
                                                                                
   Atomic configuration                                                         
    2 entries                                                                   
     n  l   j            E        occ.                                          
     1  0  0.50        -6.4927   1.0000                                         
     2  1  0.50        -3.4015   0.0000                                         
   Description                                                                  
     l       E           TYP  RCUT    TYP  RCUT                                 
     0     -6.4927494     23  1.100                                             
     0      6.8029130     23  1.100                                             
     1     -4.0817478     23  1.100                                             
  local pseudopotential read in
  atomic valenz-charges read in
  non local Contribution for L=           0  read in
    real space projection operators read in
  non local Contribution for L=           0  read in
    real space projection operators read in
  non local Contribution for L=           1  read in
    real space projection operators read in
    PAW grid and wavefunctions read in
 
   number of l-projection  operators is LMAX  =           3
   number of lm-projection operators is LMMAX =           5
 
 Optimization of the real space projectors (new method)

 maximal supplied QI-value         = 14.36
 optimisation between [QCUT,QGAM] = [ 11.92, 23.98] = [ 39.79,161.09] Ry 
 Optimized for a Real-space Cutoff    1.49 Angstroem

   l    n(q)    QCUT    max X(q) W(low)/X(q) W(high)/X(q)  e(spline) 
   2     10    11.920    66.195    0.79E-04    0.18E-03    0.24E-06
   2     10    11.920    64.643    0.81E-04    0.19E-03    0.24E-06
   0     11    11.920    95.520    0.28E-04    0.54E-04    0.18E-06
   0     11    11.920    63.403    0.27E-04    0.52E-04    0.17E-06
   1     10    11.920    19.961    0.18E-04    0.11E-03    0.23E-06
   1     10    11.920    13.289    0.25E-04    0.87E-04    0.19E-06
 Optimization of the real space projectors (new method)

 maximal supplied QI-value         = 34.20
 optimisation between [QCUT,QGAM] = [ 11.97, 23.94] = [ 40.13,160.53] Ry 
 Optimized for a Real-space Cutoff    1.18 Angstroem

   l    n(q)    QCUT    max X(q) W(low)/X(q) W(high)/X(q)  e(spline) 
   0      8    11.971    19.460    0.15E-03    0.31E-03    0.25E-06
   0      8    11.971    12.209    0.13E-03    0.29E-03    0.25E-06
   1      8    11.971     4.655    0.22E-03    0.24E-03    0.21E-06
  PAW_PBE Pt 04Feb2005                  :
 energy of atom  1       EATOM= -729.1176
 kinetic energy error for atom=    0.0021 (will be added to EATOM!!)
  PAW_PBE H 15Jun2001                   :
 energy of atom  2       EATOM=  -12.4884
 kinetic energy error for atom=    0.0008 (will be added to EATOM!!)
 
 
 POSCAR: Pt111                                   
  positions in cartesian coordinates
  No initial velocities read in
 exchange correlation table for  LEXCH =        8
   RHO(1)=    0.500       N(1)  =     2000
   RHO(2)=  100.500       N(2)  =     4000
 


--------------------------------------------------------------------------------------------------------


 ion  position               nearest neighbor table
   1  0.785  0.869  0.326-  55 2.76  20 2.76  71 2.76   3 2.80  43 2.80  73 2.80  56 2.80   2 2.81
                            72 2.81  27 2.84  34 2.84  35 2.84
   2  0.035  0.869  0.326-  65 2.76  55 2.76  68 2.76   3 2.80  57 2.80  72 2.80   1 2.81  23 2.81
                            47 2.81  27 2.83  29 2.84  39 2.85
   3  0.035  0.619  0.326-  12 2.76  55 2.76  76 2.76   1 2.80   2 2.80  57 2.80   9 2.81  56 2.81
                            15 2.81  35 2.84  28 2.84  39 2.85
   4  0.785  0.869  0.021-  78 2.79  21 2.79  19 2.80   5 2.80  58 2.80   6 2.80  75 2.80  44 2.80
                            74 2.80
   5  0.035  0.869  0.021-  78 2.79  70 2.79  49 2.79   4 2.80   6 2.80  74 2.80  59 2.81  24 2.81
                            48 2.81
   6  0.035  0.619  0.021-  70 2.79  21 2.79  46 2.79   5 2.80   4 2.80  58 2.80  59 2.81  18 2.81
                            10 2.81
   7  0.618  0.202  0.124-  79 2.73  80 2.73  71 2.74  44 2.79  74 2.79  42 2.79  19 2.80  53 2.81
                            78 2.81  61 2.81  22 2.81  11 2.81
   8  0.368  0.952  0.125-  66 2.73  26 2.74  69 2.74  16 2.78  75 2.79  24 2.79  60 2.80  53 2.80
                            25 2.80  54 2.81  19 2.81  49 2.81
   9  0.035  0.369  0.326-  62 2.76  12 2.76  77 2.76  63 2.80  15 2.80  56 2.80   3 2.81  13 2.81
                            47 2.81  33 2.83  28 2.84  30 2.84
  10  0.035  0.368  0.022-  45 2.78  46 2.79  54 2.80  16 2.80  48 2.80  18 2.80  64 2.81   6 2.81
                            58 2.81
  11  0.869  0.202  0.124-  79 2.73  65 2.74  77 2.74  48 2.79  74 2.79  64 2.79  49 2.80  54 2.80
                            78 2.81  45 2.81  22 2.81   7 2.81
  12  0.951  0.536  0.225-  46 2.74  45 2.74  21 2.74  56 2.76   3 2.76   9 2.76  20 2.80  67 2.80
                            55 2.80  77 2.80  62 2.81  76 2.81
  13  0.285  0.119  0.326-  62 2.76  69 2.76  26 2.76  23 2.80  15 2.80  47 2.80   9 2.81  73 2.81
                            43 2.81  33 2.83  36 2.84  31 2.84
  14  0.536  0.619  0.326-  67 2.75  66 2.75  51 2.76  56 2.80  37 2.80  73 2.80  38 2.81  63 2.81
                            41 2.81  57 2.82  23 2.82  52 2.85
  15  0.285  0.369  0.326-  62 2.74  76 2.76  80 2.76   9 2.80  13 2.80   3 2.81  43 2.81  57 2.81
                            41 2.82  36 2.84  28 2.84  50 2.84
  16  0.284  0.119  0.022-   8 2.78  53 2.79  54 2.79  48 2.79  10 2.80  24 2.81  18 2.81  75 2.81
                            44 2.81
  17  0.535  0.619  0.021-  22 2.79  60 2.79  25 2.79  42 2.80  59 2.80  64 2.81  24 2.81  75 2.81
                            58 2.81
  18  0.285  0.369  0.021-  61 2.79  46 2.79  53 2.79  10 2.80  16 2.81  42 2.81   6 2.81  59 2.81
                            44 2.81
  19  0.618  0.952  0.125-  71 2.73  20 2.73  69 2.74  44 2.79  75 2.79   4 2.80  78 2.80  25 2.80
                             7 2.80  21 2.80  53 2.81   8 2.81
  20  0.702  0.786  0.225-  19 2.73  21 2.73  25 2.74  73 2.76   1 2.76  56 2.76  12 2.80  66 2.80
                            55 2.80  67 2.80  69 2.80  71 2.81
  21  0.868  0.702  0.125-  55 2.73  20 2.73  12 2.74   6 2.79  58 2.79   4 2.79  78 2.80  70 2.80
                            19 2.80  25 2.81  46 2.81  45 2.81
  22  0.619  0.452  0.124-  51 2.73  79 2.74  67 2.74  42 2.79  64 2.79  17 2.79  45 2.81   7 2.81
                            11 2.81  25 2.81  61 2.81  60 2.81
  23  0.285  0.870  0.326-  26 2.74  66 2.76  68 2.76  47 2.80  13 2.80   2 2.81  73 2.81  57 2.81
                            14 2.82  37 2.84  29 2.84  31 2.84
  24  0.285  0.869  0.021-  60 2.79  49 2.79   8 2.79  59 2.80  48 2.81  16 2.81  17 2.81  75 2.81
                             5 2.81
  25  0.618  0.702  0.124-  66 2.73  67 2.73  20 2.74  75 2.78  58 2.79  17 2.79  19 2.80   8 2.80
                            21 2.81  60 2.81  22 2.81  45 2.81
  26  0.202  0.035  0.225-  54 2.73   8 2.74  23 2.74  49 2.74  47 2.76  13 2.76  68 2.80  66 2.81
                            65 2.81  69 2.81  62 2.81  77 2.81
  27  0.869  0.952  0.432-  97 1.85  87 1.85  96 1.85  29 2.81  32 2.81  35 2.81  34 2.81  39 2.82
                            40 2.82   2 2.83   1 2.84  72 2.84
  28  0.119  0.452  0.432-  90 1.85  88 1.86  89 1.86  39 2.80  36 2.80  35 2.81  33 2.81  30 2.82
                            50 2.84   3 2.84  15 2.84   9 2.84
  29  0.120  0.951  0.432-  94 1.85  97 1.85  84 1.86  39 2.80  31 2.80  27 2.81  33 2.81  32 2.82
                            37 2.83   2 2.84  23 2.84  47 2.84
  30  0.868  0.452  0.432-  93 1.84  89 1.85  83 1.85  52 2.80  32 2.80  35 2.81  33 2.81  28 2.82
                            38 2.83  56 2.84   9 2.84  63 2.85
  31  0.369  0.951  0.432-  94 1.85  95 1.86  85 1.86  29 2.80  52 2.80  34 2.81  33 2.81  36 2.82
                            37 2.83  73 2.83  13 2.84  23 2.84
  32  0.868  0.203  0.432-  97 1.86  92 1.86  93 1.86  40 2.80  30 2.80  27 2.81  33 2.81  29 2.82
                            38 2.83  47 2.84  72 2.84  63 2.84
  33  0.119  0.202  0.432-  94 1.85  90 1.85  93 1.86  32 2.81  30 2.81  36 2.81  29 2.81  28 2.81
                            31 2.81  13 2.83   9 2.83  47 2.84
  34  0.619  0.952  0.432-  96 1.85  95 1.85  86 1.85  35 2.81  31 2.81  36 2.81  27 2.81  52 2.82
                            40 2.83  73 2.84   1 2.84  43 2.84
  35  0.869  0.702  0.432-  87 1.85  89 1.85  86 1.86  28 2.81  30 2.81  34 2.81  27 2.81  52 2.82
                            39 2.82   3 2.84  56 2.84   1 2.84
  36  0.369  0.203  0.432-  90 1.85  95 1.85  91 1.86  28 2.80  40 2.80  34 2.81  33 2.81  31 2.82
                            43 2.83  50 2.84  13 2.84  15 2.84
  37  0.371  0.698  0.430-  84 1.86  85 1.86  50 2.73  38 2.74  52 2.79  39 2.79  14 2.80  57 2.80
                            31 2.83  29 2.83  23 2.84
  38  0.615  0.454  0.430-  92 1.86  83 1.86  50 2.74  37 2.74  52 2.79  40 2.79  14 2.81  41 2.81
                            30 2.83  32 2.83  63 2.84
  39  0.121  0.701  0.432-  84 1.85  88 1.85  87 1.86  37 2.79  50 2.79  29 2.80  28 2.80  27 2.82
                            35 2.82  57 2.84   3 2.85   2 2.85
  40  0.618  0.204  0.432-  92 1.85  91 1.85  96 1.86  50 2.79  38 2.79  32 2.80  36 2.80  27 2.82
                            34 2.83  41 2.84  72 2.85  43 2.85
  41  0.536  0.369  0.326-  80 2.75  79 2.75  51 2.76  72 2.80  50 2.81  43 2.81  38 2.81  14 2.81
                            57 2.81  63 2.81  15 2.82  40 2.84
  42  0.535  0.369  0.021-  22 2.79  61 2.79   7 2.79  17 2.80  64 2.81  18 2.81  44 2.81  59 2.81
                            74 2.81
  43  0.536  0.119  0.326-  71 2.76  69 2.76  80 2.76   1 2.80  72 2.80  41 2.81  73 2.81  13 2.81
                            15 2.81  36 2.83  34 2.84  40 2.85
  44  0.535  0.119  0.021-   7 2.79  19 2.79  53 2.79  74 2.80   4 2.80  75 2.80  42 2.81  18 2.81
                            16 2.81
  45  0.869  0.452  0.124-  67 2.73  12 2.74  77 2.74  10 2.78  58 2.79  64 2.79  46 2.80  54 2.80
                            22 2.81  11 2.81  21 2.81  25 2.81
  46  0.118  0.452  0.125-  76 2.73  62 2.74  12 2.74  10 2.79  18 2.79   6 2.79  45 2.80  61 2.80
                            70 2.80  54 2.81  53 2.81  21 2.81
  47  0.035  0.119  0.326-  26 2.76  77 2.76  65 2.76  23 2.80  63 2.80  13 2.80  72 2.81   2 2.81
                             9 2.81  33 2.84  32 2.84  29 2.84
  48  0.035  0.119  0.021-  11 2.79  49 2.79  16 2.79  10 2.80  54 2.80  24 2.81  64 2.81  74 2.81
                             5 2.81
  49  0.118  0.952  0.124-  68 2.73  65 2.74  26 2.74  48 2.79  24 2.79   5 2.79  60 2.80  11 2.80
                            54 2.81   8 2.81  70 2.81  78 2.81
  50  0.371  0.454  0.430-  88 1.85  91 1.85  37 2.73  38 2.74  40 2.79  39 2.79  41 2.81  57 2.81
                            28 2.84  36 2.84  15 2.84
  51  0.452  0.536  0.224-  61 2.73  22 2.73  60 2.73  57 2.76  41 2.76  14 2.76  66 2.80  80 2.80
                            67 2.80  79 2.80  68 2.81  76 2.81
  52  0.618  0.701  0.433-  85 1.84  83 1.84  86 1.85  38 2.79  37 2.79  30 2.80  31 2.80  34 2.82
                            35 2.82  14 2.85  56 2.85  73 2.85
  53  0.368  0.202  0.125-  80 2.74  69 2.74  62 2.74  16 2.79  18 2.79  44 2.79  61 2.80   8 2.80
                             7 2.81  54 2.81  19 2.81  46 2.81
  54  0.118  0.202  0.125-  26 2.73  62 2.73  77 2.73  16 2.79  10 2.80  48 2.80  45 2.80  11 2.80
                            46 2.81   8 2.81  53 2.81  49 2.81
  55  0.952  0.786  0.225-  21 2.73  78 2.74  70 2.74   1 2.76   3 2.76   2 2.76  20 2.80  71 2.80
                            12 2.80  76 2.80  68 2.81  65 2.81
  56  0.785  0.619  0.326-  12 2.76  20 2.76  67 2.77  14 2.80  73 2.80  63 2.80   9 2.80   1 2.80
                             3 2.81  35 2.84  30 2.84  52 2.85
  57  0.285  0.619  0.325-  76 2.75  68 2.75  51 2.76   2 2.80  37 2.80   3 2.80  50 2.81  15 2.81
                            41 2.81  23 2.81  14 2.82  39 2.84
  58  0.785  0.619  0.021-  25 2.79  21 2.79  45 2.79  75 2.80   4 2.80   6 2.80  17 2.81  64 2.81
                            10 2.81
  59  0.285  0.619  0.021-  60 2.79  70 2.79  61 2.79  24 2.80  17 2.80   5 2.81   6 2.81  42 2.81
                            18 2.81
  60  0.368  0.703  0.124-  51 2.73  68 2.73  66 2.74  24 2.79  59 2.79  17 2.79  49 2.80   8 2.80
                            25 2.81  70 2.81  22 2.81  61 2.81
  61  0.368  0.452  0.124-  51 2.73  80 2.74  76 2.74  18 2.79  42 2.79  59 2.79  53 2.80  46 2.80
                             7 2.81  70 2.81  22 2.81  60 2.81
  62  0.202  0.286  0.225-  54 2.73  46 2.74  53 2.74  15 2.74   9 2.76  13 2.76  76 2.80  12 2.81
                            80 2.81  69 2.81  77 2.81  26 2.81
  63  0.786  0.369  0.326-  77 2.74  67 2.76  79 2.76   9 2.80  47 2.80  56 2.80  72 2.81  14 2.81
                            41 2.81  32 2.84  38 2.84  30 2.85
  64  0.785  0.369  0.021-  22 2.79  11 2.79  45 2.79  42 2.81  17 2.81  48 2.81  10 2.81  74 2.81
                            58 2.81
  65  0.952  0.036  0.225-  11 2.74  49 2.74  78 2.74  72 2.76   2 2.76  47 2.76  71 2.81  79 2.81
                            26 2.81  77 2.81  68 2.81  55 2.81
  66  0.452  0.785  0.225-  25 2.73   8 2.73  60 2.74  14 2.75  23 2.76  73 2.76  67 2.80  20 2.80
                            51 2.80  26 2.81  69 2.81  68 2.81
  67  0.702  0.536  0.224-  25 2.73  45 2.73  22 2.74  14 2.75  63 2.76  56 2.77  66 2.80  77 2.80
                            12 2.80  20 2.80  51 2.80  79 2.81
  68  0.202  0.785  0.224-  70 2.73  60 2.73  49 2.73  57 2.75  23 2.76   2 2.76  76 2.80  26 2.80
                            51 2.81  55 2.81  65 2.81  66 2.81
  69  0.452  0.036  0.225-  19 2.74   8 2.74  53 2.74  43 2.76  13 2.76  73 2.76  20 2.80  66 2.81
                            71 2.81  26 2.81  80 2.81  62 2.81
  70  0.118  0.702  0.124-  68 2.73  76 2.73  55 2.74   6 2.79   5 2.79  59 2.79  21 2.80  78 2.80
                            46 2.80  61 2.81  60 2.81  49 2.81
  71  0.702  0.036  0.225-  19 2.73  78 2.73   7 2.74  43 2.76  72 2.76   1 2.76  55 2.80  80 2.81
                            20 2.81  65 2.81  69 2.81  79 2.81
  72  0.785  0.119  0.326-  65 2.76  71 2.76  79 2.76  41 2.80  43 2.80   2 2.80  47 2.81   1 2.81
                            63 2.81  32 2.84  27 2.84  40 2.85
  73  0.536  0.869  0.326-  20 2.76  69 2.76  66 2.76  56 2.80  14 2.80   1 2.80  43 2.81  13 2.81
                            23 2.81  31 2.83  34 2.84  52 2.85
  74  0.785  0.119  0.021-  78 2.79   7 2.79  11 2.79  44 2.80   5 2.80   4 2.80  42 2.81  64 2.81
                            48 2.81
  75  0.535  0.869  0.021-  25 2.78  19 2.79   8 2.79  58 2.80   4 2.80  44 2.80  17 2.81  24 2.81
                            16 2.81
  76  0.202  0.536  0.225-  46 2.73  70 2.73  61 2.74  57 2.75  15 2.76   3 2.76  68 2.80  62 2.80
                            55 2.80  51 2.81  12 2.81  80 2.81
  77  0.951  0.286  0.225-  54 2.73  45 2.74  63 2.74  11 2.74  47 2.76   9 2.76  79 2.80  67 2.80
                            12 2.80  65 2.81  62 2.81  26 2.81
  78  0.868  0.952  0.124-  71 2.73  55 2.74  65 2.74  74 2.79   5 2.79   4 2.79  21 2.80  19 2.80
                            70 2.80   7 2.81  11 2.81  49 2.81
  79  0.702  0.286  0.224-   7 2.73  11 2.73  22 2.74  41 2.75  63 2.76  72 2.76  80 2.80  77 2.80
                            51 2.80  65 2.81  71 2.81  67 2.81
  80  0.452  0.286  0.225-   7 2.73  53 2.74  61 2.74  41 2.75  15 2.76  43 2.76  79 2.80  51 2.80
                            71 2.81  62 2.81  69 2.81  76 2.81
  81  0.473  0.556  0.569-  82 0.75
  82  0.511  0.588  0.584-  81 0.75
  83  0.701  0.534  0.473-  52 1.84  30 1.85  38 1.86
  84  0.206  0.783  0.472-  39 1.85  29 1.86  37 1.86
  85  0.452  0.783  0.473-  52 1.84  31 1.86  37 1.86
  86  0.701  0.785  0.473-  52 1.85  34 1.85  35 1.86
  87  0.953  0.785  0.473-  27 1.85  35 1.85  39 1.86
  88  0.206  0.534  0.472-  39 1.85  50 1.85  28 1.86
  89  0.952  0.535  0.473-  30 1.85  35 1.85  28 1.86
  90  0.202  0.286  0.473-  28 1.85  36 1.85  33 1.85
  91  0.451  0.289  0.472-  40 1.85  50 1.85  36 1.86
  92  0.700  0.289  0.472-  40 1.85  38 1.86  32 1.86
  93  0.952  0.287  0.473-  30 1.84  33 1.86  32 1.86
  94  0.202  0.035  0.473-  29 1.85  31 1.85  33 1.85
  95  0.452  0.036  0.473-  34 1.85  36 1.85  31 1.86
  96  0.702  0.036  0.472-  34 1.85  27 1.85  40 1.86
  97  0.952  0.035  0.473-  27 1.85  29 1.85  32 1.86
 
  LATTYP: Found a hexagonal cell.
 ALAT       =    11.2227001190
 C/A-ratio  =     1.9603125600
  
  Lattice vectors:
  
 A1 = (   5.6113500595,  -9.7191434021,   0.0000000000)
 A2 = ( -11.2227001190,   0.0000000000,   0.0000000000)
 A3 = (   0.0000000000,   0.0000000000, -22.0000000000)


Analysis of symmetry for initial positions (statically):
=====================================================================
 Subroutine PRICEL returns:
 Original cell was already a primitive cell.
 

 Routine SETGRP: Setting up the symmetry group for a 
 hexagonal supercell.


 Subroutine GETGRP returns: Found  1 space group operations
 (whereof  1 operations were pure point group operations)
 out of a pool of 24 trial point group operations.


The static configuration has the point symmetry C_1 .


Analysis of symmetry for dynamics (positions and initial velocities):
=====================================================================
 Subroutine PRICEL returns:
 Original cell was already a primitive cell.
 

 Routine SETGRP: Setting up the symmetry group for a 
 hexagonal supercell.


 Subroutine GETGRP returns: Found  1 space group operations
 (whereof  1 operations were pure point group operations)
 out of a pool of 24 trial point group operations.


The dynamic configuration has the point symmetry C_1 .


Analysis of constrained symmetry for selective dynamics:
=====================================================================
 Subroutine PRICEL returns:
 Original cell was already a primitive cell.
 

 Routine SETGRP: Setting up the symmetry group for a 
 hexagonal supercell.


 Subroutine GETGRP returns: Found  1 space group operations
 (whereof  1 operations were pure point group operations)
 out of a pool of 24 trial point group operations.


The constrained configuration has the point symmetry C_1 .


Analysis of structural, dynamic, and magnetic symmetry:
=====================================================================
 Subroutine PRICEL returns:
 Original cell was already a primitive cell.
 

 Routine SETGRP: Setting up the symmetry group for a 
 hexagonal supercell.


 Subroutine GETGRP returns: Found  1 space group operations
 (whereof  1 operations were pure point group operations)
 out of a pool of 24 trial point group operations.


The magnetic configuration has the point symmetry C_1 .


 Subroutine INISYM returns: Found  1 space group operations
 (whereof  1 operations are pure point group operations),
 and found     1 'primitive' translations

 
 
 KPOINTS: mesh auto                               

Automatic generation of k-mesh.
Space group operators:
 irot       det(A)        alpha          n_x          n_y          n_z        tau_x        tau_y        tau_z
    1     1.000000     0.000000     1.000000     0.000000     0.000000     0.000000     0.000000     0.000000
 
 Subroutine IBZKPT returns following result:
 ===========================================
 
 Found      4 irreducible k-points:
 
 Following reciprocal coordinates:
            Coordinates               Weight
  0.000000  0.000000  0.000000      1.000000
  0.500000  0.000000  0.000000      1.000000
  0.000000  0.500000  0.000000      1.000000
  0.500000  0.500000  0.000000      1.000000
 
 Following cartesian coordinates:
            Coordinates               Weight
  0.000000  0.000000  0.000000      1.000000
  0.044553 -0.025722  0.000000      1.000000
  0.000000  0.051445  0.000000      1.000000
  0.044553  0.025722  0.000000      1.000000
 
 
 Subroutine IBZKPT_HF returns following result:
 ==============================================
 
 Found      4 k-points in 1st BZ
 the following      4 k-points will be used (e.g. in the exchange kernel)
 Following reciprocal coordinates:   # in IRBZ
  0.000000  0.000000  0.000000    0.25000000   1 t-inv F
  0.500000  0.000000  0.000000    0.25000000   2 t-inv F
  0.000000  0.500000  0.000000    0.25000000   3 t-inv F
  0.500000  0.500000  0.000000    0.25000000   4 t-inv F


--------------------------------------------------------------------------------------------------------




 Dimension of arrays:
   k-points           NKPTS =      4   k-points in BZ     NKDIM =      4   number of bands    NBANDS=    560
   number of dos      NEDOS =    301   number of ions     NIONS =     97
   non local maximal  LDIM  =      6   non local SUM 2l+1 LMDIM =     18
   total plane-waves  NPLWV = ******
   max r-space proj   IRMAX =   7929   max aug-charges    IRDMAX=  34542
   dimension x,y,z NGX =    90 NGY =   90 NGZ =  168
   dimension x,y,z NGXF=   180 NGYF=  180 NGZF=  336
   support grid    NGXF=   180 NGYF=  180 NGZF=  336
   ions per type =              80  17
   NGX,Y,Z   is equivalent  to a cutoff of  13.33, 13.33, 12.70 a.u.
   NGXF,Y,Z  is equivalent  to a cutoff of  26.66, 26.66, 25.39 a.u.

 SYSTEM =  Pt111                                   
 POSCAR =  Pt111                                   

 Startparameter for this run:
   NWRITE =      2    write-flag & timer
   PREC   = accura    normal or accurate (medium, high low for compatibility)
   ISTART =      0    job   : 0-new  1-cont  2-samecut
   ICHARG =      2    charge: 1-file 2-atom 10-const
   ISPIN  =      2    spin polarized calculation?
   LNONCOLLINEAR =      F non collinear calculations
   LSORBIT =      F    spin-orbit coupling
   INIWAV =      1    electr: 0-lowe 1-rand  2-diag
   LASPH  =      F    aspherical Exc in radial PAW
   METAGGA=      F    non-selfconsistent MetaGGA calc.

 Electronic Relaxation 1
   ENCUT  =  550.0 eV  40.42 Ry    6.36 a.u.  21.46 21.46 42.07*2*pi/ulx,y,z
   ENINI  =  550.0     initial cutoff
   ENAUG  =  400.0 eV  augmentation charge cutoff
   NELM   =    200;   NELMIN=  2; NELMDL= -5     # of ELM steps 
   EDIFF  = 0.1E-04   stopping-criterion for ELM
   LREAL  =      T    real-space projection
   NLSPLINE    = F    spline interpolate recip. space projectors
   LCOMPAT=      F    compatible to vasp.4.4
   GGA_COMPAT  = T    GGA compatible to vasp.4.4-vasp.4.6
   LMAXPAW     = -100 max onsite density
   LMAXMIX     =    2 max onsite mixed and CHGCAR
   VOSKOWN=      0    Vosko Wilk Nusair interpolation
   ROPT   =   -0.00025  -0.00025
 Ionic relaxation
   EDIFFG = -.5E-01   stopping-criterion for IOM
   NSW    =   1201    number of steps for IOM
   NBLOCK =      1;   KBLOCK =   1201    inner block; outer block 
   IBRION =      5    ionic relax: 0-MD 1-quasi-New 2-CG
   NFREE  =      2    steps in history (QN), initial steepest desc. (CG)
   ISIF   =      2    stress and relaxation
   IWAVPR =     11    prediction:  0-non 1-charg 2-wave 3-comb
   ISYM   =      2    0-nonsym 1-usesym 2-fastsym
   LCORR  =      T    Harris-Foulkes like correction to forces

   POTIM  = 0.5000    time-step for ionic-motion
   TEIN   =    0.0    initial temperature
   TEBEG  =    0.0;   TEEND  =   0.0 temperature during run
   SMASS  =  -3.00    Nose mass-parameter (am)
   estimated Nose-frequenzy (Omega)   =  0.10E-29 period in steps =****** mass=  -0.288E-26a.u.
   SCALEE = 1.0000    scale energy and forces
   NPACO  =    256;   APACO  = 16.0  distance and # of slots for P.C.
   PSTRESS=    0.0 pullay stress

  Mass of Ions in am
   POMASS = 195.08  1.00
  Ionic Valenz
   ZVAL   =  10.00  1.00
  Atomic Wigner-Seitz radii
   RWIGS  =  -1.00 -1.00
  virtual crystal weights 
   VCA    =   1.00  1.00
   NELECT =     817.0000    total number of electrons
   NUPDOWN=      -1.0000    fix difference up-down

 DOS related values:
   EMIN   =  10.00;   EMAX   =-10.00  energy-range for DOS
   EFERMI =   0.00
   ISMEAR =     1;   SIGMA  =   0.10  broadening in eV -4-tet -1-fermi 0-gaus

 Electronic relaxation 2 (details)
   IALGO  =     68    algorithm
   LDIAG  =      T    sub-space diagonalisation (order eigenvalues)
   LSUBROT=      F    optimize rotation matrix (better conditioning)
   TURBO    =      0    0=normal 1=particle mesh
   IRESTART =      0    0=no restart 2=restart with 2 vectors
   NREBOOT  =      0    no. of reboots
   NMIN     =      0    reboot dimension
   EREF     =   0.00    reference energy to select bands
   IMIX   =      4    mixing-type and parameters
     AMIX     =   0.40;   BMIX     =  1.00
     AMIX_MAG =   1.60;   BMIX_MAG =  1.00
     AMIN     =   0.10
     WC   =   100.;   INIMIX=   1;  MIXPRE=   1;  MAXMIX= -45

 Intra band minimization:
   WEIMIN = 0.0010     energy-eigenvalue tresh-hold
   EBREAK =  0.45E-08  absolut break condition
   DEPER  =   0.30     relativ break condition  

   TIME   =   0.40     timestep for ELM

  volume/ion in A,a.u.               =      24.74       166.94
  Fermi-wavevector in a.u.,A,eV,Ry     =   1.143140  2.160222 17.779679  1.306770
  Thomas-Fermi vector in A             =   2.279836
 
 Write flags
   LWAVE        =      F    write WAVECAR
   LDOWNSAMPLE  =      F    k-point downsampling of WAVECAR
   LCHARG       =      F    write CHGCAR
   LVTOT        =      F    write LOCPOT, total local potential
   LVHAR        =      F    write LOCPOT, Hartree potential only
   LELF         =      F    write electronic localiz. function (ELF)
   LORBIT       =      0    0 simple, 1 ext, 2 COOP (PROOUT), +10 PAW based schemes


 Dipole corrections
   LMONO  =      F    monopole corrections only (constant potential shift)
   LDIPOL =      F    correct potential (dipole corrections)
   IDIPOL =      0    1-x, 2-y, 3-z, 4-all directions 
   EPSILON=  1.0000000 bulk dielectric constant

 Exchange correlation treatment:
   GGA     =    --    GGA type
   LEXCH   =     8    internal setting for exchange type
   VOSKOWN=      0    Vosko Wilk Nusair interpolation
   LHFCALC =     F    Hartree Fock is set to
   LHFONE  =     F    Hartree Fock one center treatment
   AEXX    =    0.0000 exact exchange contribution

 Linear response parameters
   LEPSILON=     F    determine dielectric tensor
   LRPA    =     F    only Hartree local field effects (RPA)
   LNABLA  =     F    use nabla operator in PAW spheres
   LVEL    =     F    velocity operator in full k-point grid
   LINTERFAST=   F  fast interpolation
   KINTER  =     0    interpolate to denser k-point grid
   CSHIFT  =0.1000    complex shift for real part using Kramers Kronig
   OMEGAMAX=  -1.0    maximum frequency
   DEG_THRESHOLD= 0.2000000E-02 threshold for treating states as degnerate
   RTIME   =   -0.100 relaxation time in fs
  (WPLASMAI=    0.000 imaginary part of plasma frequency in eV, 0.658/RTIME)
   DFIELD  = 0.0000000 0.0000000 0.0000000 field for delta impulse in time
 
 Orbital magnetization related:
   ORBITALMAG=     F  switch on orbital magnetization
   LCHIMAG   =     F  perturbation theory with respect to B field
   DQ        =  0.001000  dq finite difference perturbation B field
   LLRAUG    =     F  two centre corrections for induced B field



--------------------------------------------------------------------------------------------------------


 finite differences
   using selective dynamics as specified on POSCAR
   WARNING: If single coordinates had been selected the selection of coordinates
            is made according to the corresponding   d i r e c t   coordinates!
            Don't support selection of single cartesian coordinates -- sorry ...
  !
 charge density and potential will be updated during run
 spin polarized calculation
 RMM-DIIS sequential band-by-band and
  variant of blocked Davidson during initial phase
 perform sub-space diagonalisation
    before iterative eigenvector-optimisation
 modified Broyden-mixing scheme, WC =      100.0
 initial mixing is a Kerker type mixing with AMIX =  0.4000 and BMIX =      1.0000
 Hartree-type preconditioning will be used
 using additional bands          151
 real space projection scheme for non local part
 use partial core corrections
 calculate Harris-corrections to forces 
   (improved forces if not selfconsistent)
 use gradient corrections 
 use of overlap-Matrix (Vanderbilt PP)
 Methfessel and Paxton  Order N= 1 SIGMA  =   0.10


--------------------------------------------------------------------------------------------------------


  energy-cutoff  :      550.00
  volume of cell :     2399.65
      direct lattice vectors                 reciprocal lattice vectors
    11.222700119  0.000000000  0.000000000     0.089105116 -0.051444863  0.000000000
     5.611350060  9.719143402  0.000000000     0.000000000  0.102889726  0.000000000
     0.000000000  0.000000000 22.000000000     0.000000000  0.000000000  0.045454545

  length of vectors
    11.222700119 11.222700119 22.000000000     0.102889726  0.102889726  0.045454545


 
 k-points in units of 2pi/SCALE and weight: mesh auto                               
   0.00000000  0.00000000  0.00000000       0.250
   0.04455256 -0.02572243  0.00000000       0.250
   0.00000000  0.05144486  0.00000000       0.250
   0.04455256  0.02572243  0.00000000       0.250
 
 k-points in reciprocal lattice and weights: mesh auto                               
   0.00000000  0.00000000  0.00000000       0.250
   0.50000000  0.00000000  0.00000000       0.250
   0.00000000  0.50000000  0.00000000       0.250
   0.50000000  0.50000000  0.00000000       0.250
 
 position of ions in fractional coordinates (direct lattice) 
   0.78524725  0.86885138  0.32623468
   0.03519570  0.86885940  0.32616488
   0.03494395  0.61923795  0.32627742
   0.78510604  0.86884431  0.02099053
   0.03478132  0.86886906  0.02118326
   0.03486811  0.61906558  0.02124633
   0.61837342  0.20223094  0.12449201
   0.36840101  0.95237031  0.12452950
   0.03508708  0.36921382  0.32644802
   0.03526247  0.36849573  0.02158191
   0.86866848  0.20208149  0.12443289
   0.95147854  0.53580740  0.22483689
   0.28519293  0.11887232  0.32635529
   0.53581262  0.61895836  0.32554589
   0.28471876  0.36864698  0.32581863
   0.28427342  0.11928674  0.02164688
   0.53496278  0.61887957  0.02111865
   0.28493090  0.36898131  0.02136842
   0.61842458  0.95231636  0.12457849
   0.70180945  0.78560978  0.22468044
   0.86840898  0.70243129  0.12450140
   0.61856059  0.45223346  0.12427761
   0.28475637  0.86969406  0.32568124
   0.28501165  0.86893765  0.02109982
   0.61834628  0.70248995  0.12439274
   0.20202202  0.03518680  0.22491533
   0.86907396  0.95207984  0.43197356
   0.11942106  0.45243847  0.43219530
   0.11956914  0.95122186  0.43210670
   0.86808491  0.45236924  0.43241974
   0.36902381  0.95125259  0.43197507
   0.86820816  0.20262437  0.43199615
   0.11867267  0.20221371  0.43204149
   0.61882318  0.95202392  0.43225226
   0.86893662  0.70199199  0.43226704
   0.36895698  0.20269170  0.43190502
   0.37105006  0.69795017  0.42999801
   0.61490677  0.45416922  0.43041284
   0.12107219  0.70108164  0.43233301
   0.61791509  0.20427303  0.43225217
   0.53558601  0.36864682  0.32550325
   0.53500011  0.36897036  0.02128468
   0.53560776  0.11866789  0.32624748
   0.53524906  0.11877614  0.02139649
   0.86860377  0.45219425  0.12446976
   0.11837340  0.45226799  0.12462570
   0.03528857  0.11884014  0.32629866
   0.03529697  0.11916850  0.02141633
   0.11841625  0.95229075  0.12440202
   0.37114396  0.45422137  0.43026932
   0.45187476  0.53563401  0.22420133
   0.61793272  0.70096114  0.43273137
   0.36839878  0.20227282  0.12457880
   0.11841748  0.20229997  0.12528532
   0.95160692  0.78561993  0.22465843
   0.78509274  0.61901503  0.32636967
   0.28494684  0.61902596  0.32544511
   0.78496423  0.61914514  0.02128055
   0.28494293  0.61905808  0.02117132
   0.36816295  0.70267711  0.12430865
   0.36827678  0.45218062  0.12440447
   0.20177200  0.28588739  0.22498988
   0.78615008  0.36861134  0.32580706
   0.78501390  0.36892601  0.02113082
   0.95177102  0.03566252  0.22471872
   0.45212769  0.78538502  0.22456791
   0.70168661  0.53585474  0.22443562
   0.20174158  0.78545444  0.22448554
   0.45188277  0.03550433  0.22486583
   0.11827116  0.70225042  0.12441490
   0.70186870  0.03552855  0.22466723
   0.78530185  0.11884505  0.32613637
   0.53559480  0.86866877  0.32631367
   0.78499638  0.11879944  0.02129547
   0.53526197  0.86886280  0.02132639
   0.20163537  0.53583802  0.22463484
   0.95128290  0.28598035  0.22493109
   0.86835748  0.95217728  0.12444731
   0.70172403  0.28562918  0.22446993
   0.45209189  0.28563123  0.22465444
   0.47335867  0.55649241  0.56912370
   0.51084315  0.58808582  0.58448654
   0.70062819  0.53433239  0.47277450
   0.20567477  0.78333929  0.47238164
   0.45165395  0.78324249  0.47251847
   0.70134037  0.78494641  0.47288005
   0.95284656  0.78544046  0.47251148
   0.20632835  0.53379190  0.47236327
   0.95196873  0.53515051  0.47305265
   0.20234976  0.28562571  0.47261316
   0.45061542  0.28903737  0.47215437
   0.70039514  0.28859204  0.47249467
   0.95162074  0.28654955  0.47301266
   0.20227949  0.03524962  0.47268277
   0.45217409  0.03565267  0.47256826
   0.70168926  0.03610540  0.47226591
   0.95235759  0.03502339  0.47259671
 
 position of ions in cartesian coordinates  (Angst):
  13.68802367  8.44449115  7.17716289
   5.27046506  8.44456912  7.17562741
   3.86692638  6.01846243  7.17810318
  13.68639918  8.44442241  0.46179170
   5.26586883  8.44466303  0.46603183
   3.86510800  6.01678718  0.46741931
   8.07460801  1.96551147  2.73882432
   9.47853726  9.25622362  2.73964909
   2.46555975  3.58844207  7.18185652
   2.46349870  3.58146287  0.47480195
  10.88275585  1.96405903  2.73752353
  13.68476124  5.20758899  4.94641150
   3.86766886  1.15533709  7.17981646
   9.48645638  6.01574508  7.16200948
   5.26392045  3.58293282  7.16800981
   3.85967496  1.15936489  0.47623145
   9.47647676  6.01497930  0.46461023
   5.26817737  3.58618222  0.47010516
  12.28417411  9.25569931  2.74072672
  12.28452848  7.63545410  4.94296967
  13.68748145  6.82703044  2.73903079
   9.47956031  4.39532185  2.73410749
   8.07589320  8.45268131  7.16498719
   8.07451360  8.44532959  0.46419594
  10.88143187  6.82760056  2.73664023
   2.46467798  0.34198559  4.94813732
  15.09580978  9.25340054  9.50341842
   3.87901732  4.39731432  9.50829657
   6.67952744  9.24506169  9.50634730
  12.28065881  4.39664154  9.51323425
   9.47925486  9.24536029  9.50345160
  10.88063609  1.96933527  9.50391527
   2.46651969  1.96534401  9.50491276
  12.28700651  9.25285701  9.50954969
  13.69093789  6.82276082  9.50987491
   5.27806760  1.96998967  9.50191044
   8.08062631  6.78347775  9.45995619
   9.44941680  4.41413576  9.46908243
   5.29277131  6.81391295  9.51132631
   8.08092329  1.98535890  9.50954765
   8.07932750  3.58293134  7.16107143
   8.07456764  3.58607587  0.46826306
   6.67685235  1.15335023  7.17744458
   6.67343412  1.15440229  0.47072287
  12.28549984  4.39494076  2.73833482
   3.86630325  4.39565748  2.74176547
   1.06288663  1.15502438  7.17857047
   1.06482341  1.15821569  0.47115935
   6.67258683  9.25545041  2.73684450
   6.71403247  4.41464263  9.46592503
   8.07688483  5.20590375  4.93242927
  10.86821199  6.81274182  9.52009010
   5.26945263  1.96591857  2.74073349
   2.46413981  1.96618237  2.75627698
  15.08798751  7.63555280  4.94248538
  12.28437040  6.01629581  7.18013277
   6.67144432  6.01640210  7.15979247
  12.28365831  6.01756039  0.46817207
   6.67158071  6.01671428  0.46576896
   8.07474966  6.82941963  2.73479024
   6.67040363  4.39480830  2.73689825
   3.86864083  2.77858052  4.94977730
  10.89113390  3.58258649  7.16775535
  10.88014851  3.58564477  0.46487797
  10.88155565  0.34660914  4.94381194
   9.48116372  7.63326964  4.94049400
  10.88168694  5.20804902  4.93758368
   6.67154504  7.63394432  4.93868182
   5.27057207  0.34507164  4.94704822
   5.26789472  6.82527250  2.73712787
   8.07622507  0.34530706  4.94267902
   9.48008833  1.15507208  7.17500024
  10.88522437  8.44271634  7.17890063
   9.47640418  1.15462880  0.46850034
  10.88257790  8.44460217  0.46918063
   5.26966798  5.20788652  4.94196646
  12.28069852  2.77948403  4.94848390
  15.08831566  9.25434757  2.73784091
   9.47800370  2.77607091  4.93833840
   6.67646856  2.77609092  4.94239759
   8.43503610  5.40862954 12.52072146
   9.03299486  5.71569041 12.85870396
  10.86126623  5.19325316 10.40103902
   6.70381728  7.61338692 10.39239618
   9.46382464  7.61244604 10.39540642
  12.27554180  7.62900674 10.40336106
  15.10089258  7.63380847 10.39525260
   5.31085437  5.18800002 10.39199197
  13.68657644  5.20120457 10.40715827
   3.87365647  2.77603719 10.39748951
   6.67901158  2.80919564 10.38739614
   9.47971557  2.80486746 10.39488280
  12.28768403  2.78501615 10.40627849
   2.46792000  0.34259612 10.39902102
   5.27467388  0.34651346 10.39650167
   8.07744821  0.35091360 10.38985000
  10.88455213  0.34039736 10.39712761
 


--------------------------------------------------------------------------------------------------------


 k-point  1 :   0.0000 0.0000 0.0000  plane waves:   70321
 k-point  2 :   0.5000 0.0000 0.0000  plane waves:   70264
 k-point  3 :   0.0000 0.5000 0.0000  plane waves:   70264
 k-point  4 :   0.5000 0.5000 0.0000  plane waves:   70264

 maximum and minimum number of plane-waves per node :     70321    70264

 maximum number of plane-waves:     70321
 maximum index in each direction: 
   IXMAX=   21   IYMAX=   21   IZMAX=   42
   IXMIN=  -21   IYMIN=  -21   IZMIN=  -42


 serial   3D FFT for wavefunctions
 parallel 3D FFT for charge:
    minimum data exchange during FFTs selected (reduces bandwidth)


 total amount of memory used by VASP MPI-rank0   423611. kBytes
=======================================================================

   base      :      30000. kBytes
   nonlr-proj:     112760. kBytes
   fftplans  :      15524. kBytes
   grid      :     133430. kBytes
   one-center:       3017. kBytes
   wavefun   :     128880. kBytes
 
     INWAV:  cpu time    0.0001: real time    0.0001
 Broyden mixing: mesh for mixing (old mesh)
   NGX = 43   NGY = 43   NGZ = 85
  (NGX  =180   NGY  =180   NGZ  =336)
  gives a total of 157165 points

 initial charge density was supplied:
 charge density of overlapping atoms calculated
 number of electron     817.0000000 magnetization      97.0000000
 keeping initial charge density in first step


--------------------------------------------------------------------------------------------------------


 Maximum index for non-local projection operator         7659
 Maximum index for augmentation-charges         1785 (set IRDMAX)


--------------------------------------------------------------------------------------------------------


 First call to EWALD:  gamma=   0.132
 Maximum number of real-space cells 4x 4x 2
 Maximum number of reciprocal cells 2x 2x 4

    FEWALD:  cpu time    0.0044: real time    0.0044


--------------------------------------- Iteration      1(   1)  ---------------------------------------


    POTLOK:  cpu time    0.5194: real time    0.5538
    SETDIJ:  cpu time    0.0398: real time    0.0403
     EDDAV:  cpu time   58.9111: real time   59.2488
       DOS:  cpu time    0.0024: real time    0.0026
    --------------------------------------------
      LOOP:  cpu time   59.4728: real time   59.8456

 eigenvalue-minimisations  :  8960
 total energy-change (2. order) : 0.5453718E+04  (-0.3973795E+05)
 number of electron     817.0000000 magnetization      97.0000000
 augmentation part      817.0000000 magnetization      97.0000000

 Free energy of the ion-electron system (eV)
  ---------------------------------------------------
  alpha Z        PSCENC =      2603.23065423
  Ewald energy   TEWEN  =    174534.25954984
  -Hartree energ DENC   =   -238977.35079809
  -exchange      EXHF   =         0.00000000
  -V(xc)+E(xc)   XCENC  =       341.02079811
  PAW double counting   =     55714.20569222   -53452.02284007
  entropy T*S    EENTRO =        -0.00524414
  eigenvalues    EBANDS =      6148.84766610
  atomic energy  EATOM  =     58541.53257041
  Solvation  Ediel_sol  =         0.00000000
  ---------------------------------------------------
  free energy    TOTEN  =      5453.71804862 eV

  energy without entropy =     5453.72329276  energy(sigma->0) =     5453.71979667


--------------------------------------------------------------------------------------------------------




--------------------------------------- Iteration      1(   2)  ---------------------------------------


     EDDAV:  cpu time   64.2411: real time   64.3937
       DOS:  cpu time    0.0018: real time    0.0017
    --------------------------------------------
      LOOP:  cpu time   64.2428: real time   64.3954

 eigenvalue-minimisations  :  9920
 total energy-change (2. order) :-0.5702188E+04  (-0.5232535E+04)
 number of electron     817.0000000 magnetization      97.0000000
 augmentation part      817.0000000 magnetization      97.0000000

 Free energy of the ion-electron system (eV)
  ---------------------------------------------------
  alpha Z        PSCENC =      2603.23065423
  Ewald energy   TEWEN  =    174534.25954984
  -Hartree energ DENC   =   -238977.35079809
  -exchange      EXHF   =         0.00000000
  -V(xc)+E(xc)   XCENC  =       341.02079811
  PAW double counting   =     55714.20569222   -53452.02284007
  entropy T*S    EENTRO =        -0.01285974
  eigenvalues    EBANDS =       446.66741511
  atomic energy  EATOM  =     58541.53257041
  Solvation  Ediel_sol  =         0.00000000
  ---------------------------------------------------
  free energy    TOTEN  =      -248.46981798 eV

  energy without entropy =     -248.45695823  energy(sigma->0) =     -248.46553140


--------------------------------------------------------------------------------------------------------




--------------------------------------- Iteration      1(   3)  ---------------------------------------


     EDDAV:  cpu time   65.9357: real time   66.0921
       DOS:  cpu time    0.0017: real time    0.0017
    --------------------------------------------
      LOOP:  cpu time   65.9374: real time   66.0939

 eigenvalue-minimisations  : 10240
 total energy-change (2. order) :-0.2716261E+03  (-0.2564868E+03)
 number of electron     817.0000000 magnetization      97.0000000
 augmentation part      817.0000000 magnetization      97.0000000

 Free energy of the ion-electron system (eV)
  ---------------------------------------------------
  alpha Z        PSCENC =      2603.23065423
  Ewald energy   TEWEN  =    174534.25954984
  -Hartree energ DENC   =   -238977.35079809
  -exchange      EXHF   =         0.00000000
  -V(xc)+E(xc)   XCENC  =       341.02079811
  PAW double counting   =     55714.20569222   -53452.02284007
  entropy T*S    EENTRO =        -0.09637285
  eigenvalues    EBANDS =       175.12480857
  atomic energy  EATOM  =     58541.53257041
  Solvation  Ediel_sol  =         0.00000000
  ---------------------------------------------------
  free energy    TOTEN  =      -520.09593763 eV

  energy without entropy =     -519.99956477  energy(sigma->0) =     -520.06381334


--------------------------------------------------------------------------------------------------------




--------------------------------------- Iteration      1(   4)  ---------------------------------------


     EDDAV:  cpu time   67.9105: real time   68.0716
       DOS:  cpu time    0.0018: real time    0.0018
    --------------------------------------------
      LOOP:  cpu time   67.9123: real time   68.0734

 eigenvalue-minimisations  : 10600
 total energy-change (2. order) :-0.6243088E+01  (-0.6201018E+01)
 number of electron     817.0000000 magnetization      97.0000000
 augmentation part      817.0000000 magnetization      97.0000000

 Free energy of the ion-electron system (eV)
  ---------------------------------------------------
  alpha Z        PSCENC =      2603.23065423
  Ewald energy   TEWEN  =    174534.25954984
  -Hartree energ DENC   =   -238977.35079809
  -exchange      EXHF   =         0.00000000
  -V(xc)+E(xc)   XCENC  =       341.02079811
  PAW double counting   =     55714.20569222   -53452.02284007
  entropy T*S    EENTRO =        -0.10068465
  eigenvalues    EBANDS =       168.88603221
  atomic energy  EATOM  =     58541.53257041
  Solvation  Ediel_sol  =         0.00000000
  ---------------------------------------------------
  free energy    TOTEN  =      -526.33902579 eV

  energy without entropy =     -526.23834113  energy(sigma->0) =     -526.30546424


--------------------------------------------------------------------------------------------------------




--------------------------------------- Iteration      1(   5)  ---------------------------------------


     EDDAV:  cpu time   65.9352: real time   66.0914
       DOS:  cpu time    0.0017: real time    0.0017
    CHARGE:  cpu time    3.6049: real time    3.6138
    MIXING:  cpu time    0.0097: real time    0.0105
    --------------------------------------------
      LOOP:  cpu time   69.5515: real time   69.7174

 eigenvalue-minimisations  : 10240
 total energy-change (2. order) :-0.1811563E+00  (-0.1810841E+00)
 number of electron     816.9999971 magnetization      89.9295029
 augmentation part      234.5324661 magnetization      67.6017006

 Broyden mixing:
  rms(total) = 0.10941E+02    rms(broyden)= 0.10941E+02
  rms(prec ) = 0.11049E+02
  weight for this iteration     100.00

 Free energy of the ion-electron system (eV)
  ---------------------------------------------------
  alpha Z        PSCENC =      2603.23065423
  Ewald energy   TEWEN  =    174534.25954984
  -Hartree energ DENC   =   -238977.35079809
  -exchange      EXHF   =         0.00000000
  -V(xc)+E(xc)   XCENC  =       341.02079811
  PAW double counting   =     55714.20569222   -53452.02284007
  entropy T*S    EENTRO =        -0.10080388
  eigenvalues    EBANDS =       168.70499509
  atomic energy  EATOM  =     58541.53257041
  Solvation  Ediel_sol  =         0.00000000
  ---------------------------------------------------
  free energy    TOTEN  =      -526.52018213 eV

  energy without entropy =     -526.41937825  energy(sigma->0) =     -526.48658084


--------------------------------------------------------------------------------------------------------




--------------------------------------- Iteration      1(   6)  ---------------------------------------


    POTLOK:  cpu time    0.4799: real time    0.4811
    SETDIJ:  cpu time    0.0411: real time    0.0412
    EDDIAG:  cpu time    9.2638: real time    9.2862
  RMM-DIIS:  cpu time   38.2735: real time   38.3641
    ORTHCH:  cpu time    1.3409: real time    1.3441
       DOS:  cpu time    0.0018: real time    0.0018
    CHARGE:  cpu time    3.8888: real time    3.8980
    MIXING:  cpu time    0.0102: real time    0.0104
    --------------------------------------------
      LOOP:  cpu time   53.2999: real time   53.4268

 eigenvalue-minimisations  :  9034
 total energy-change (2. order) : 0.1857640E+02  (-0.1978154E+02)
 number of electron     816.9999965 magnetization      84.2157255
 augmentation part      246.4806430 magnetization      69.0093137

 Broyden mixing:
  rms(total) = 0.82357E+01    rms(broyden)= 0.82357E+01
  rms(prec ) = 0.95137E+01
  weight for this iteration     100.00

 eigenvalues of (default mixing * dielectric matrix)
  average eigenvalue GAMMA=   0.7791
  0.7791

 Free energy of the ion-electron system (eV)
  ---------------------------------------------------
  alpha Z        PSCENC =      2603.23065423
  Ewald energy   TEWEN  =    174534.25954984
  -Hartree energ DENC   =   -238198.18722916
  -exchange      EXHF   =         0.00000000
  -V(xc)+E(xc)   XCENC  =       342.75959057
  PAW double counting   =     62614.56016943   -60472.36496150
  entropy T*S    EENTRO =        -0.05492748
  eigenvalues    EBANDS =      -473.67919424
  atomic energy  EATOM  =     58541.53257041
  Solvation  Ediel_sol  =         0.00000000
  ---------------------------------------------------
  free energy    TOTEN  =      -507.94377791 eV

  energy without entropy =     -507.88885043  energy(sigma->0) =     -507.92546875


--------------------------------------------------------------------------------------------------------




--------------------------------------- Iteration      1(   7)  ---------------------------------------


    POTLOK:  cpu time    0.4782: real time    0.4793
    SETDIJ:  cpu time    0.0404: real time    0.0405
    EDDIAG:  cpu time    9.2752: real time    9.2974
  RMM-DIIS:  cpu time   37.6436: real time   37.7326
    ORTHCH:  cpu time    1.3440: real time    1.3472
       DOS:  cpu time    0.0016: real time    0.0017
    CHARGE:  cpu time    3.8416: real time    3.8508
    MIXING:  cpu time    0.0102: real time    0.0102
    --------------------------------------------
      LOOP:  cpu time   52.6349: real time   52.7597

 eigenvalue-minimisations  :  8984
 total energy-change (2. order) :-0.2360456E+03  (-0.1889131E+02)
 number of electron     816.9999971 magnetization      77.6482159
 augmentation part      235.4535828 magnetization      60.3965112

 Broyden mixing:
  rms(total) = 0.13218E+02    rms(broyden)= 0.13218E+02
  rms(prec ) = 0.18999E+02
  weight for this iteration     100.00

 eigenvalues of (default mixing * dielectric matrix)
  average eigenvalue GAMMA=   0.6353
  1.0582  0.2124

 Free energy of the ion-electron system (eV)
  ---------------------------------------------------
  alpha Z        PSCENC =      2603.23065423
  Ewald energy   TEWEN  =    174534.25954984
  -Hartree energ DENC   =   -238976.02651623
  -exchange      EXHF   =         0.00000000
  -V(xc)+E(xc)   XCENC  =       340.07090656
  PAW double counting   =     66005.04277671   -63898.10794087
  entropy T*S    EENTRO =         0.02810441
  eigenvalues    EBANDS =       105.98048659
  atomic energy  EATOM  =     58541.53257041
  Solvation  Ediel_sol  =         0.00000000
  ---------------------------------------------------
  free energy    TOTEN  =      -743.98940835 eV

  energy without entropy =     -744.01751276  energy(sigma->0) =     -743.99877649


--------------------------------------------------------------------------------------------------------




--------------------------------------- Iteration      1(   8)  ---------------------------------------


    POTLOK:  cpu time    0.4773: real time    0.4784
    SETDIJ:  cpu time    0.0406: real time    0.0407
    EDDIAG:  cpu time    9.2886: real time    9.3108
  RMM-DIIS:  cpu time   37.7231: real time   37.8124
    ORTHCH:  cpu time    1.3479: real time    1.3511
       DOS:  cpu time    0.0017: real time    0.0017
    CHARGE:  cpu time    3.8652: real time    3.8744
    MIXING:  cpu time    0.0107: real time    0.0107
    --------------------------------------------
      LOOP:  cpu time   52.7551: real time   52.8802

 eigenvalue-minimisations  :  8981
 total energy-change (2. order) : 0.1302940E+03  (-0.6280660E+01)
 number of electron     816.9999968 magnetization      71.7641502
 augmentation part      243.8066243 magnetization      56.0730497

 Broyden mixing:
  rms(total) = 0.97990E+01    rms(broyden)= 0.97989E+01
  rms(prec ) = 0.12444E+02
  weight for this iteration     100.00

 eigenvalues of (default mixing * dielectric matrix)
  average eigenvalue GAMMA=   0.6998
  1.5418  0.3697  0.1880

 Free energy of the ion-electron system (eV)
  ---------------------------------------------------
  alpha Z        PSCENC =      2603.23065423
  Ewald energy   TEWEN  =    174534.25954984
  -Hartree energ DENC   =   -238848.37965816
  -exchange      EXHF   =         0.00000000
  -V(xc)+E(xc)   XCENC  =       333.79345037
  PAW double counting   =     69597.28403498   -67539.92599826
  entropy T*S    EENTRO =        -0.00935458
  eigenvalues    EBANDS =       164.51930829
  atomic energy  EATOM  =     58541.53257041
  Solvation  Ediel_sol  =         0.00000000
  ---------------------------------------------------
  free energy    TOTEN  =      -613.69544288 eV

  energy without entropy =     -613.68608830  energy(sigma->0) =     -613.69232469


--------------------------------------------------------------------------------------------------------




--------------------------------------- Iteration      1(   9)  ---------------------------------------


    POTLOK:  cpu time    0.4795: real time    0.4807
    SETDIJ:  cpu time    0.0407: real time    0.0408
    EDDIAG:  cpu time    9.2792: real time    9.3014
  RMM-DIIS:  cpu time   37.9013: real time   37.9910
    ORTHCH:  cpu time    1.3408: real time    1.3440
       DOS:  cpu time    0.0017: real time    0.0017
    CHARGE:  cpu time    3.6033: real time    3.6119
    MIXING:  cpu time    0.0108: real time    0.0108
    --------------------------------------------
      LOOP:  cpu time   52.6574: real time   52.7823

 eigenvalue-minimisations  :  9007
 total energy-change (2. order) : 0.8414713E+02  (-0.6406299E+01)
 number of electron     816.9999967 magnetization      65.4853900
 augmentation part      250.1049028 magnetization      53.1016309

 Broyden mixing:
  rms(total) = 0.59788E+01    rms(broyden)= 0.59788E+01
  rms(prec ) = 0.94917E+01
  weight for this iteration     100.00

 eigenvalues of (default mixing * dielectric matrix)
  average eigenvalue GAMMA=   0.7878
  2.0723  0.6424  0.2886  0.1479

 Free energy of the ion-electron system (eV)
  ---------------------------------------------------
  alpha Z        PSCENC =      2603.23065423
  Ewald energy   TEWEN  =    174534.25954984
  -Hartree energ DENC   =   -238208.42176012
  -exchange      EXHF   =         0.00000000
  -V(xc)+E(xc)   XCENC  =       333.21162234
  PAW double counting   =     72271.28690581   -70247.37477325
  entropy T*S    EENTRO =        -0.08766480
  eigenvalues    EBANDS =      -357.18541319
  atomic energy  EATOM  =     58541.53257041
  Solvation  Ediel_sol  =         0.00000000
  ---------------------------------------------------
  free energy    TOTEN  =      -529.54830874 eV

  energy without entropy =     -529.46064394  energy(sigma->0) =     -529.51908714


--------------------------------------------------------------------------------------------------------




--------------------------------------- Iteration      1(  10)  ---------------------------------------


    POTLOK:  cpu time    0.4749: real time    0.4761
    SETDIJ:  cpu time    0.0406: real time    0.0407
    EDDIAG:  cpu time    9.2690: real time    9.2912
  RMM-DIIS:  cpu time   37.7459: real time   37.8353
    ORTHCH:  cpu time    1.3413: real time    1.3444
       DOS:  cpu time    0.0016: real time    0.0016
    CHARGE:  cpu time    3.6698: real time    3.6785
    MIXING:  cpu time    0.0122: real time    0.0122
    --------------------------------------------
      LOOP:  cpu time   52.5553: real time   52.6800

 eigenvalue-minimisations  :  9012
 total energy-change (2. order) : 0.2548331E+02  (-0.3235870E+01)
 number of electron     816.9999970 magnetization      62.9429594
 augmentation part      248.7502206 magnetization      47.3033624

 Broyden mixing:
  rms(total) = 0.39642E+01    rms(broyden)= 0.39642E+01
  rms(prec ) = 0.45629E+01
  weight for this iteration     100.00

 eigenvalues of (default mixing * dielectric matrix)
  average eigenvalue GAMMA=   0.7009
  2.1508  0.4777  0.4777  0.2527  0.1457

 Free energy of the ion-electron system (eV)
  ---------------------------------------------------
  alpha Z        PSCENC =      2603.23065423
  Ewald energy   TEWEN  =    174534.25954984
  -Hartree energ DENC   =   -238426.81429145
  -exchange      EXHF   =         0.00000000
  -V(xc)+E(xc)   XCENC  =       328.84735816
  PAW double counting   =     73405.51594778   -71381.83236203
  entropy T*S    EENTRO =         0.07869702
  eigenvalues    EBANDS =      -108.88312177
  atomic energy  EATOM  =     58541.53257041
  Solvation  Ediel_sol  =         0.00000000
  ---------------------------------------------------
  free energy    TOTEN  =      -504.06499781 eV

  energy without entropy =     -504.14369483  energy(sigma->0) =     -504.09123015


--------------------------------------------------------------------------------------------------------




--------------------------------------- Iteration      1(  11)  ---------------------------------------


    POTLOK:  cpu time    0.4759: real time    0.4771
    SETDIJ:  cpu time    0.0408: real time    0.0409
    EDDIAG:  cpu time    9.2927: real time    9.3149
  RMM-DIIS:  cpu time   37.8431: real time   37.9325
    ORTHCH:  cpu time    1.3473: real time    1.3505
       DOS:  cpu time    0.0018: real time    0.0018
    CHARGE:  cpu time    3.5561: real time    3.5645
    MIXING:  cpu time    0.0117: real time    0.0117
    --------------------------------------------
      LOOP:  cpu time   52.5693: real time   52.6939

 eigenvalue-minimisations  :  9001
 total energy-change (2. order) : 0.1114086E+02  (-0.9052708E+00)
 number of electron     816.9999968 magnetization      59.5271879
 augmentation part      249.4553357 magnetization      43.5431031

 Broyden mixing:
  rms(total) = 0.21601E+01    rms(broyden)= 0.21601E+01
  rms(prec ) = 0.26861E+01
  weight for this iteration     100.00

 eigenvalues of (default mixing * dielectric matrix)
  average eigenvalue GAMMA=   0.7045
  2.0024  0.7313  0.7313  0.3074  0.3074  0.1470

 Free energy of the ion-electron system (eV)
  ---------------------------------------------------
  alpha Z        PSCENC =      2603.23065423
  Ewald energy   TEWEN  =    174534.25954984
  -Hartree energ DENC   =   -238354.46692008
  -exchange      EXHF   =         0.00000000
  -V(xc)+E(xc)   XCENC  =       327.79069962
  PAW double counting   =     73707.92161537   -71687.46120707
  entropy T*S    EENTRO =         0.06918687
  eigenvalues    EBANDS =      -165.80028279
  atomic energy  EATOM  =     58541.53257041
  Solvation  Ediel_sol  =         0.00000000
  ---------------------------------------------------
  free energy    TOTEN  =      -492.92413360 eV

  energy without entropy =     -492.99332048  energy(sigma->0) =     -492.94719589


--------------------------------------------------------------------------------------------------------




--------------------------------------- Iteration      1(  12)  ---------------------------------------


    POTLOK:  cpu time    0.4764: real time    0.4775
    SETDIJ:  cpu time    0.0407: real time    0.0408
    EDDIAG:  cpu time    9.2845: real time    9.3068
  RMM-DIIS:  cpu time   38.0657: real time   38.1558
    ORTHCH:  cpu time    1.3468: real time    1.3500
       DOS:  cpu time    0.0017: real time    0.0017
    CHARGE:  cpu time    3.8760: real time    3.8852
    MIXING:  cpu time    0.0128: real time    0.0128
    --------------------------------------------
      LOOP:  cpu time   53.1046: real time   53.2305

 eigenvalue-minimisations  :  9003
 total energy-change (2. order) :-0.6821015E+01  (-0.5665155E+00)
 number of electron     816.9999969 magnetization      58.3804032
 augmentation part      249.1061620 magnetization      41.1637584

 Broyden mixing:
  rms(total) = 0.19594E+01    rms(broyden)= 0.19594E+01
  rms(prec ) = 0.22359E+01
  weight for this iteration     100.00

 eigenvalues of (default mixing * dielectric matrix)
  average eigenvalue GAMMA=   0.6620
  1.9870  0.7955  0.7955  0.1469  0.3314  0.3314  0.2466

 Free energy of the ion-electron system (eV)
  ---------------------------------------------------
  alpha Z        PSCENC =      2603.23065423
  Ewald energy   TEWEN  =    174534.25954984
  -Hartree energ DENC   =   -238323.71036299
  -exchange      EXHF   =         0.00000000
  -V(xc)+E(xc)   XCENC  =       325.10640529
  PAW double counting   =     73242.07042824   -71215.99169953
  entropy T*S    EENTRO =         0.03514730
  eigenvalues    EBANDS =      -206.27784168
  atomic energy  EATOM  =     58541.53257041
  Solvation  Ediel_sol  =         0.00000000
  ---------------------------------------------------
  free energy    TOTEN  =      -499.74514888 eV

  energy without entropy =     -499.78029618  energy(sigma->0) =     -499.75686465


--------------------------------------------------------------------------------------------------------




--------------------------------------- Iteration      1(  13)  ---------------------------------------


    POTLOK:  cpu time    0.4756: real time    0.4767
    SETDIJ:  cpu time    0.0407: real time    0.0408
    EDDIAG:  cpu time    9.2996: real time    9.3219
  RMM-DIIS:  cpu time   37.9159: real time   38.0064
    ORTHCH:  cpu time    1.3461: real time    1.3493
       DOS:  cpu time    0.0017: real time    0.0017
    CHARGE:  cpu time    3.6447: real time    3.6533
    MIXING:  cpu time    0.0125: real time    0.0125
    --------------------------------------------
      LOOP:  cpu time   52.7368: real time   52.8626

 eigenvalue-minimisations  :  9011
 total energy-change (2. order) :-0.1659224E+00  (-0.1410065E+00)
 number of electron     816.9999969 magnetization      52.5038873
 augmentation part      249.0497091 magnetization      35.4315458

 Broyden mixing:
  rms(total) = 0.11773E+01    rms(broyden)= 0.11773E+01
  rms(prec ) = 0.12428E+01
  weight for this iteration     100.00

 eigenvalues of (default mixing * dielectric matrix)
  average eigenvalue GAMMA=   0.7294
  1.9749  1.1342  1.1342  0.4677  0.1470  0.3576  0.3576  0.2622

 Free energy of the ion-electron system (eV)
  ---------------------------------------------------
  alpha Z        PSCENC =      2603.23065423
  Ewald energy   TEWEN  =    174534.25954984
  -Hartree energ DENC   =   -238341.68594601
  -exchange      EXHF   =         0.00000000
  -V(xc)+E(xc)   XCENC  =       324.05356938
  PAW double counting   =     73259.42012503   -71232.92930913
  entropy T*S    EENTRO =         0.01316866
  eigenvalues    EBANDS =      -187.80545374
  atomic energy  EATOM  =     58541.53257041
  Solvation  Ediel_sol  =         0.00000000
  ---------------------------------------------------
  free energy    TOTEN  =      -499.91107132 eV

  energy without entropy =     -499.92423998  energy(sigma->0) =     -499.91546088


--------------------------------------------------------------------------------------------------------




--------------------------------------- Iteration      1(  14)  ---------------------------------------


    POTLOK:  cpu time    0.4746: real time    0.4757
    SETDIJ:  cpu time    0.0411: real time    0.0412
    EDDIAG:  cpu time    9.3006: real time    9.3225
  RMM-DIIS:  cpu time   37.7489: real time   37.8381
    ORTHCH:  cpu time    1.3451: real time    1.3483
       DOS:  cpu time    0.0017: real time    0.0017
    CHARGE:  cpu time    3.6404: real time    3.6490
    MIXING:  cpu time    0.0135: real time    0.0136
    --------------------------------------------
      LOOP:  cpu time   52.5658: real time   52.6900

 eigenvalue-minimisations  :  8975
 total energy-change (2. order) :-0.1116612E+02  (-0.5106682E+00)
 number of electron     816.9999968 magnetization      49.1187581
 augmentation part      248.9920768 magnetization      33.3635929

 Broyden mixing:
  rms(total) = 0.17222E+01    rms(broyden)= 0.17222E+01
  rms(prec ) = 0.21367E+01
  weight for this iteration     100.00

 eigenvalues of (default mixing * dielectric matrix)
  average eigenvalue GAMMA=   0.7135
  1.8651  1.2644  1.2644  0.5168  0.5168  0.1470  0.3353  0.2698  0.2416

 Free energy of the ion-electron system (eV)
  ---------------------------------------------------
  alpha Z        PSCENC =      2603.23065423
  Ewald energy   TEWEN  =    174534.25954984
  -Hartree energ DENC   =   -238348.01044005
  -exchange      EXHF   =         0.00000000
  -V(xc)+E(xc)   XCENC  =       319.33311571
  PAW double counting   =     73357.17641392   -71331.31760709
  entropy T*S    EENTRO =        -0.02775664
  eigenvalues    EBANDS =      -187.25369389
  atomic energy  EATOM  =     58541.53257041
  Solvation  Ediel_sol  =         0.00000000
  ---------------------------------------------------
  free energy    TOTEN  =      -511.07719355 eV

  energy without entropy =     -511.04943690  energy(sigma->0) =     -511.06794133


--------------------------------------------------------------------------------------------------------




--------------------------------------- Iteration      1(  15)  ---------------------------------------


    POTLOK:  cpu time    0.4879: real time    0.4891
    SETDIJ:  cpu time    0.0411: real time    0.0412
    EDDIAG:  cpu time    9.3002: real time    9.3221
  RMM-DIIS:  cpu time   38.2026: real time   38.2961
    ORTHCH:  cpu time    1.3506: real time    1.3538
       DOS:  cpu time    0.0019: real time    0.0019
    CHARGE:  cpu time    3.6351: real time    3.6437
    MIXING:  cpu time    0.0138: real time    0.0139
    --------------------------------------------
      LOOP:  cpu time   53.0332: real time   53.1618

 eigenvalue-minimisations  :  8988
 total energy-change (2. order) :-0.3005719E+01  (-0.2326965E+00)
 number of electron     816.9999968 magnetization      44.7204353
 augmentation part      248.9722803 magnetization      29.0180864

 Broyden mixing:
  rms(total) = 0.10624E+01    rms(broyden)= 0.10624E+01
  rms(prec ) = 0.13042E+01
  weight for this iteration     100.00

 eigenvalues of (default mixing * dielectric matrix)
  average eigenvalue GAMMA=   0.7621
  2.3256  1.7691  0.8687  0.8687  0.5167  0.1470  0.3419  0.2930  0.2930  0.1977

 Free energy of the ion-electron system (eV)
  ---------------------------------------------------
  alpha Z        PSCENC =      2603.23065423
  Ewald energy   TEWEN  =    174534.25954984
  -Hartree energ DENC   =   -238346.50934534
  -exchange      EXHF   =         0.00000000
  -V(xc)+E(xc)   XCENC  =       317.27465447
  PAW double counting   =     73375.11599948   -71348.86181277
  entropy T*S    EENTRO =        -0.05928400
  eigenvalues    EBANDS =      -190.06589906
  atomic energy  EATOM  =     58541.53257041
  Solvation  Ediel_sol  =         0.00000000
  ---------------------------------------------------
  free energy    TOTEN  =      -514.08291273 eV

  energy without entropy =     -514.02362873  energy(sigma->0) =     -514.06315140


--------------------------------------------------------------------------------------------------------




--------------------------------------- Iteration      1(  16)  ---------------------------------------


    POTLOK:  cpu time    0.4754: real time    0.4765
    SETDIJ:  cpu time    0.0406: real time    0.0407
    EDDIAG:  cpu time    9.2993: real time    9.3213
  RMM-DIIS:  cpu time   37.8660: real time   37.9555
    ORTHCH:  cpu time    1.3465: real time    1.3497
       DOS:  cpu time    0.0018: real time    0.0018
    CHARGE:  cpu time    3.8005: real time    3.8095
    MIXING:  cpu time    0.0138: real time    0.0138
    --------------------------------------------
      LOOP:  cpu time   52.8438: real time   52.9688

 eigenvalue-minimisations  :  8979
 total energy-change (2. order) :-0.4674638E+01  (-0.2665174E+00)
 number of electron     816.9999968 magnetization      42.6011835
 augmentation part      248.8424644 magnetization      28.5815618

 Broyden mixing:
  rms(total) = 0.11111E+01    rms(broyden)= 0.11111E+01
  rms(prec ) = 0.14362E+01
  weight for this iteration     100.00

 eigenvalues of (default mixing * dielectric matrix)
  average eigenvalue GAMMA=   0.7373
  2.4775  1.6539  0.9271  0.9271  0.4711  0.4711  0.2986  0.2986  0.1470  0.2461
  0.1921

 Free energy of the ion-electron system (eV)
  ---------------------------------------------------
  alpha Z        PSCENC =      2603.23065423
  Ewald energy   TEWEN  =    174534.25954984
  -Hartree energ DENC   =   -238372.33668788
  -exchange      EXHF   =         0.00000000
  -V(xc)+E(xc)   XCENC  =       314.48103164
  PAW double counting   =     73488.58850716   -71462.74500189
  entropy T*S    EENTRO =         0.00468294
  eigenvalues    EBANDS =      -165.77285754
  atomic energy  EATOM  =     58541.53257041
  Solvation  Ediel_sol  =         0.00000000
  ---------------------------------------------------
  free energy    TOTEN  =      -518.75755110 eV

  energy without entropy =     -518.76223404  energy(sigma->0) =     -518.75911208


--------------------------------------------------------------------------------------------------------




--------------------------------------- Iteration      1(  17)  ---------------------------------------


    POTLOK:  cpu time    0.4739: real time    0.4750
    SETDIJ:  cpu time    0.0407: real time    0.0408
    EDDIAG:  cpu time    9.2702: real time    9.2921
  RMM-DIIS:  cpu time   37.9366: real time   38.0263
    ORTHCH:  cpu time    1.3468: real time    1.3499
       DOS:  cpu time    0.0018: real time    0.0018
    CHARGE:  cpu time    3.7300: real time    3.7389
    MIXING:  cpu time    0.0144: real time    0.0144
    --------------------------------------------
      LOOP:  cpu time   52.8142: real time   52.9390

 eigenvalue-minimisations  :  8979
 total energy-change (2. order) :-0.1550531E+01  (-0.8285251E-01)
 number of electron     816.9999968 magnetization      41.0984073
 augmentation part      248.7361409 magnetization      27.0933952

 Broyden mixing:
  rms(total) = 0.67170E+00    rms(broyden)= 0.67170E+00
  rms(prec ) = 0.76451E+00
  weight for this iteration     100.00

 eigenvalues of (default mixing * dielectric matrix)
  average eigenvalue GAMMA=   0.7208
  2.3867  1.8809  0.9077  0.9077  0.4672  0.4672  0.1470  0.3731  0.3257  0.3257
  0.2673  0.1930

 Free energy of the ion-electron system (eV)
  ---------------------------------------------------
  alpha Z        PSCENC =      2603.23065423
  Ewald energy   TEWEN  =    174534.25954984
  -Hartree energ DENC   =   -238384.37933957
  -exchange      EXHF   =         0.00000000
  -V(xc)+E(xc)   XCENC  =       313.13426627
  PAW double counting   =     73537.57299920   -71512.25100487
  entropy T*S    EENTRO =        -0.02537407
  eigenvalues    EBANDS =      -153.38240336
  atomic energy  EATOM  =     58541.53257041
  Solvation  Ediel_sol  =         0.00000000
  ---------------------------------------------------
  free energy    TOTEN  =      -520.30808192 eV

  energy without entropy =     -520.28270785  energy(sigma->0) =     -520.29962390


--------------------------------------------------------------------------------------------------------




--------------------------------------- Iteration      1(  18)  ---------------------------------------


    POTLOK:  cpu time    0.4747: real time    0.4758
    SETDIJ:  cpu time    0.0406: real time    0.0407
    EDDIAG:  cpu time    9.2834: real time    9.3054
  RMM-DIIS:  cpu time   37.9504: real time   38.0400
[...]
     13.686576  5.201205 10.407158            0           0           0  
      3.873656  2.776037 10.397490            0           0           0  
      6.679012  2.809196 10.387396            0           0           0  
      9.479716  2.804867 10.394883            0           0           0  
     12.287684  2.785016 10.406278            0           0           0  
      2.467920  0.342596 10.399021            0           0           0  
      5.274674  0.346513 10.396502            0           0           0  
      8.077448  0.350914 10.389850            0           0           0  
     10.884552  0.340397 10.397128            0           0           0  
 
   5 f  =    1.922110 THz    12.076974 2PiTHz   64.114689 cm-1     7.949211 meV
             X         Y         Z           dx          dy          dz
     13.688024  8.444491  7.177163            0           0           0  
      5.270465  8.444569  7.175627            0           0           0  
      3.866926  6.018462  7.178103            0           0           0  
     13.686399  8.444422  0.461792            0           0           0  
      5.265869  8.444663  0.466032            0           0           0  
      3.865108  6.016787  0.467419            0           0           0  
      8.074608  1.965511  2.738824            0           0           0  
      9.478537  9.256224  2.739649            0           0           0  
      2.465560  3.588442  7.181857            0           0           0  
      2.463499  3.581463  0.474802            0           0           0  
     10.882756  1.964059  2.737524            0           0           0  
     13.684761  5.207589  4.946412            0           0           0  
      3.867669  1.155337  7.179816            0           0           0  
      9.486456  6.015745  7.162009            0           0           0  
      5.263920  3.582933  7.168010            0           0           0  
      3.859675  1.159365  0.476231            0           0           0  
      9.476477  6.014979  0.464610            0           0           0  
      5.268177  3.586182  0.470105            0           0           0  
     12.284174  9.255699  2.740727            0           0           0  
     12.284528  7.635454  4.942970            0           0           0  
     13.687481  6.827030  2.739031            0           0           0  
      9.479560  4.395322  2.734107            0           0           0  
      8.075893  8.452681  7.164987            0           0           0  
      8.074514  8.445330  0.464196            0           0           0  
     10.881432  6.827601  2.736640            0           0           0  
      2.464678  0.341986  4.948137            0           0           0  
     15.095810  9.253401  9.503418            0           0           0  
      3.879017  4.397314  9.508297            0           0           0  
      6.679527  9.245062  9.506347            0           0           0  
     12.280659  4.396642  9.513234            0           0           0  
      9.479255  9.245360  9.503452            0           0           0  
     10.880636  1.969335  9.503915            0           0           0  
      2.466520  1.965344  9.504913            0           0           0  
     12.287007  9.252857  9.509550            0           0           0  
     13.690938  6.822761  9.509875            0           0           0  
      5.278068  1.969990  9.501910            0           0           0  
      8.080626  6.783478  9.459956            0           0           0  
      9.449417  4.414136  9.469082            0           0           0  
      5.292771  6.813913  9.511326            0           0           0  
      8.080923  1.985359  9.509548            0           0           0  
      8.079328  3.582931  7.161071            0           0           0  
      8.074568  3.586076  0.468263            0           0           0  
      6.676852  1.153350  7.177445            0           0           0  
      6.673434  1.154402  0.470723            0           0           0  
     12.285500  4.394941  2.738335            0           0           0  
      3.866303  4.395657  2.741765            0           0           0  
      1.062887  1.155024  7.178570            0           0           0  
      1.064823  1.158216  0.471159            0           0           0  
      6.672587  9.255450  2.736844            0           0           0  
      6.714032  4.414643  9.465925            0           0           0  
      8.076885  5.205904  4.932429            0           0           0  
     10.868212  6.812742  9.520090            0           0           0  
      5.269453  1.965919  2.740733            0           0           0  
      2.464140  1.966182  2.756277            0           0           0  
     15.087988  7.635553  4.942485            0           0           0  
     12.284370  6.016296  7.180133            0           0           0  
      6.671444  6.016402  7.159792            0           0           0  
     12.283658  6.017560  0.468172            0           0           0  
      6.671581  6.016714  0.465769            0           0           0  
      8.074750  6.829420  2.734790            0           0           0  
      6.670404  4.394808  2.736898            0           0           0  
      3.868641  2.778581  4.949777            0           0           0  
     10.891134  3.582586  7.167755            0           0           0  
     10.880149  3.585645  0.464878            0           0           0  
     10.881556  0.346609  4.943812            0           0           0  
      9.481164  7.633270  4.940494            0           0           0  
     10.881687  5.208049  4.937584            0           0           0  
      6.671545  7.633944  4.938682            0           0           0  
      5.270572  0.345072  4.947048            0           0           0  
      5.267895  6.825272  2.737128            0           0           0  
      8.076225  0.345307  4.942679            0           0           0  
      9.480088  1.155072  7.175000            0           0           0  
     10.885224  8.442716  7.178901            0           0           0  
      9.476404  1.154629  0.468500            0           0           0  
     10.882578  8.444602  0.469181            0           0           0  
      5.269668  5.207887  4.941966            0           0           0  
     12.280699  2.779484  4.948484            0           0           0  
     15.088316  9.254348  2.737841            0           0           0  
      9.478004  2.776071  4.938338            0           0           0  
      6.676469  2.776091  4.942398            0           0           0  
      8.435036  5.408630 12.520721    -0.187318   -0.368634    0.724526  
      9.032995  5.715690 12.858704     0.341714   -0.168060   -0.398838  
     10.861266  5.193253 10.401039            0           0           0  
      6.703817  7.613387 10.392396            0           0           0  
      9.463825  7.612446 10.395406            0           0           0  
     12.275542  7.629007 10.403361            0           0           0  
     15.100893  7.633808 10.395253            0           0           0  
      5.310854  5.188000 10.391992            0           0           0  
     13.686576  5.201205 10.407158            0           0           0  
      3.873656  2.776037 10.397490            0           0           0  
      6.679012  2.809196 10.387396            0           0           0  
      9.479716  2.804867 10.394883            0           0           0  
     12.287684  2.785016 10.406278            0           0           0  
      2.467920  0.342596 10.399021            0           0           0  
      5.274674  0.346513 10.396502            0           0           0  
      8.077448  0.350914 10.389850            0           0           0  
     10.884552  0.340397 10.397128            0           0           0  
 
   6 f  =    1.307596 THz     8.215867 2PiTHz   43.616702 cm-1     5.407784 meV
             X         Y         Z           dx          dy          dz
     13.688024  8.444491  7.177163            0           0           0  
      5.270465  8.444569  7.175627            0           0           0  
      3.866926  6.018462  7.178103            0           0           0  
     13.686399  8.444422  0.461792            0           0           0  
      5.265869  8.444663  0.466032            0           0           0  
      3.865108  6.016787  0.467419            0           0           0  
      8.074608  1.965511  2.738824            0           0           0  
      9.478537  9.256224  2.739649            0           0           0  
      2.465560  3.588442  7.181857            0           0           0  
      2.463499  3.581463  0.474802            0           0           0  
     10.882756  1.964059  2.737524            0           0           0  
     13.684761  5.207589  4.946412            0           0           0  
      3.867669  1.155337  7.179816            0           0           0  
      9.486456  6.015745  7.162009            0           0           0  
      5.263920  3.582933  7.168010            0           0           0  
      3.859675  1.159365  0.476231            0           0           0  
      9.476477  6.014979  0.464610            0           0           0  
      5.268177  3.586182  0.470105            0           0           0  
     12.284174  9.255699  2.740727            0           0           0  
     12.284528  7.635454  4.942970            0           0           0  
     13.687481  6.827030  2.739031            0           0           0  
      9.479560  4.395322  2.734107            0           0           0  
      8.075893  8.452681  7.164987            0           0           0  
      8.074514  8.445330  0.464196            0           0           0  
     10.881432  6.827601  2.736640            0           0           0  
      2.464678  0.341986  4.948137            0           0           0  
     15.095810  9.253401  9.503418            0           0           0  
      3.879017  4.397314  9.508297            0           0           0  
      6.679527  9.245062  9.506347            0           0           0  
     12.280659  4.396642  9.513234            0           0           0  
      9.479255  9.245360  9.503452            0           0           0  
     10.880636  1.969335  9.503915            0           0           0  
      2.466520  1.965344  9.504913            0           0           0  
     12.287007  9.252857  9.509550            0           0           0  
     13.690938  6.822761  9.509875            0           0           0  
      5.278068  1.969990  9.501910            0           0           0  
      8.080626  6.783478  9.459956            0           0           0  
      9.449417  4.414136  9.469082            0           0           0  
      5.292771  6.813913  9.511326            0           0           0  
      8.080923  1.985359  9.509548            0           0           0  
      8.079328  3.582931  7.161071            0           0           0  
      8.074568  3.586076  0.468263            0           0           0  
      6.676852  1.153350  7.177445            0           0           0  
      6.673434  1.154402  0.470723            0           0           0  
     12.285500  4.394941  2.738335            0           0           0  
      3.866303  4.395657  2.741765            0           0           0  
      1.062887  1.155024  7.178570            0           0           0  
      1.064823  1.158216  0.471159            0           0           0  
      6.672587  9.255450  2.736844            0           0           0  
      6.714032  4.414643  9.465925            0           0           0  
      8.076885  5.205904  4.932429            0           0           0  
     10.868212  6.812742  9.520090            0           0           0  
      5.269453  1.965919  2.740733            0           0           0  
      2.464140  1.966182  2.756277            0           0           0  
     15.087988  7.635553  4.942485            0           0           0  
     12.284370  6.016296  7.180133            0           0           0  
      6.671444  6.016402  7.159792            0           0           0  
     12.283658  6.017560  0.468172            0           0           0  
      6.671581  6.016714  0.465769            0           0           0  
      8.074750  6.829420  2.734790            0           0           0  
      6.670404  4.394808  2.736898            0           0           0  
      3.868641  2.778581  4.949777            0           0           0  
     10.891134  3.582586  7.167755            0           0           0  
     10.880149  3.585645  0.464878            0           0           0  
     10.881556  0.346609  4.943812            0           0           0  
      9.481164  7.633270  4.940494            0           0           0  
     10.881687  5.208049  4.937584            0           0           0  
      6.671545  7.633944  4.938682            0           0           0  
      5.270572  0.345072  4.947048            0           0           0  
      5.267895  6.825272  2.737128            0           0           0  
      8.076225  0.345307  4.942679            0           0           0  
      9.480088  1.155072  7.175000            0           0           0  
     10.885224  8.442716  7.178901            0           0           0  
      9.476404  1.154629  0.468500            0           0           0  
     10.882578  8.444602  0.469181            0           0           0  
      5.269668  5.207887  4.941966            0           0           0  
     12.280699  2.779484  4.948484            0           0           0  
     15.088316  9.254348  2.737841            0           0           0  
      9.478004  2.776071  4.938338            0           0           0  
      6.676469  2.776091  4.942398            0           0           0  
      8.435036  5.408630 12.520721     0.494672   -0.483275   -0.298397  
      9.032995  5.715690 12.858704     0.284148   -0.572162    0.156829  
     10.861266  5.193253 10.401039            0           0           0  
      6.703817  7.613387 10.392396            0           0           0  
      9.463825  7.612446 10.395406            0           0           0  
     12.275542  7.629007 10.403361            0           0           0  
     15.100893  7.633808 10.395253            0           0           0  
      5.310854  5.188000 10.391992            0           0           0  
     13.686576  5.201205 10.407158            0           0           0  
      3.873656  2.776037 10.397490            0           0           0  
      6.679012  2.809196 10.387396            0           0           0  
      9.479716  2.804867 10.394883            0           0           0  
     12.287684  2.785016 10.406278            0           0           0  
      2.467920  0.342596 10.399021            0           0           0  
      5.274674  0.346513 10.396502            0           0           0  
      8.077448  0.350914 10.389850            0           0           0  
     10.884552  0.340397 10.397128            0           0           0  
 
 Finite differences POTIM=  1.500000000000000E-002
  LATTYP: Found a hexagonal cell.
 ALAT       =    11.2227001190
 C/A-ratio  =     1.9603125600
  
  Lattice vectors:
  
 A1 = (   5.6113500595,  -9.7191434021,   0.0000000000)
 A2 = ( -11.2227001190,   0.0000000000,   0.0000000000)
 A3 = (   0.0000000000,   0.0000000000, -22.0000000000)


Analysis of symmetry for initial positions (statically):
=====================================================================
 Subroutine PRICEL returns:
 Original cell was already a primitive cell.
 

 Routine SETGRP: Setting up the symmetry group for a 
 hexagonal supercell.


 Subroutine GETGRP returns: Found  1 space group operations
 (whereof  1 operations were pure point group operations)
 out of a pool of 24 trial point group operations.


The static configuration has the point symmetry C_1 .


Analysis of symmetry for dynamics (positions and initial velocities):
=====================================================================
 Subroutine PRICEL returns:
 Original cell was already a primitive cell.
 

 Routine SETGRP: Setting up the symmetry group for a 
 hexagonal supercell.


 Subroutine GETGRP returns: Found  1 space group operations
 (whereof  1 operations were pure point group operations)
 out of a pool of 24 trial point group operations.


The dynamic configuration has the point symmetry C_1 .


Analysis of constrained symmetry for selective dynamics:
=====================================================================
 Subroutine PRICEL returns:
 Original cell was already a primitive cell.
 

 Routine SETGRP: Setting up the symmetry group for a 
 hexagonal supercell.


 Subroutine GETGRP returns: Found  1 space group operations
 (whereof  1 operations were pure point group operations)
 out of a pool of 24 trial point group operations.


The constrained configuration has the point symmetry C_1 .


Analysis of structural, dynamic, and magnetic symmetry:
=====================================================================
 Subroutine PRICEL returns:
 Original cell was already a primitive cell.
 

 Routine SETGRP: Setting up the symmetry group for a 
 hexagonal supercell.


 Subroutine GETGRP returns: Found  1 space group operations
 (whereof  1 operations were pure point group operations)
 out of a pool of 24 trial point group operations.


The magnetic configuration has the point symmetry C_1 .


 Subroutine INISYM returns: Found  1 space group operations
 (whereof  1 operations are pure point group operations),
 and found     1 'primitive' translations

 
 KPOINTS: mesh auto                               

Automatic generation of k-mesh.
Space group operators:
 irot       det(A)        alpha          n_x          n_y          n_z        tau_x        tau_y        tau_z
    1     1.000000     0.000000     1.000000     0.000000     0.000000     0.000000     0.000000     0.000000
 
 Subroutine IBZKPT returns following result:
 ===========================================
 
 Found      4 irreducible k-points:
 
 Following reciprocal coordinates:
            Coordinates               Weight
  0.000000  0.000000  0.000000      1.000000
  0.500000  0.000000  0.000000      1.000000
  0.000000  0.500000  0.000000      1.000000
  0.500000  0.500000  0.000000      1.000000
 
 Following cartesian coordinates:
            Coordinates               Weight
  0.000000  0.000000  0.000000      1.000000
  0.044553 -0.025722  0.000000      1.000000
  0.000000  0.051445  0.000000      1.000000
  0.044553  0.025722  0.000000      1.000000
 
     LOOP+:  cpu time  396.6836: real time  397.6416
    4ORBIT:  cpu time    0.0000: real time    0.0000

 total amount of memory used by VASP MPI-rank0   423611. kBytes
=======================================================================

   base      :      30000. kBytes
   nonlr-proj:     112760. kBytes
   fftplans  :      15524. kBytes
   grid      :     133430. kBytes
   one-center:       3017. kBytes
   wavefun   :     128880. kBytes
 
  
  
 General timing and accounting informations for this job:
 ========================================================
  
                  Total CPU time used (sec):     6824.174
                            User time (sec):     6795.812
                          System time (sec):       28.362
                         Elapsed time (sec):     6843.086
  
                   Maximum memory used (kb):     1150356.
                   Average memory used (kb):           0.
  
                          Minor page faults:      3150100
                          Major page faults:            0
                 Voluntary context switches:         5672
