 vasp.5.4.4.18Apr17-6-g9f103f2a35 (build Oct 25 2019 11:13:22) complex          
  
 executed on             LinuxIFC date 2022.02.12  05:21:46
 running on   48 total cores
 distrk:  each k-point on   48 cores,    1 groups
 distr:  one band on NCORES_PER_BAND=   4 cores,   12 groups


--------------------------------------------------------------------------------------------------------


 INCAR:
 POTCAR:    PAW_PBE Pt 04Feb2005                  
 POTCAR:    PAW_PBE Co 02Aug2007                  
 POTCAR:    PAW_PBE Ni 02Aug2007                  
 POTCAR:    PAW_PBE H 15Jun2001                   
 POTCAR:    PAW_PBE Pt 04Feb2005                  
   VRHFIN =Pt: s1d9                                                             
   LEXCH  = PE                                                                  
   EATOM  =   729.1176 eV,   53.5886 Ry                                         
                                                                                
   TITEL  = PAW_PBE Pt 04Feb2005                                                
   LULTRA =        F    use ultrasoft PP ?                                      
   IUNSCR =        1    unscreen: 0-lin 1-nonlin 2-no                           
   RPACOR =    2.330    partial core radius                                     
   POMASS =  195.080; ZVAL   =   10.000    mass and valenz                      
   RCORE  =    2.600    outmost cutoff radius                                   
   RWIGS  =    2.750; RWIGS  =    1.455    wigner-seitz radius (au A)           
   ENMAX  =  230.283; ENMIN  =  172.712 eV                                      
   ICORE  =        3    local potential                                         
   LCOR   =        T    correct aug charges                                     
   LPAW   =        T    paw PP                                                  
   EAUG   =  358.966                                                            
   DEXC   =    0.000                                                            
   RMAX   =    2.658    core radius for proj-oper                               
   RAUG   =    1.300    factor for augmentation sphere                          
   RDEP   =    2.761    radius for radial grids                                 
   RDEPT  =    2.203    core radius for aug-charge                              
                                                                                
   Atomic configuration                                                         
   16 entries                                                                   
     n  l   j            E        occ.                                          
     1  0  0.50    -78401.1885   2.0000                                         
     2  0  0.50    -13770.7750   2.0000                                         
     2  1  1.50    -11931.0468   6.0000                                         
     3  0  0.50     -3234.7234   2.0000                                         
     3  1  1.50     -2699.2216   6.0000                                         
     3  2  2.50     -2119.5714  10.0000                                         
     4  0  0.50      -695.1528   2.0000                                         
     4  1  1.50      -519.6034   6.0000                                         
     4  2  2.50      -306.6786  10.0000                                         
     4  3  3.50       -70.1041  14.0000                                         
     5  0  0.50      -101.7747   2.0000                                         
     5  1  1.50       -55.9873   6.0000                                         
     5  2  2.50        -6.1423   9.0000                                         
     6  0  0.50        -5.6573   1.0000                                         
     6  1  1.50        -6.8029   0.0000                                         
     5  3  2.50        -1.3606   0.0000                                         
   Description                                                                  
     l       E           TYP  RCUT    TYP  RCUT                                 
     2     -6.1423404     23  2.500                                             
     2     -7.5029230     23  2.500                                             
     0     -5.6573207     23  2.500                                             
     0      0.7416693     23  2.500                                             
     1     -2.7211652     23  2.600                                             
     1     20.4087390     23  2.600                                             
     3     -1.3605826     23  2.500                                             
  local pseudopotential read in
  partial core-charges read in
  partial kinetic energy density read in
  atomic valenz-charges read in
  non local Contribution for L=           2  read in
    real space projection operators read in
  non local Contribution for L=           2  read in
    real space projection operators read in
  non local Contribution for L=           0  read in
    real space projection operators read in
  non local Contribution for L=           0  read in
    real space projection operators read in
  non local Contribution for L=           1  read in
    real space projection operators read in
  non local Contribution for L=           1  read in
    real space projection operators read in
    PAW grid and wavefunctions read in
 
   number of l-projection  operators is LMAX  =           6
   number of lm-projection operators is LMMAX =          18
 
 POTCAR:    PAW_PBE Co 02Aug2007                  
   VRHFIN =Co: d8 s1                                                            
   LEXCH  = PE                                                                  
   EATOM  =   813.3670 eV,   59.7808 Ry                                         
                                                                                
   TITEL  = PAW_PBE Co 02Aug2007                                                
   LULTRA =        F    use ultrasoft PP ?                                      
   IUNSCR =        1    unscreen: 0-lin 1-nonlin 2-no                           
   RPACOR =    2.000    partial core radius                                     
   POMASS =   58.933; ZVAL   =    9.000    mass and valenz                      
   RCORE  =    2.300    outmost cutoff radius                                   
   RWIGS  =    2.460; RWIGS  =    1.302    wigner-seitz radius (au A)           
   ENMAX  =  267.968; ENMIN  =  200.976 eV                                      
   RCLOC  =    1.203    cutoff for local pot                                    
   LCOR   =        T    correct aug charges                                     
   LPAW   =        T    paw PP                                                  
   EAUG   =  477.818                                                            
   DEXC   =    0.000                                                            
   RMAX   =    2.360    core radius for proj-oper                               
   RAUG   =    1.300    factor for augmentation sphere                          
   RDEP   =    2.393    radius for radial grids                                 
   RDEPT  =    1.864    core radius for aug-charge                              
                                                                                
   Atomic configuration                                                         
    9 entries                                                                   
     n  l   j            E        occ.                                          
     1  0  0.50     -7587.6674   2.0000                                         
     2  0  0.50      -893.6084   2.0000                                         
     2  1  1.50      -764.5805   6.0000                                         
     3  0  0.50       -97.5973   2.0000                                         
     3  1  1.50       -60.9648   6.0000                                         
     3  2  2.50        -4.2382   8.0000                                         
     4  0  0.50        -4.3746   1.0000                                         
     4  1  1.50        -4.0817   0.0000                                         
     4  3  2.50        -1.3606   0.0000                                         
   Description                                                                  
     l       E           TYP  RCUT    TYP  RCUT                                 
     2     -4.2382362     23  2.300                                             
     2     -5.5988188     23  2.300                                             
     0     -4.3745797     23  2.300                                             
     0      5.7660125     23  2.300                                             
     1     -2.7211652     23  2.300                                             
     1     16.9860234     23  2.300                                             
  local pseudopotential read in
  partial core-charges read in
  partial kinetic energy density read in
  atomic valenz-charges read in
  non local Contribution for L=           2  read in
    real space projection operators read in
  non local Contribution for L=           2  read in
    real space projection operators read in
  non local Contribution for L=           0  read in
    real space projection operators read in
  non local Contribution for L=           0  read in
    real space projection operators read in
  non local Contribution for L=           1  read in
    real space projection operators read in
  non local Contribution for L=           1  read in
    real space projection operators read in
    PAW grid and wavefunctions read in
 
   number of l-projection  operators is LMAX  =           6
   number of lm-projection operators is LMMAX =          18
 
 POTCAR:    PAW_PBE Ni 02Aug2007                  
   VRHFIN =Ni:                                                                  
   LEXCH  = PE                                                                  
   EATOM  =  1077.6739 eV,   79.2068 Ry                                         
                                                                                
   TITEL  = PAW_PBE Ni 02Aug2007                                                
   LULTRA =        F    use ultrasoft PP ?                                      
   IUNSCR =        1    unscreen: 0-lin 1-nonlin 2-no                           
   RPACOR =    2.000    partial core radius                                     
   POMASS =   58.690; ZVAL   =   10.000    mass and valenz                      
   RCORE  =    2.300    outmost cutoff radius                                   
   RWIGS  =    2.430; RWIGS  =    1.286    wigner-seitz radius (au A)           
   ENMAX  =  269.532; ENMIN  =  202.149 eV                                      
   RCLOC  =    1.201    cutoff for local pot                                    
   LCOR   =        T    correct aug charges                                     
   LPAW   =        T    paw PP                                                  
   EAUG   =  544.565                                                            
   DEXC   =    0.000                                                            
   RMAX   =    2.357    core radius for proj-oper                               
   RAUG   =    1.300    factor for augmentation sphere                          
   RDEP   =    2.390    radius for radial grids                                 
   RDEPT  =    1.838    core radius for aug-charge                              
                                                                                
   Atomic configuration                                                         
    9 entries                                                                   
     n  l   j            E        occ.                                          
     1  0  0.50     -8206.4253   2.0000                                         
     2  0  0.50      -976.1748   2.0000                                         
     2  1  1.50      -839.0571   6.0000                                         
     3  0  0.50      -105.9991   2.0000                                         
     3  1  1.50       -66.4603   6.0000                                         
     3  2  2.50        -4.6458   9.0000                                         
     4  0  0.50        -4.4926   1.0000                                         
     4  1  1.50        -4.0817   0.0000                                         
     4  3  2.50        -1.3606   0.0000                                         
   Description                                                                  
     l       E           TYP  RCUT    TYP  RCUT                                 
     2     -4.6457903     23  2.300                                             
     2     -6.0063729     23  2.300                                             
     0     -4.4925590     23  2.300                                             
     0      5.0102601     23  2.300                                             
     1     -2.7211652     23  2.300                                             
     1     16.5183231     23  2.300                                             
  local pseudopotential read in
  partial core-charges read in
  partial kinetic energy density read in
  atomic valenz-charges read in
  non local Contribution for L=           2  read in
    real space projection operators read in
  non local Contribution for L=           2  read in
    real space projection operators read in
  non local Contribution for L=           0  read in
    real space projection operators read in
  non local Contribution for L=           0  read in
    real space projection operators read in
  non local Contribution for L=           1  read in
    real space projection operators read in
  non local Contribution for L=           1  read in
    real space projection operators read in
    PAW grid and wavefunctions read in
 
   number of l-projection  operators is LMAX  =           6
   number of lm-projection operators is LMMAX =          18
 
 POTCAR:    PAW_PBE H 15Jun2001                   
   VRHFIN =H: ultrasoft test                                                    
   LEXCH  = PE                                                                  
   EATOM  =    12.4884 eV,    0.9179 Ry                                         
                                                                                
   TITEL  = PAW_PBE H 15Jun2001                                                 
   LULTRA =        F    use ultrasoft PP ?                                      
   IUNSCR =        0    unscreen: 0-lin 1-nonlin 2-no                           
   RPACOR =    0.000    partial core radius                                     
   POMASS =    1.000; ZVAL   =    1.000    mass and valenz                      
   RCORE  =    1.100    outmost cutoff radius                                   
   RWIGS  =    0.700; RWIGS  =    0.370    wigner-seitz radius (au A)           
   ENMAX  =  250.000; ENMIN  =  200.000 eV                                      
   RCLOC  =    0.701    cutoff for local pot                                    
   LCOR   =        T    correct aug charges                                     
   LPAW   =        T    paw PP                                                  
   EAUG   =  400.000                                                            
   RMAX   =    1.123    core radius for proj-oper                               
   RAUG   =    1.200    factor for augmentation sphere                          
   RDEP   =    1.112    radius for radial grids                                 
   RDEPT  =    0.926    core radius for aug-charge                              
                                                                                
   Atomic configuration                                                         
    2 entries                                                                   
     n  l   j            E        occ.                                          
     1  0  0.50        -6.4927   1.0000                                         
     2  1  0.50        -3.4015   0.0000                                         
   Description                                                                  
     l       E           TYP  RCUT    TYP  RCUT                                 
     0     -6.4927494     23  1.100                                             
     0      6.8029130     23  1.100                                             
     1     -4.0817478     23  1.100                                             
  local pseudopotential read in
  atomic valenz-charges read in
  non local Contribution for L=           0  read in
    real space projection operators read in
  non local Contribution for L=           0  read in
    real space projection operators read in
  non local Contribution for L=           1  read in
    real space projection operators read in
    PAW grid and wavefunctions read in
 
   number of l-projection  operators is LMAX  =           3
   number of lm-projection operators is LMMAX =           5
 
 Optimization of the real space projectors (new method)

 maximal supplied QI-value         = 14.36
 optimisation between [QCUT,QGAM] = [ 11.92, 23.98] = [ 39.79,161.09] Ry 
 Optimized for a Real-space Cutoff    1.49 Angstroem

   l    n(q)    QCUT    max X(q) W(low)/X(q) W(high)/X(q)  e(spline) 
   2     10    11.920    66.195    0.79E-04    0.18E-03    0.24E-06
   2     10    11.920    64.643    0.81E-04    0.19E-03    0.24E-06
   0     11    11.920    95.520    0.28E-04    0.54E-04    0.18E-06
   0     11    11.920    63.403    0.27E-04    0.52E-04    0.17E-06
   1     10    11.920    19.961    0.18E-04    0.11E-03    0.23E-06
   1     10    11.920    13.289    0.25E-04    0.87E-04    0.19E-06
 Optimization of the real space projectors (new method)

 maximal supplied QI-value         = 16.25
 optimisation between [QCUT,QGAM] = [ 11.86, 23.89] = [ 39.41,159.82] Ry 
 Optimized for a Real-space Cutoff    1.33 Angstroem

   l    n(q)    QCUT    max X(q) W(low)/X(q) W(high)/X(q)  e(spline) 
   2      9    11.864    65.824    0.22E-03    0.53E-03    0.26E-06
   2      9    11.864    61.429    0.22E-03    0.53E-03    0.26E-06
   0      9    11.864    56.174    0.21E-03    0.32E-04    0.15E-06
   0      9    11.864    31.263    0.19E-03    0.30E-04    0.14E-06
   1      9    11.864    19.828    0.63E-04    0.30E-03    0.16E-06
   1      9    11.864    15.139    0.49E-04    0.25E-03    0.13E-06
 Optimization of the real space projectors (new method)

 maximal supplied QI-value         = 16.25
 optimisation between [QCUT,QGAM] = [ 11.86, 23.89] = [ 39.41,159.82] Ry 
 Optimized for a Real-space Cutoff    1.33 Angstroem

   l    n(q)    QCUT    max X(q) W(low)/X(q) W(high)/X(q)  e(spline) 
   2      9    11.864    60.317    0.21E-03    0.51E-03    0.25E-06
   2      9    11.864    55.921    0.21E-03    0.51E-03    0.26E-06
   0      9    11.864    51.690    0.22E-03    0.30E-04    0.17E-06
   0      9    11.864    30.015    0.20E-03    0.28E-04    0.15E-06
   1      9    11.864    18.849    0.76E-04    0.33E-03    0.17E-06
   1      9    11.864    14.624    0.60E-04    0.28E-03    0.15E-06
 Optimization of the real space projectors (new method)

 maximal supplied QI-value         = 34.20
 optimisation between [QCUT,QGAM] = [ 11.97, 23.94] = [ 40.13,160.53] Ry 
 Optimized for a Real-space Cutoff    1.18 Angstroem

   l    n(q)    QCUT    max X(q) W(low)/X(q) W(high)/X(q)  e(spline) 
   0      8    11.971    19.460    0.15E-03    0.31E-03    0.25E-06
   0      8    11.971    12.209    0.13E-03    0.29E-03    0.25E-06
   1      8    11.971     4.655    0.22E-03    0.24E-03    0.21E-06
  PAW_PBE Pt 04Feb2005                  :
 energy of atom  1       EATOM= -729.1176
 kinetic energy error for atom=    0.0021 (will be added to EATOM!!)
  PAW_PBE Co 02Aug2007                  :
 energy of atom  2       EATOM= -813.3670
 kinetic energy error for atom=    0.0026 (will be added to EATOM!!)
  PAW_PBE Ni 02Aug2007                  :
 energy of atom  3       EATOM=-1077.6739
 kinetic energy error for atom=    0.0027 (will be added to EATOM!!)
  PAW_PBE H 15Jun2001                   :
 energy of atom  4       EATOM=  -12.4884
 kinetic energy error for atom=    0.0008 (will be added to EATOM!!)
 
 
 POSCAR: 11.26                                   
  positions in direct lattice
  velocities in cartesian coordinates
 exchange correlation table for  LEXCH =        8
   RHO(1)=    0.500       N(1)  =     2000
   RHO(2)=  100.500       N(2)  =     4000
 


--------------------------------------------------------------------------------------------------------


 ion  position               nearest neighbor table
   1  0.789  0.879  0.301-  49 2.47  59 2.56  60 2.64  28 2.69   4 2.73   2 2.74  29 2.75  19 2.80
                            11 2.85  12 2.85  61 2.89  33 2.94
   2  0.033  0.879  0.293-  79 2.49  77 2.57  60 2.72   1 2.74  28 2.76   4 2.81   6 2.89  30 2.90
                            16 2.94  33 2.99  22 3.17  52 3.23
   3  0.276  0.362  0.311-  64 2.54  68 2.62  31 2.63  39 2.67  33 2.70   5 2.71  30 2.76  13 2.76
                            25 2.78  19 2.81  43 2.82  18 2.87
   4  0.875  0.964  0.400-  60 2.71   9 2.72  17 2.72   1 2.73   6 2.79  16 2.79  12 2.81   2 2.81
                            11 2.83
   5  0.113  0.467  0.410-  39 2.60  33 2.70   3 2.71  12 2.72  16 2.73  10 2.76   7 2.77  25 2.85
                            13 2.98
   6  0.125  0.959  0.400-  52 2.62  22 2.70   4 2.79   8 2.83  16 2.86   9 2.88   2 2.89  10 2.90
                            14 2.91
   7  0.873  0.455  0.412-  75 2.54  39 2.58   5 2.77  10 2.79  27 2.80   9 2.80  29 2.82  15 2.84
                            12 2.93
   8  0.377  0.956  0.415-  81 1.62  43 2.53  52 2.56  61 2.68  13 2.75  27 2.80  11 2.81   6 2.83
                            10 2.84  14 2.90
   9  0.864  0.211  0.396-  75 2.60  22 2.67   4 2.72  17 2.73  15 2.74  60 2.77   7 2.80   6 2.88
                            10 3.01
  10  0.129  0.214  0.413-  22 2.64  43 2.69  13 2.72   5 2.76  39 2.77   7 2.79   8 2.84   6 2.90
                             9 3.01
  11  0.629  0.952  0.410-  81 1.79  61 2.65  12 2.71  19 2.73  27 2.76  17 2.79  13 2.81   8 2.81
                             4 2.83   1 2.85
  12  0.875  0.714  0.408-  29 2.66  16 2.68  11 2.71   5 2.72   4 2.81  33 2.81  27 2.83   1 2.85
                             7 2.93
  13  0.378  0.200  0.413-  43 2.70  10 2.72  19 2.73   8 2.75   3 2.76  25 2.78  17 2.80  11 2.81
                             5 2.98
  14  0.381  0.696  0.403-  52 2.55  44 2.56  15 2.69  25 2.81  27 2.84  30 2.88  16 2.90   8 2.90
                             6 2.91
  15  0.620  0.456  0.399-  75 2.53  44 2.61  14 2.69   9 2.74  25 2.79  17 2.83   7 2.84  18 2.85
                            27 2.87
  16  0.116  0.709  0.404-  12 2.68  30 2.69   5 2.73  33 2.76   4 2.79   6 2.86  14 2.90  25 2.92
                             2 2.94
  17  0.627  0.201  0.404-  18 2.69   4 2.72   9 2.73  19 2.79  11 2.79  25 2.79  13 2.80  60 2.82
                            15 2.83
  18  0.538  0.348  0.301-  67 2.46  26 2.59  68 2.67  17 2.69  60 2.69  19 2.70  25 2.82  15 2.85
                             3 2.87  30 2.95  75 3.20
  19  0.527  0.113  0.308-  59 2.47  80 2.51  68 2.57  43 2.61  61 2.63  18 2.70  13 2.73  11 2.73
                            17 2.79   1 2.80   3 2.81  60 2.92
  20  0.546  0.126  0.067-  48 2.50  57 2.52  47 2.52  62 2.53  37 2.60  56 2.66  34 2.70  63 2.89

  21  0.118  0.408  0.119-  47 2.44  40 2.48  36 2.49  69 2.60  57 2.64  42 2.67  64 2.70  70 2.72
                            31 2.74  50 3.30
  22  0.055  0.148  0.310-  77 2.43  65 2.51  55 2.51  43 2.57  39 2.62  10 2.64   9 2.67   6 2.70
                            75 2.90  31 3.04  52 3.05   2 3.17  60 3.23
  23  0.009  0.102  0.049-  40 2.49  62 2.55  70 2.57  41 2.59  45 2.66  76 2.69  24 2.70  35 2.74
                            53 3.07
  24  0.138  0.927  0.142-  79 2.46  35 2.50  77 2.54  58 2.54  53 2.56  55 2.59  38 2.59  73 2.64
                            70 2.65  23 2.70  66 2.83
  25  0.376  0.448  0.407-  30 2.76  13 2.78   3 2.78  15 2.79  17 2.79  14 2.81  18 2.82   5 2.85
                            16 2.92
  26  0.480  0.554  0.230-  74 2.50  73 2.52  44 2.52  51 2.59  18 2.59  79 2.60  78 2.62  30 2.63
                            32 2.66  67 2.70
  27  0.627  0.707  0.413-  81 1.72  44 2.49  61 2.70  11 2.76   7 2.80   8 2.80  29 2.80  12 2.83
                            14 2.84  15 2.87
  28  0.953  0.759  0.204-  58 2.53  50 2.61  66 2.61  42 2.62  36 2.63  33 2.66   1 2.69   2 2.76
                            64 2.80  49 2.88  34 3.22  59 3.23  35 3.30
  29  0.797  0.631  0.311-  39 2.59  32 2.61  49 2.62  75 2.62  42 2.63  33 2.64  44 2.65  12 2.66
                             1 2.75  27 2.80   7 2.82  61 2.84
  30  0.274  0.608  0.304-  79 2.43  33 2.60  26 2.63  64 2.65  16 2.69  25 2.76   3 2.76  14 2.88
                             2 2.90  18 2.95  52 3.26
  31  0.187  0.262  0.225-  70 2.52  57 2.57  65 2.58  55 2.59  39 2.62   3 2.63  43 2.63  42 2.72
                            80 2.73  21 2.74  68 2.76  64 2.79  22 3.04
  32  0.711  0.561  0.214-  69 2.53  51 2.56  54 2.61  29 2.61  49 2.62  26 2.66  65 2.66  50 2.66
                            42 2.68  75 2.69  78 2.71  67 2.73  44 2.73
  33  0.042  0.609  0.305-  42 2.47  64 2.50  39 2.51  30 2.60  29 2.64  28 2.66   5 2.70   3 2.70
                            16 2.76  12 2.81   1 2.94   2 2.99
  34  0.782  0.884  0.080-  48 2.38  35 2.38  50 2.53  66 2.54  36 2.55  62 2.67  20 2.70  28 3.22

  35  0.002  0.866  0.072-  36 2.37  34 2.38  66 2.43  24 2.50  58 2.60  23 2.74  62 2.75  28 3.30

  36  0.006  0.657  0.094-  50 2.33  35 2.37  58 2.38  21 2.49  34 2.55  28 2.63
  37  0.628  0.234  0.150-  41 2.41  56 2.42  59 2.43  67 2.44  62 2.45  68 2.50  51 2.50  74 2.51
                            20 2.60  66 2.60
  38  0.361  0.942  0.135-  53 2.40  45 2.41  63 2.42  57 2.43  48 2.45  55 2.45  54 2.46  78 2.48
                            80 2.54  73 2.59  24 2.59  70 2.83
  39  0.024  0.396  0.316-  42 2.46  33 2.51   7 2.58  75 2.58  65 2.58  29 2.59   5 2.60  31 2.62
                            22 2.62   3 2.67  10 2.77
  40  0.013  0.321  0.044-  69 2.32  76 2.45  21 2.48  23 2.49  70 2.51  45 2.63  71 2.93
  41  0.844  0.228  0.139-  67 2.35  76 2.37  77 2.38  37 2.41  62 2.44  51 2.48  69 2.48  66 2.49
                            65 2.58  23 2.59  70 2.61
  42  0.967  0.520  0.219-  39 2.46  33 2.47  50 2.48  64 2.48  65 2.50  28 2.62  29 2.63  69 2.65
                            21 2.67  32 2.68  31 2.72
  43  0.303  0.099  0.319-  52 2.45  80 2.46  55 2.51   8 2.53  61 2.56  22 2.57  19 2.61  31 2.63
                            10 2.69  13 2.70   3 2.82
  44  0.553  0.648  0.317-  61 2.45  78 2.47  27 2.49  26 2.52  14 2.56  52 2.57  15 2.61  29 2.65
                            75 2.73  32 2.73
  45  0.251  0.091  0.049-  38 2.41  57 2.45  53 2.48  70 2.50  63 2.54  40 2.63  23 2.66
  46  0.529  0.612  0.047-  54 2.37  73 2.44  51 2.45  71 2.47  72 2.53  53 2.63  56 2.72  76 2.87
                            63 3.07
  47  0.334  0.361  0.072-  74 2.29  56 2.44  21 2.44  57 2.50  72 2.50  20 2.52
  48  0.581  0.937  0.137-  49 2.29  63 2.35  34 2.38  54 2.38  80 2.38  38 2.45  59 2.46  20 2.50
                            57 2.63  50 2.74
  49  0.677  0.809  0.223-  48 2.29  50 2.34  61 2.46  78 2.47   1 2.47  59 2.54  80 2.57  29 2.62
                            32 2.62  54 2.79  28 2.88
  50  0.810  0.679  0.140-  36 2.33  49 2.34  54 2.38  71 2.39  42 2.48  69 2.52  34 2.53  28 2.61
                            32 2.66  48 2.74  21 3.30
  51  0.629  0.454  0.133-  56 2.40  76 2.44  46 2.45  41 2.48  37 2.50  67 2.53  32 2.56  26 2.59
                            74 2.59  69 2.66  73 2.78  54 2.83
  52  0.320  0.872  0.317-  55 2.38  79 2.41  61 2.43  43 2.45  78 2.46  14 2.55   8 2.56  44 2.57
                             6 2.62  22 3.05   2 3.23  30 3.26
  53  0.299  0.850  0.050-  73 2.39  38 2.40  45 2.48  24 2.56  63 2.58  46 2.63  72 2.82  23 3.07

  54  0.581  0.726  0.124-  46 2.37  50 2.38  48 2.38  73 2.40  71 2.42  63 2.42  38 2.46  78 2.50
                            32 2.61  49 2.79  51 2.83
  55  0.229  0.013  0.230-  52 2.38  80 2.44  79 2.44  38 2.45  43 2.51  22 2.51  78 2.56  24 2.59
                            31 2.59  77 2.61  70 2.62
  56  0.549  0.361  0.055-  51 2.40  37 2.42  47 2.44  74 2.52  76 2.56  62 2.60  72 2.61  20 2.66
                            46 2.72
  57  0.344  0.167  0.132-  38 2.43  45 2.45  80 2.47  47 2.50  20 2.52  68 2.55  31 2.57  48 2.63
                            21 2.64  70 2.71
  58  0.176  0.684  0.148-  36 2.38  72 2.39  64 2.41  73 2.43  28 2.53  79 2.53  24 2.54  74 2.56
                            35 2.60
  59  0.661  0.042  0.213-  66 2.38  37 2.43  48 2.46  19 2.47  49 2.54  68 2.55   1 2.56  80 2.59
                            60 2.68  28 3.23
  60  0.785  0.116  0.297-  67 2.47  77 2.53   1 2.64  59 2.68  18 2.69   4 2.71   2 2.72   9 2.77
                            17 2.82  19 2.92  22 3.23
  61  0.536  0.875  0.316-  52 2.43  44 2.45  49 2.46  78 2.48  80 2.51  43 2.56  19 2.63  11 2.65
                             8 2.68  27 2.70  29 2.84   1 2.89
  62  0.773  0.123  0.060-  66 2.43  41 2.44  37 2.45  20 2.53  23 2.55  56 2.60  76 2.63  34 2.67
                            35 2.75
  63  0.500  0.898  0.045-  48 2.35  54 2.42  38 2.42  45 2.54  53 2.58  20 2.89  46 3.07
  64  0.196  0.505  0.214-  58 2.41  42 2.48  33 2.50  74 2.52   3 2.54  30 2.65  68 2.66  21 2.70
                            31 2.79  28 2.80
  65  0.935  0.315  0.226-  75 2.39  69 2.40  67 2.41  77 2.43  42 2.50  22 2.51  70 2.53  41 2.58
                            31 2.58  39 2.58  32 2.66
  66  0.858  0.002  0.156-  77 2.38  59 2.38  62 2.43  35 2.43  41 2.49  34 2.54  37 2.60  28 2.61
                            24 2.83
  67  0.721  0.315  0.230-  41 2.35  75 2.39  65 2.41  37 2.44  18 2.46  60 2.47  51 2.53  26 2.70
                            77 2.70  32 2.73
  68  0.430  0.266  0.214-  74 2.43  37 2.50  57 2.55  59 2.55  19 2.57   3 2.62  80 2.64  64 2.66
                            18 2.67  31 2.76
  69  0.877  0.430  0.129-  40 2.32  71 2.34  65 2.40  41 2.48  76 2.49  50 2.52  32 2.53  21 2.60
                            42 2.65  70 2.65  51 2.66
  70  0.096  0.181  0.140-  45 2.50  40 2.51  31 2.52  65 2.53  23 2.57  41 2.61  55 2.62  24 2.65
                            69 2.65  57 2.71  21 2.72  77 2.83  38 2.83
  71  0.760  0.589  0.052-  69 2.34  50 2.39  54 2.42  46 2.47  76 2.56  40 2.93
  72  0.315  0.592  0.059-  58 2.39  74 2.39  73 2.42  47 2.50  46 2.53  56 2.61  53 2.82
  73  0.382  0.701  0.136-  53 2.39  54 2.40  72 2.42  58 2.43  46 2.44  79 2.49  26 2.52  38 2.59
                            78 2.60  24 2.64  74 2.69  51 2.78
  74  0.400  0.454  0.149-  47 2.29  72 2.39  68 2.43  26 2.50  37 2.51  56 2.52  64 2.52  58 2.56
                            51 2.59  73 2.69
  75  0.792  0.401  0.314-  67 2.39  65 2.39  15 2.53   7 2.54  39 2.58   9 2.60  29 2.62  32 2.69
                            44 2.73  22 2.90  18 3.20
  76  0.781  0.351  0.046-  41 2.37  51 2.44  40 2.45  69 2.49  71 2.56  56 2.56  62 2.63  23 2.69
                            46 2.87
  77  0.970  0.084  0.222-  41 2.38  66 2.38  65 2.43  22 2.43  60 2.53  24 2.54   2 2.57  55 2.61
                            67 2.70  70 2.83
  78  0.465  0.795  0.225-  52 2.46  49 2.47  44 2.47  61 2.48  79 2.48  38 2.48  80 2.48  54 2.50
                            55 2.56  73 2.60  26 2.62  32 2.71
  79  0.249  0.786  0.233-  52 2.41  30 2.43  55 2.44  24 2.46  78 2.48  73 2.49   2 2.49  58 2.53
                            26 2.60
  80  0.439  0.028  0.225-  48 2.38  55 2.44  43 2.46  57 2.47  78 2.48  19 2.51  61 2.51  38 2.54
                            49 2.57  59 2.59  68 2.64  31 2.73
  81  0.535  0.875  0.438-   8 1.62  27 1.72  11 1.79
 
  LATTYP: Found a hexagonal cell.
 ALAT       =    11.2227001190
 C/A-ratio  =     1.9603125600
  
  Lattice vectors:
  
 A1 = (   5.6113500595,  -9.7191434021,   0.0000000000)
 A2 = ( -11.2227001190,   0.0000000000,   0.0000000000)
 A3 = (   0.0000000000,   0.0000000000, -22.0000000000)


Analysis of symmetry for initial positions (statically):
=====================================================================
 Subroutine PRICEL returns:
 Original cell was already a primitive cell.
 

 Routine SETGRP: Setting up the symmetry group for a 
 hexagonal supercell.


 Subroutine GETGRP returns: Found  1 space group operations
 (whereof  1 operations were pure point group operations)
 out of a pool of 24 trial point group operations.


The static configuration has the point symmetry C_1 .


Analysis of symmetry for dynamics (positions and initial velocities):
=====================================================================
 Subroutine PRICEL returns:
 Original cell was already a primitive cell.
 

 Routine SETGRP: Setting up the symmetry group for a 
 hexagonal supercell.


 Subroutine GETGRP returns: Found  1 space group operations
 (whereof  1 operations were pure point group operations)
 out of a pool of 24 trial point group operations.


The dynamic configuration has the point symmetry C_1 .


Analysis of constrained symmetry for selective dynamics:
=====================================================================
 Subroutine PRICEL returns:
 Original cell was already a primitive cell.
 

 Routine SETGRP: Setting up the symmetry group for a 
 hexagonal supercell.


 Subroutine GETGRP returns: Found  1 space group operations
 (whereof  1 operations were pure point group operations)
 out of a pool of 24 trial point group operations.


The constrained configuration has the point symmetry C_1 .


Analysis of structural, dynamic, and magnetic symmetry:
=====================================================================
 Subroutine PRICEL returns:
 Original cell was already a primitive cell.
 

 Routine SETGRP: Setting up the symmetry group for a 
 hexagonal supercell.


 Subroutine GETGRP returns: Found  1 space group operations
 (whereof  1 operations were pure point group operations)
 out of a pool of 24 trial point group operations.


The magnetic configuration has the point symmetry C_1 .


 Subroutine INISYM returns: Found  1 space group operations
 (whereof  1 operations are pure point group operations),
 and found     1 'primitive' translations

 
 
 KPOINTS: mesh auto                               

Automatic generation of k-mesh.
Space group operators:
 irot       det(A)        alpha          n_x          n_y          n_z        tau_x        tau_y        tau_z
    1     1.000000     0.000000     1.000000     0.000000     0.000000     0.000000     0.000000     0.000000
 
 Subroutine IBZKPT returns following result:
 ===========================================
 
 Found      4 irreducible k-points:
 
 Following reciprocal coordinates:
            Coordinates               Weight
  0.000000  0.000000  0.000000      1.000000
  0.500000  0.000000  0.000000      1.000000
  0.000000  0.500000  0.000000      1.000000
  0.500000  0.500000  0.000000      1.000000
 
 Following cartesian coordinates:
            Coordinates               Weight
  0.000000  0.000000  0.000000      1.000000
  0.044553 -0.025722  0.000000      1.000000
  0.000000  0.051445  0.000000      1.000000
  0.044553  0.025722  0.000000      1.000000
 


--------------------------------------------------------------------------------------------------------




 Dimension of arrays:
   k-points           NKPTS =      4   k-points in BZ     NKDIM =      4   number of bands    NBANDS=    576
   number of dos      NEDOS =    301   number of ions     NIONS =     81
   non local maximal  LDIM  =      6   non local SUM 2l+1 LMDIM =     18
   total plane-waves  NPLWV = ******
   max r-space proj   IRMAX =   7929   max aug-charges    IRDMAX=  34542
   dimension x,y,z NGX =    90 NGY =   90 NGZ =  168
   dimension x,y,z NGXF=   180 NGYF=  180 NGZF=  336
   support grid    NGXF=   180 NGYF=  180 NGZF=  336
   ions per type =              32  23  25   1
   NGX,Y,Z   is equivalent  to a cutoff of  13.33, 13.33, 12.70 a.u.
   NGXF,Y,Z  is equivalent  to a cutoff of  26.66, 26.66, 25.39 a.u.

 SYSTEM =  Pt111                                   
 POSCAR =  11.26                                   

 Startparameter for this run:
   NWRITE =      2    write-flag & timer
   PREC   = accura    normal or accurate (medium, high low for compatibility)
   ISTART =      0    job   : 0-new  1-cont  2-samecut
   ICHARG =      2    charge: 1-file 2-atom 10-const
   ISPIN  =      2    spin polarized calculation?
   LNONCOLLINEAR =      F non collinear calculations
   LSORBIT =      F    spin-orbit coupling
   INIWAV =      1    electr: 0-lowe 1-rand  2-diag
   LASPH  =      F    aspherical Exc in radial PAW
   METAGGA=      F    non-selfconsistent MetaGGA calc.

 Electronic Relaxation 1
   ENCUT  =  550.0 eV  40.42 Ry    6.36 a.u.  21.46 21.46 42.07*2*pi/ulx,y,z
   ENINI  =  550.0     initial cutoff
   ENAUG  =  544.6 eV  augmentation charge cutoff
   NELM   =    200;   NELMIN=  2; NELMDL= -5     # of ELM steps 
   EDIFF  = 0.1E-04   stopping-criterion for ELM
   LREAL  =      T    real-space projection
   NLSPLINE    = F    spline interpolate recip. space projectors
   LCOMPAT=      F    compatible to vasp.4.4
   GGA_COMPAT  = T    GGA compatible to vasp.4.4-vasp.4.6
   LMAXPAW     = -100 max onsite density
   LMAXMIX     =    2 max onsite mixed and CHGCAR
   VOSKOWN=      0    Vosko Wilk Nusair interpolation
   ROPT   =   -0.00025  -0.00025  -0.00025  -0.00025
 Ionic relaxation
   EDIFFG = -.5E-01   stopping-criterion for IOM
   NSW    =    300    number of steps for IOM
   NBLOCK =      1;   KBLOCK =    300    inner block; outer block 
   IBRION =      2    ionic relax: 0-MD 1-quasi-New 2-CG
   NFREE  =      1    steps in history (QN), initial steepest desc. (CG)
   ISIF   =      2    stress and relaxation
   IWAVPR =     11    prediction:  0-non 1-charg 2-wave 3-comb
   ISYM   =      2    0-nonsym 1-usesym 2-fastsym
   LCORR  =      T    Harris-Foulkes like correction to forces

   POTIM  = 0.5000    time-step for ionic-motion
   TEIN   =    0.0    initial temperature
   TEBEG  =    0.0;   TEEND  =   0.0 temperature during run
   SMASS  =  -3.00    Nose mass-parameter (am)
   estimated Nose-frequenzy (Omega)   =  0.10E-29 period in steps =****** mass=  -0.288E-26a.u.
   SCALEE = 1.0000    scale energy and forces
   NPACO  =    256;   APACO  = 16.0  distance and # of slots for P.C.
   PSTRESS=    0.0 pullay stress

  Mass of Ions in am
   POMASS = 195.08 58.93 58.69  1.00
  Ionic Valenz
   ZVAL   =  10.00  9.00 10.00  1.00
  Atomic Wigner-Seitz radii
   RWIGS  =  -1.00 -1.00 -1.00 -1.00
  virtual crystal weights 
   VCA    =   1.00  1.00  1.00  1.00
   NELECT =     778.0000    total number of electrons
   NUPDOWN=      -1.0000    fix difference up-down

 DOS related values:
   EMIN   =  10.00;   EMAX   =-10.00  energy-range for DOS
   EFERMI =   0.00
   ISMEAR =     1;   SIGMA  =   0.10  broadening in eV -4-tet -1-fermi 0-gaus

 Electronic relaxation 2 (details)
   IALGO  =     68    algorithm
   LDIAG  =      T    sub-space diagonalisation (order eigenvalues)
   LSUBROT=      F    optimize rotation matrix (better conditioning)
   TURBO    =      0    0=normal 1=particle mesh
   IRESTART =      0    0=no restart 2=restart with 2 vectors
   NREBOOT  =      0    no. of reboots
   NMIN     =      0    reboot dimension
   EREF     =   0.00    reference energy to select bands
   IMIX   =      4    mixing-type and parameters
     AMIX     =   0.40;   BMIX     =  1.00
     AMIX_MAG =   1.60;   BMIX_MAG =  1.00
     AMIN     =   0.10
     WC   =   100.;   INIMIX=   1;  MIXPRE=   1;  MAXMIX= -45

 Intra band minimization:
   WEIMIN = 0.0010     energy-eigenvalue tresh-hold
   EBREAK =  0.43E-08  absolut break condition
   DEPER  =   0.30     relativ break condition  

   TIME   =   0.40     timestep for ELM

  volume/ion in A,a.u.               =      29.63       199.92
  Fermi-wavevector in a.u.,A,eV,Ry     =   1.124653  2.125287 17.209264  1.264845
  Thomas-Fermi vector in A             =   2.261326
 
 Write flags
   LWAVE        =      F    write WAVECAR
   LDOWNSAMPLE  =      F    k-point downsampling of WAVECAR
   LCHARG       =      F    write CHGCAR
   LVTOT        =      F    write LOCPOT, total local potential
   LVHAR        =      F    write LOCPOT, Hartree potential only
   LELF         =      F    write electronic localiz. function (ELF)
   LORBIT       =      0    0 simple, 1 ext, 2 COOP (PROOUT), +10 PAW based schemes


 Dipole corrections
   LMONO  =      F    monopole corrections only (constant potential shift)
   LDIPOL =      F    correct potential (dipole corrections)
   IDIPOL =      0    1-x, 2-y, 3-z, 4-all directions 
   EPSILON=  1.0000000 bulk dielectric constant

 Exchange correlation treatment:
   GGA     =    --    GGA type
   LEXCH   =     8    internal setting for exchange type
   VOSKOWN=      0    Vosko Wilk Nusair interpolation
   LHFCALC =     F    Hartree Fock is set to
   LHFONE  =     F    Hartree Fock one center treatment
   AEXX    =    0.0000 exact exchange contribution

 Linear response parameters
   LEPSILON=     F    determine dielectric tensor
   LRPA    =     F    only Hartree local field effects (RPA)
   LNABLA  =     F    use nabla operator in PAW spheres
   LVEL    =     F    velocity operator in full k-point grid
   LINTERFAST=   F  fast interpolation
   KINTER  =     0    interpolate to denser k-point grid
   CSHIFT  =0.1000    complex shift for real part using Kramers Kronig
   OMEGAMAX=  -1.0    maximum frequency
   DEG_THRESHOLD= 0.2000000E-02 threshold for treating states as degnerate
   RTIME   =   -0.100 relaxation time in fs
  (WPLASMAI=    0.000 imaginary part of plasma frequency in eV, 0.658/RTIME)
   DFIELD  = 0.0000000 0.0000000 0.0000000 field for delta impulse in time
 
 Orbital magnetization related:
   ORBITALMAG=     F  switch on orbital magnetization
   LCHIMAG   =     F  perturbation theory with respect to B field
   DQ        =  0.001000  dq finite difference perturbation B field
   LLRAUG    =     F  two centre corrections for induced B field



--------------------------------------------------------------------------------------------------------


 conjugate gradient relaxation of ions
   using selective dynamics as specified on POSCAR
 charge density and potential will be updated during run
 spin polarized calculation
 RMM-DIIS sequential band-by-band and
  variant of blocked Davidson during initial phase
 perform sub-space diagonalisation
    before iterative eigenvector-optimisation
 modified Broyden-mixing scheme, WC =      100.0
 initial mixing is a Kerker type mixing with AMIX =  0.4000 and BMIX =      1.0000
 Hartree-type preconditioning will be used
 using additional bands          187
 real space projection scheme for non local part
 use partial core corrections
 calculate Harris-corrections to forces 
   (improved forces if not selfconsistent)
 use gradient corrections 
 use of overlap-Matrix (Vanderbilt PP)
 Methfessel and Paxton  Order N= 1 SIGMA  =   0.10


--------------------------------------------------------------------------------------------------------


  energy-cutoff  :      550.00
  volume of cell :     2399.65
      direct lattice vectors                 reciprocal lattice vectors
    11.222700119  0.000000000  0.000000000     0.089105116 -0.051444863  0.000000000
     5.611350060  9.719143402  0.000000000     0.000000000  0.102889726  0.000000000
     0.000000000  0.000000000 22.000000000     0.000000000  0.000000000  0.045454545

  length of vectors
    11.222700119 11.222700119 22.000000000     0.102889726  0.102889726  0.045454545


 
 k-points in units of 2pi/SCALE and weight: mesh auto                               
   0.00000000  0.00000000  0.00000000       0.250
   0.04455256 -0.02572243  0.00000000       0.250
   0.00000000  0.05144486  0.00000000       0.250
   0.04455256  0.02572243  0.00000000       0.250
 
 k-points in reciprocal lattice and weights: mesh auto                               
   0.00000000  0.00000000  0.00000000       0.250
   0.50000000  0.00000000  0.00000000       0.250
   0.00000000  0.50000000  0.00000000       0.250
   0.50000000  0.50000000  0.00000000       0.250
 
 position of ions in fractional coordinates (direct lattice) 
   0.78925998  0.87878802  0.30121222
   0.03270259  0.87918048  0.29281978
   0.27595481  0.36227641  0.31085980
   0.87452803  0.96417189  0.39986541
   0.11347695  0.46739997  0.41031125
   0.12514630  0.95929033  0.39950627
   0.87301284  0.45480225  0.41217167
   0.37701318  0.95585584  0.41523770
   0.86441231  0.21135176  0.39649291
   0.12938104  0.21430742  0.41300922
   0.62945289  0.95163036  0.40962071
   0.87531965  0.71431373  0.40848710
   0.37811308  0.20035718  0.41347329
   0.38084327  0.69648099  0.40256170
   0.62040281  0.45628506  0.39873021
   0.11607802  0.70916439  0.40358339
   0.62681720  0.20137626  0.40429930
   0.53828593  0.34754319  0.30086371
   0.52741195  0.11320966  0.30844004
   0.54569241  0.12647739  0.06683304
   0.11791659  0.40792499  0.11908862
   0.05457374  0.14826096  0.31034432
   0.00892895  0.10176852  0.04917651
   0.13783207  0.92691145  0.14197368
   0.37604756  0.44835740  0.40652188
   0.47979716  0.55399880  0.22971747
   0.62713798  0.70737237  0.41347945
   0.95252345  0.75898977  0.20420405
   0.79731901  0.63088403  0.31069021
   0.27421233  0.60849866  0.30376107
   0.18749030  0.26198206  0.22539890
   0.71089206  0.56100734  0.21410215
   0.04247202  0.60866576  0.30471865
   0.78196837  0.88367072  0.08012597
   0.00167860  0.86570870  0.07172203
   0.00649475  0.65686199  0.09367822
   0.62789021  0.23379040  0.14972974
   0.36050112  0.94235243  0.13470415
   0.02367156  0.39570538  0.31624423
   0.01296097  0.32139498  0.04442433
   0.84423970  0.22761319  0.13891977
   0.96744603  0.52048649  0.21885007
   0.30318925  0.09874004  0.31911861
   0.55336689  0.64796514  0.31680171
   0.25085454  0.09128101  0.04878728
   0.52913784  0.61162204  0.04697948
   0.33389242  0.36126594  0.07221963
   0.58147332  0.93651314  0.13694302
   0.67732667  0.80921239  0.22305304
   0.80979447  0.67906481  0.14024348
   0.62937817  0.45366950  0.13325724
   0.32036889  0.87194096  0.31726179
   0.29919813  0.84983568  0.05000644
   0.58103448  0.72612545  0.12392179
   0.22907234  0.01294552  0.22967573
   0.54871865  0.36069037  0.05545242
   0.34411655  0.16690962  0.13164412
   0.17554400  0.68420617  0.14761894
   0.66082635  0.04249037  0.21304482
   0.78516879  0.11592854  0.29690217
   0.53581451  0.87478900  0.31589053
   0.77284397  0.12278263  0.06048458
   0.50030742  0.89844953  0.04455515
   0.19571508  0.50522867  0.21438636
   0.93546177  0.31542046  0.22552712
   0.85824468  0.00195101  0.15611973
   0.72104290  0.31497628  0.22969726
   0.43002289  0.26577701  0.21377066
   0.87703755  0.42955743  0.12878365
   0.09634819  0.18069822  0.13969274
   0.75988870  0.58867799  0.05155611
   0.31527374  0.59151669  0.05925234
   0.38179216  0.70126590  0.13646584
   0.40042658  0.45377032  0.14884727
   0.79153862  0.40082537  0.31361618
   0.78089926  0.35148021  0.04598080
   0.96954404  0.08430315  0.22196820
   0.46486898  0.79463888  0.22533144
   0.24890496  0.78598962  0.23267623
   0.43862206  0.02771317  0.22450195
   0.53506799  0.87455197  0.43844976
 
 position of ions in cartesian coordinates  (Angst):
  13.78881523  8.54106679  6.62666878
   5.30040079  8.54488114  6.44203507
   5.12981781  3.52101637  6.83891552
  15.22487182  9.37092486  8.79703905
   3.89626264  4.54272733  9.02684743
   6.78739321  9.32348026  8.78913801
  12.34961596  4.42028825  9.06777677
   9.59474762  9.29009995  9.13522950
  10.88700891  2.05415809  8.72284412
   2.65455856  2.08288452  9.08620280
  12.40409210  9.24903192  9.01165573
  13.83171432  6.94251760  8.98671616
   5.36772404  1.94730018  9.09641244
   8.18228845  6.76919863  8.85635749
   9.52296988  4.43469994  8.77206466
   5.28207851  6.89247041  8.87883451
   8.16457415  1.95720479  8.89458451
   7.99120805  3.37782207  6.61900172
   6.55424518  1.10030096  6.78568086
   6.83385120  1.22925189  1.47032698
   3.61235247  3.96468152  2.61994962
   1.44440888  1.44096951  6.82757507
   0.67126575  0.98910281  1.08188317
   6.74807265  9.00878530  3.12342105
   6.73615930  4.35764984  8.94348133
   8.49330084  5.38439383  5.05378437
  11.00749549  6.87505349  9.09654801
  14.94884239  7.37673046  4.49248916
  12.48818327  6.13165233  6.83518465
   6.49190180  5.91408578  6.68274363
   3.57422044  2.54624125  4.95877580
  11.12613698  5.45251083  4.71024739
   3.89208734  5.91570976  6.70381020
  13.73438227  8.58852246  1.76277137
   4.87663302  8.41394697  1.57788465
   3.75877116  6.38413590  2.06092090
   8.35850333  2.27224245  3.29405432
   9.33366537  9.15885838  2.96349132
   2.48610016  3.84591731  6.95737300
   1.94891684  3.12368389  0.97733531
  10.75186628  2.21220519  3.05623495
  13.77798860  5.05868282  4.81470165
   3.95666700  0.95966865  7.02060946
   9.84622993  6.29766610  6.96963760
   3.32747495  0.88717326  1.07332023
   9.37038068  5.94444230  1.03354859
   5.77436416  3.51119550  1.58883193
  11.78080373  9.10210551  3.01274644
  12.14220806  7.86485128  4.90716692
  12.89855082  6.59992829  3.08535659
   9.60902083  4.40927897  2.93165935
   8.48817002  8.47451927  6.97975946
   8.12653637  8.25967484  1.10014163
  10.59531978  7.05731733  2.72627938
   2.64345207  0.12581940  5.05286608
   8.18206475  3.50560142  1.21995326
   4.79850516  1.62221856  2.89617069
   5.80939796  6.64989784  3.24761674
   7.65468432  0.41297001  4.68698615
   9.46222948  1.12672610  6.53184779
  10.92203289  8.50219970  6.94959171
   9.36237240  1.19334199  1.33066085
  10.65631497  8.73215981  0.98021322
   5.03146660  4.91038993  4.71649990
  12.26834149  3.06561666  4.96159659
   9.64277050  0.01896212  3.43463404
   9.85949038  3.06129963  5.05333976
   6.31738572  2.58312482  4.70295446
  12.25312658  4.17493029  2.83324027
   2.09524784  1.75623189  3.07324021
  11.83128130  5.72144585  1.13423452
   6.85742987  5.74903551  1.30355140
   8.21978744  6.81570388  3.00224843
   7.04013147  4.41025877  3.27463986
  11.13237201  3.89567921  6.89955600
  10.73607676  3.41608656  1.01157751
  11.35395654  0.81935443  4.88330047
   9.67608211  7.72320924  4.95729164
   7.20384860  7.63914586  5.11887697
   5.07803210  0.26934830  4.93904295
  10.91232481  8.49989599  9.64589479
 


--------------------------------------------------------------------------------------------------------


 k-point  1 :   0.0000 0.0000 0.0000  plane waves:   70321
 k-point  2 :   0.5000 0.0000 0.0000  plane waves:   70264
 k-point  3 :   0.0000 0.5000 0.0000  plane waves:   70264
 k-point  4 :   0.5000 0.5000 0.0000  plane waves:   70264

 maximum and minimum number of plane-waves per node :     17611    17530

 maximum number of plane-waves:     70321
 maximum index in each direction: 
   IXMAX=   21   IYMAX=   21   IZMAX=   42
   IXMIN=  -21   IYMIN=  -21   IZMIN=  -42


 real space projection operators:
  total allocation   :      70751.88 KBytes
  max/ min on nodes  :      18090.43      17294.97


 parallel 3D FFT for wavefunctions:
    minimum data exchange during FFTs selected (reduces bandwidth)
 parallel 3D FFT for charge:
    minimum data exchange during FFTs selected (reduces bandwidth)


 total amount of memory used by VASP MPI-rank0   243557. kBytes
=======================================================================

   base      :      30000. kBytes
   nonlr-proj:      33158. kBytes
   fftplans  :      18297. kBytes
   grid      :      51226. kBytes
   one-center:        653. kBytes
   wavefun   :     110223. kBytes
 
     INWAV:  cpu time    0.0001: real time    0.0006
 Broyden mixing: mesh for mixing (old mesh)
   NGX = 43   NGY = 43   NGZ = 85
  (NGX  =180   NGY  =180   NGZ  =336)
  gives a total of 157165 points

 initial charge density was supplied:
 charge density of overlapping atoms calculated
 number of electron     778.0000000 magnetization     206.0000000
 keeping initial charge density in first step


--------------------------------------------------------------------------------------------------------


 Maximum index for non-local projection operator         2137
 Maximum index for augmentation-charges         1121 (set IRDMAX)


--------------------------------------------------------------------------------------------------------


 First call to EWALD:  gamma=   0.132
 Maximum number of real-space cells 4x 4x 2
 Maximum number of reciprocal cells 2x 2x 4

    FEWALD:  cpu time    0.0041: real time    0.0041


--------------------------------------- Iteration      1(   1)  ---------------------------------------


    POTLOK:  cpu time    0.4208: real time    0.4237
    SETDIJ:  cpu time    0.0323: real time    0.0324
     EDDAV:  cpu time   64.5944: real time   65.1355
       DOS:  cpu time    0.0025: real time    0.0031
    --------------------------------------------
      LOOP:  cpu time   65.0501: real time   65.5947

 eigenvalue-minimisations  :  9216
 total energy-change (2. order) : 0.6871943E+04  (-0.3404507E+05)
 number of electron     778.0000000 magnetization     206.0000000
 augmentation part      778.0000000 magnetization     206.0000000

 Free energy of the ion-electron system (eV)
  ---------------------------------------------------
  alpha Z        PSCENC =      1751.32544349
  Ewald energy   TEWEN  =    237229.07316784
  -Hartree energ DENC   =   -307283.02513034
  -exchange      EXHF   =         0.00000000
  -V(xc)+E(xc)   XCENC  =      1334.91728391
  PAW double counting   =     62871.68470781   -64853.88848185
  entropy T*S    EENTRO =        -0.00058306
  eigenvalues    EBANDS =      6828.51107407
  atomic energy  EATOM  =     68993.34587830
  Solvation  Ediel_sol  =         0.00000000
  ---------------------------------------------------
  free energy    TOTEN  =      6871.94336016 eV

  energy without entropy =     6871.94394323  energy(sigma->0) =     6871.94355452


--------------------------------------------------------------------------------------------------------




--------------------------------------- Iteration      1(   2)  ---------------------------------------


     EDDAV:  cpu time   64.0678: real time   64.2541
       DOS:  cpu time    0.0027: real time    0.0034
    --------------------------------------------
      LOOP:  cpu time   64.0704: real time   64.2575

 eigenvalue-minimisations  :  9216
 total energy-change (2. order) :-0.6438953E+04  (-0.5814855E+04)
 number of electron     778.0000000 magnetization     206.0000000
 augmentation part      778.0000000 magnetization     206.0000000

 Free energy of the ion-electron system (eV)
  ---------------------------------------------------
  alpha Z        PSCENC =      1751.32544349
  Ewald energy   TEWEN  =    237229.07316784
  -Hartree energ DENC   =   -307283.02513034
  -exchange      EXHF   =         0.00000000
  -V(xc)+E(xc)   XCENC  =      1334.91728391
  PAW double counting   =     62871.68470781   -64853.88848185
  entropy T*S    EENTRO =        -0.00658774
  eigenvalues    EBANDS =       389.56448353
  atomic energy  EATOM  =     68993.34587830
  Solvation  Ediel_sol  =         0.00000000
  ---------------------------------------------------
  free energy    TOTEN  =       432.99076495 eV

  energy without entropy =      432.99735269  energy(sigma->0) =      432.99296086


--------------------------------------------------------------------------------------------------------




--------------------------------------- Iteration      1(   3)  ---------------------------------------


     EDDAV:  cpu time   66.8264: real time   67.0121
       DOS:  cpu time    0.0029: real time    0.0052
    --------------------------------------------
      LOOP:  cpu time   66.8294: real time   67.0173

 eigenvalue-minimisations  :  9756
 total energy-change (2. order) :-0.8800377E+03  (-0.7316725E+03)
 number of electron     778.0000000 magnetization     206.0000000
 augmentation part      778.0000000 magnetization     206.0000000

 Free energy of the ion-electron system (eV)
  ---------------------------------------------------
  alpha Z        PSCENC =      1751.32544349
  Ewald energy   TEWEN  =    237229.07316784
  -Hartree energ DENC   =   -307283.02513034
  -exchange      EXHF   =         0.00000000
  -V(xc)+E(xc)   XCENC  =      1334.91728391
  PAW double counting   =     62871.68470781   -64853.88848185
  entropy T*S    EENTRO =        -0.00063964
  eigenvalues    EBANDS =      -490.47921439
  atomic energy  EATOM  =     68993.34587830
  Solvation  Ediel_sol  =         0.00000000
  ---------------------------------------------------
  free energy    TOTEN  =      -447.04698487 eV

  energy without entropy =     -447.04634523  energy(sigma->0) =     -447.04677166


--------------------------------------------------------------------------------------------------------




--------------------------------------- Iteration      1(   4)  ---------------------------------------


     EDDAV:  cpu time   69.4721: real time   69.7418
       DOS:  cpu time    0.0028: real time    0.0034
    --------------------------------------------
      LOOP:  cpu time   69.4749: real time   69.7452

 eigenvalue-minimisations  : 10260
 total energy-change (2. order) :-0.5689858E+02  (-0.5475795E+02)
 number of electron     778.0000000 magnetization     206.0000000
 augmentation part      778.0000000 magnetization     206.0000000

 Free energy of the ion-electron system (eV)
  ---------------------------------------------------
  alpha Z        PSCENC =      1751.32544349
  Ewald energy   TEWEN  =    237229.07316784
  -Hartree energ DENC   =   -307283.02513034
  -exchange      EXHF   =         0.00000000
  -V(xc)+E(xc)   XCENC  =      1334.91728391
  PAW double counting   =     62871.68470781   -64853.88848185
  entropy T*S    EENTRO =        -0.00132331
  eigenvalues    EBANDS =      -547.37710655
  atomic energy  EATOM  =     68993.34587830
  Solvation  Ediel_sol  =         0.00000000
  ---------------------------------------------------
  free energy    TOTEN  =      -503.94556070 eV

  energy without entropy =     -503.94423739  energy(sigma->0) =     -503.94511960


--------------------------------------------------------------------------------------------------------




--------------------------------------- Iteration      1(   5)  ---------------------------------------


     EDDAV:  cpu time   72.3278: real time   72.5643
       DOS:  cpu time    0.0028: real time    0.0037
    CHARGE:  cpu time    4.4814: real time    4.4934
    MIXING:  cpu time    0.0112: real time    0.0113
    --------------------------------------------
      LOOP:  cpu time   76.8232: real time   77.0727

 eigenvalue-minimisations  : 10812
 total energy-change (2. order) :-0.1104543E+01  (-0.1102593E+01)
 number of electron     778.0000030 magnetization     194.1315764
 augmentation part      338.1250869 magnetization     164.5092000

 Broyden mixing:
  rms(total) = 0.10682E+02    rms(broyden)= 0.10682E+02
  rms(prec ) = 0.11051E+02
  weight for this iteration     100.00

 Free energy of the ion-electron system (eV)
  ---------------------------------------------------
  alpha Z        PSCENC =      1751.32544349
  Ewald energy   TEWEN  =    237229.07316784
  -Hartree energ DENC   =   -307283.02513034
  -exchange      EXHF   =         0.00000000
  -V(xc)+E(xc)   XCENC  =      1334.91728391
  PAW double counting   =     62871.68470781   -64853.88848185
  entropy T*S    EENTRO =        -0.00147600
  eigenvalues    EBANDS =      -548.48149677
  atomic energy  EATOM  =     68993.34587830
  Solvation  Ediel_sol  =         0.00000000
  ---------------------------------------------------
  free energy    TOTEN  =      -505.05010361 eV

  energy without entropy =     -505.04862762  energy(sigma->0) =     -505.04961161


--------------------------------------------------------------------------------------------------------




--------------------------------------- Iteration      1(   6)  ---------------------------------------


    POTLOK:  cpu time    0.4071: real time    0.4093
    SETDIJ:  cpu time    0.0330: real time    0.0331
    EDDIAG:  cpu time   11.6788: real time   11.7101
  RMM-DIIS:  cpu time   41.2081: real time   41.3178
    ORTHCH:  cpu time    1.2027: real time    1.2060
       DOS:  cpu time    0.0023: real time    0.0023
    CHARGE:  cpu time    4.3233: real time    4.3348
    MIXING:  cpu time    0.0114: real time    0.0119
    --------------------------------------------
      LOOP:  cpu time   58.8667: real time   59.0253

 eigenvalue-minimisations  :  9409
 total energy-change (2. order) :-0.2515089E+03  (-0.9963686E+02)
 number of electron     778.0000040 magnetization     190.8232270
 augmentation part      408.7021988 magnetization     162.4186954

 Broyden mixing:
  rms(total) = 0.20834E+02    rms(broyden)= 0.20833E+02
  rms(prec ) = 0.25935E+02
  weight for this iteration     100.00

 eigenvalues of (default mixing * dielectric matrix)
  average eigenvalue GAMMA=   0.1758
  0.1758

 Free energy of the ion-electron system (eV)
  ---------------------------------------------------
  alpha Z        PSCENC =      1751.32544349
  Ewald energy   TEWEN  =    237229.07316784
  -Hartree energ DENC   =   -306001.14169783
  -exchange      EXHF   =         0.00000000
  -V(xc)+E(xc)   XCENC  =      1289.55211895
  PAW double counting   =     67993.09393616   -69745.57036451
  entropy T*S    EENTRO =         0.00776642
  eigenvalues    EBANDS =     -2266.24523662
  atomic energy  EATOM  =     68993.34587830
  Solvation  Ediel_sol  =         0.00000000
  ---------------------------------------------------
  free energy    TOTEN  =      -756.55898781 eV

  energy without entropy =     -756.56675422  energy(sigma->0) =     -756.56157661


--------------------------------------------------------------------------------------------------------




--------------------------------------- Iteration      1(   7)  ---------------------------------------


    POTLOK:  cpu time    0.4077: real time    0.4143
    SETDIJ:  cpu time    0.0328: real time    0.0330
    EDDIAG:  cpu time   11.6397: real time   11.6794
  RMM-DIIS:  cpu time   40.5337: real time   40.6708
    ORTHCH:  cpu time    1.2024: real time    1.2055
       DOS:  cpu time    0.0024: real time    0.0024
    CHARGE:  cpu time    4.3299: real time    4.3479
    MIXING:  cpu time    0.0119: real time    0.0121
    --------------------------------------------
      LOOP:  cpu time   58.1605: real time   58.3654

 eigenvalue-minimisations  :  9239
 total energy-change (2. order) : 0.2399093E+03  (-0.1719211E+02)
 number of electron     778.0000031 magnetization     187.8821697
 augmentation part      372.0970360 magnetization     152.9688976

 Broyden mixing:
  rms(total) = 0.14969E+02    rms(broyden)= 0.14969E+02
  rms(prec ) = 0.18168E+02
  weight for this iteration     100.00

 eigenvalues of (default mixing * dielectric matrix)
  average eigenvalue GAMMA=   0.2163
  0.2163  0.2163

 Free energy of the ion-electron system (eV)
  ---------------------------------------------------
  alpha Z        PSCENC =      1751.32544349
  Ewald energy   TEWEN  =    237229.07316784
  -Hartree energ DENC   =   -306606.73744026
  -exchange      EXHF   =         0.00000000
  -V(xc)+E(xc)   XCENC  =      1306.05974838
  PAW double counting   =     69041.33150523   -70958.52626350
  entropy T*S    EENTRO =        -0.00132148
  eigenvalues    EBANDS =     -1272.52039453
  atomic energy  EATOM  =     68993.34587830
  Solvation  Ediel_sol  =         0.00000000
  ---------------------------------------------------
  free energy    TOTEN  =      -516.64967652 eV

  energy without entropy =     -516.64835504  energy(sigma->0) =     -516.64923603


--------------------------------------------------------------------------------------------------------




--------------------------------------- Iteration      1(   8)  ---------------------------------------


    POTLOK:  cpu time    0.4072: real time    0.4093
    SETDIJ:  cpu time    0.0333: real time    0.0334
    EDDIAG:  cpu time   11.6753: real time   11.7070
  RMM-DIIS:  cpu time   40.5805: real time   40.6964
    ORTHCH:  cpu time    1.1989: real time    1.2155
       DOS:  cpu time    0.0026: real time    0.0026
    CHARGE:  cpu time    4.3123: real time    4.3260
    MIXING:  cpu time    0.0124: real time    0.0126
    --------------------------------------------
      LOOP:  cpu time   58.2224: real time   58.4029

 eigenvalue-minimisations  :  9264
 total energy-change (2. order) : 0.8574834E+02  (-0.1330417E+02)
 number of electron     778.0000041 magnetization     180.8626165
 augmentation part      380.5646131 magnetization     142.6118723

 Broyden mixing:
  rms(total) = 0.11901E+02    rms(broyden)= 0.11901E+02
  rms(prec ) = 0.13919E+02
  weight for this iteration     100.00

 eigenvalues of (default mixing * dielectric matrix)
  average eigenvalue GAMMA=   0.3166
  0.5756  0.2820  0.0923

 Free energy of the ion-electron system (eV)
  ---------------------------------------------------
  alpha Z        PSCENC =      1751.32544349
  Ewald energy   TEWEN  =    237229.07316784
  -Hartree energ DENC   =   -306468.55009674
  -exchange      EXHF   =         0.00000000
  -V(xc)+E(xc)   XCENC  =      1310.60778301
  PAW double counting   =     69754.36548271   -71693.89076003
  entropy T*S    EENTRO =         0.00252552
  eigenvalues    EBANDS =     -1307.18075684
  atomic energy  EATOM  =     68993.34587830
  Solvation  Ediel_sol  =         0.00000000
  ---------------------------------------------------
  free energy    TOTEN  =      -430.90133274 eV

  energy without entropy =     -430.90385826  energy(sigma->0) =     -430.90217458


--------------------------------------------------------------------------------------------------------




--------------------------------------- Iteration      1(   9)  ---------------------------------------


    POTLOK:  cpu time    0.4052: real time    0.4239
    SETDIJ:  cpu time    0.0329: real time    0.0331
    EDDIAG:  cpu time   11.6774: real time   11.7101
  RMM-DIIS:  cpu time   40.5252: real time   40.6455
    ORTHCH:  cpu time    1.1961: real time    1.2258
       DOS:  cpu time    0.0026: real time    0.0026
    CHARGE:  cpu time    4.2086: real time    4.2221
    MIXING:  cpu time    0.0122: real time    0.0123
    --------------------------------------------
      LOOP:  cpu time   58.0601: real time   58.2753

 eigenvalue-minimisations  :  9226
 total energy-change (2. order) :-0.9972812E+02  (-0.1750336E+02)
 number of electron     778.0000029 magnetization     174.6767794
 augmentation part      380.6202642 magnetization     141.3452519

 Broyden mixing:
  rms(total) = 0.16608E+02    rms(broyden)= 0.16608E+02
  rms(prec ) = 0.19067E+02
  weight for this iteration     100.00

 eigenvalues of (default mixing * dielectric matrix)
  average eigenvalue GAMMA=   0.3458
  0.8526  0.3094  0.1105  0.1105

 Free energy of the ion-electron system (eV)
  ---------------------------------------------------
  alpha Z        PSCENC =      1751.32544349
  Ewald energy   TEWEN  =    237229.07316784
  -Hartree energ DENC   =   -306216.45776890
  -exchange      EXHF   =         0.00000000
  -V(xc)+E(xc)   XCENC  =      1327.99046017
  PAW double counting   =     71384.11988319   -73386.86832317
  entropy T*S    EENTRO =         0.00467187
  eigenvalues    EBANDS =     -1613.16286524
  atomic energy  EATOM  =     68993.34587830
  Solvation  Ediel_sol  =         0.00000000
  ---------------------------------------------------
  free energy    TOTEN  =      -530.62945245 eV

  energy without entropy =     -530.63412432  energy(sigma->0) =     -530.63100974


--------------------------------------------------------------------------------------------------------




--------------------------------------- Iteration      1(  10)  ---------------------------------------


    POTLOK:  cpu time    0.4078: real time    0.4104
    SETDIJ:  cpu time    0.0332: real time    0.0333
    EDDIAG:  cpu time   11.7219: real time   11.7532
  RMM-DIIS:  cpu time   40.4549: real time   40.5631
    ORTHCH:  cpu time    1.1984: real time    1.2160
       DOS:  cpu time    0.0025: real time    0.0025
    CHARGE:  cpu time    4.2650: real time    4.2761
    MIXING:  cpu time    0.0126: real time    0.0127
    --------------------------------------------
      LOOP:  cpu time   58.0963: real time   58.2674

 eigenvalue-minimisations  :  9239
 total energy-change (2. order) : 0.1124468E+03  (-0.1252914E+02)
 number of electron     778.0000036 magnetization     169.2324356
 augmentation part      381.5398146 magnetization     126.3406501

 Broyden mixing:
  rms(total) = 0.10601E+02    rms(broyden)= 0.10601E+02
  rms(prec ) = 0.13517E+02
  weight for this iteration     100.00

 eigenvalues of (default mixing * dielectric matrix)
  average eigenvalue GAMMA=   0.3509
  0.9482  0.4241  0.1461  0.1461  0.0902

 Free energy of the ion-electron system (eV)
  ---------------------------------------------------
  alpha Z        PSCENC =      1751.32544349
  Ewald energy   TEWEN  =    237229.07316784
  -Hartree energ DENC   =   -306620.75905195
  -exchange      EXHF   =         0.00000000
  -V(xc)+E(xc)   XCENC  =      1337.37832568
  PAW double counting   =     72708.49384145   -74772.46453484
  entropy T*S    EENTRO =         0.00603613
  eigenvalues    EBANDS =     -1044.58177031
  atomic energy  EATOM  =     68993.34587830
  Solvation  Ediel_sol  =         0.00000000
  ---------------------------------------------------
  free energy    TOTEN  =      -418.18266423 eV

  energy without entropy =     -418.18870036  energy(sigma->0) =     -418.18467627


--------------------------------------------------------------------------------------------------------




--------------------------------------- Iteration      1(  11)  ---------------------------------------


    POTLOK:  cpu time    0.4067: real time    0.4087
    SETDIJ:  cpu time    0.0331: real time    0.0332
    EDDIAG:  cpu time   11.6934: real time   11.7250
  RMM-DIIS:  cpu time   40.5837: real time   40.6919
    ORTHCH:  cpu time    1.2047: real time    1.2081
       DOS:  cpu time    0.0025: real time    0.0025
    CHARGE:  cpu time    4.3057: real time    4.3175
    MIXING:  cpu time    0.0130: real time    0.0131
    --------------------------------------------
      LOOP:  cpu time   58.2429: real time   58.4000

 eigenvalue-minimisations  :  9264
 total energy-change (2. order) : 0.6024000E+02  (-0.8799756E+01)
 number of electron     778.0000034 magnetization     165.1148160
 augmentation part      373.6640967 magnetization     122.7805008

 Broyden mixing:
  rms(total) = 0.96261E+01    rms(broyden)= 0.96260E+01
  rms(prec ) = 0.10463E+02
  weight for this iteration     100.00

 eigenvalues of (default mixing * dielectric matrix)
  average eigenvalue GAMMA=   0.3531
  1.0683  0.4714  0.1667  0.1667  0.1519  0.0937

 Free energy of the ion-electron system (eV)
  ---------------------------------------------------
  alpha Z        PSCENC =      1751.32544349
  Ewald energy   TEWEN  =    237229.07316784
  -Hartree energ DENC   =   -306830.21784047
  -exchange      EXHF   =         0.00000000
  -V(xc)+E(xc)   XCENC  =      1337.69502758
  PAW double counting   =     73598.61191887   -75698.27720783
  entropy T*S    EENTRO =        -0.00611244
  eigenvalues    EBANDS =      -739.49293529
  atomic energy  EATOM  =     68993.34587830
  Solvation  Ediel_sol  =         0.00000000
  ---------------------------------------------------
  free energy    TOTEN  =      -357.94265995 eV

  energy without entropy =     -357.93654751  energy(sigma->0) =     -357.94062247


--------------------------------------------------------------------------------------------------------




--------------------------------------- Iteration      1(  12)  ---------------------------------------


    POTLOK:  cpu time    0.4056: real time    0.4267
    SETDIJ:  cpu time    0.0331: real time    0.0332
    EDDIAG:  cpu time   11.6996: real time   11.7314
  RMM-DIIS:  cpu time   40.6420: real time   40.7510
    ORTHCH:  cpu time    1.2034: real time    1.2084
       DOS:  cpu time    0.0024: real time    0.0024
    CHARGE:  cpu time    4.2495: real time    4.2608
    MIXING:  cpu time    0.0134: real time    0.0136
    --------------------------------------------
      LOOP:  cpu time   58.2489: real time   58.4276

 eigenvalue-minimisations  :  9269
 total energy-change (2. order) :-0.9109942E+01  (-0.5489440E+01)
 number of electron     778.0000032 magnetization     160.6808989
 augmentation part      372.4271250 magnetization     121.7600019

 Broyden mixing:
  rms(total) = 0.11452E+02    rms(broyden)= 0.11451E+02
  rms(prec ) = 0.12840E+02
  weight for this iteration     100.00

 eigenvalues of (default mixing * dielectric matrix)
  average eigenvalue GAMMA=   0.3522
  1.1886  0.4265  0.3525  0.1451  0.1451  0.0980  0.1098

 Free energy of the ion-electron system (eV)
  ---------------------------------------------------
  alpha Z        PSCENC =      1751.32544349
  Ewald energy   TEWEN  =    237229.07316784
  -Hartree energ DENC   =   -306818.89994797
  -exchange      EXHF   =         0.00000000
  -V(xc)+E(xc)   XCENC  =      1333.79392368
  PAW double counting   =     74112.91081180   -76226.01326802
  entropy T*S    EENTRO =         0.01012605
  eigenvalues    EBANDS =      -742.59873715
  atomic energy  EATOM  =     68993.34587830
  Solvation  Ediel_sol  =         0.00000000
  ---------------------------------------------------
  free energy    TOTEN  =      -367.05260199 eV

  energy without entropy =     -367.06272803  energy(sigma->0) =     -367.05597734


--------------------------------------------------------------------------------------------------------




--------------------------------------- Iteration      1(  13)  ---------------------------------------


    POTLOK:  cpu time    0.4059: real time    0.4079
    SETDIJ:  cpu time    0.0333: real time    0.0334
    EDDIAG:  cpu time   11.8222: real time   11.8619
  RMM-DIIS:  cpu time   40.6558: real time   40.7682
    ORTHCH:  cpu time    1.2054: real time    1.2094
       DOS:  cpu time    0.0025: real time    0.0025
    CHARGE:  cpu time    4.3591: real time    4.3705
    MIXING:  cpu time    0.0138: real time    0.0139
    --------------------------------------------
      LOOP:  cpu time   58.4980: real time   58.6676

 eigenvalue-minimisations  :  9272
 total energy-change (2. order) : 0.4220413E+00  (-0.3819862E+01)
 number of electron     778.0000030 magnetization     156.0089114
 augmentation part      372.9709973 magnetization     117.6219007

 Broyden mixing:
  rms(total) = 0.10116E+02    rms(broyden)= 0.10116E+02
  rms(prec ) = 0.11280E+02
  weight for this iteration     100.00

 eigenvalues of (default mixing * dielectric matrix)
  average eigenvalue GAMMA=   0.3542
  1.2824  0.4697  0.4697  0.1484  0.1484  0.1282  0.0990  0.0877

 Free energy of the ion-electron system (eV)
  ---------------------------------------------------
  alpha Z        PSCENC =      1751.32544349
  Ewald energy   TEWEN  =    237229.07316784
  -Hartree energ DENC   =   -306917.04544760
  -exchange      EXHF   =         0.00000000
  -V(xc)+E(xc)   XCENC  =      1329.38006380
  PAW double counting   =     74639.36509009   -76762.56825220
  entropy T*S    EENTRO =        -0.00891454
  eigenvalues    EBANDS =      -629.49758990
  atomic energy  EATOM  =     68993.34587830
  Solvation  Ediel_sol  =         0.00000000
  ---------------------------------------------------
  free energy    TOTEN  =      -366.63056071 eV

  energy without entropy =     -366.62164617  energy(sigma->0) =     -366.62758920


--------------------------------------------------------------------------------------------------------




--------------------------------------- Iteration      1(  14)  ---------------------------------------


    POTLOK:  cpu time    0.4069: real time    0.4091
    SETDIJ:  cpu time    0.0331: real time    0.0332
    EDDIAG:  cpu time   11.7765: real time   11.8083
  RMM-DIIS:  cpu time   40.6574: real time   40.7810
    ORTHCH:  cpu time    1.2053: real time    1.2092
       DOS:  cpu time    0.0026: real time    0.0026
    CHARGE:  cpu time    4.3200: real time    4.3313
    MIXING:  cpu time    0.0141: real time    0.0141
    --------------------------------------------
      LOOP:  cpu time   58.4159: real time   58.5887

 eigenvalue-minimisations  :  9260
 total energy-change (2. order) : 0.2861472E+02  (-0.2954048E+01)
 number of electron     778.0000034 magnetization     153.5144703
 augmentation part      371.6024436 magnetization     113.0776927

 Broyden mixing:
  rms(total) = 0.62326E+01    rms(broyden)= 0.62325E+01
  rms(prec ) = 0.67350E+01
  weight for this iteration     100.00

 eigenvalues of (default mixing * dielectric matrix)
  average eigenvalue GAMMA=   0.3390
  1.2900  0.5054  0.5054  0.1636  0.1636  0.1231  0.1231  0.0881  0.0881

 Free energy of the ion-electron system (eV)
  ---------------------------------------------------
  alpha Z        PSCENC =      1751.32544349
  Ewald energy   TEWEN  =    237229.07316784
  -Hartree energ DENC   =   -306985.14028184
  -exchange      EXHF   =         0.00000000
  -V(xc)+E(xc)   XCENC  =      1328.14044672
  PAW double counting   =     75154.33297707   -77287.32492010
  entropy T*S    EENTRO =        -0.00402065
  eigenvalues    EBANDS =      -521.76452860
  atomic energy  EATOM  =     68993.34587830
  Solvation  Ediel_sol  =         0.00000000
  ---------------------------------------------------
  free energy    TOTEN  =      -338.01583778 eV

  energy without entropy =     -338.01181714  energy(sigma->0) =     -338.01449757


--------------------------------------------------------------------------------------------------------




--------------------------------------- Iteration      1(  15)  ---------------------------------------


    POTLOK:  cpu time    0.4076: real time    0.4266
    SETDIJ:  cpu time    0.0330: real time    0.0331
    EDDIAG:  cpu time   11.6334: real time   11.6648
  RMM-DIIS:  cpu time   40.6726: real time   40.7805
    ORTHCH:  cpu time    1.2035: real time    1.2077
       DOS:  cpu time    0.0025: real time    0.0025
    CHARGE:  cpu time    4.2869: real time    4.2982
    MIXING:  cpu time    0.0143: real time    0.0144
    --------------------------------------------
      LOOP:  cpu time   58.2538: real time   58.4278

 eigenvalue-minimisations  :  9262
 total energy-change (2. order) : 0.2742713E+01  (-0.1111520E+01)
 number of electron     778.0000035 magnetization     150.5109088
 augmentation part      371.0703337 magnetization     111.3626200

 Broyden mixing:
  rms(total) = 0.52546E+01    rms(broyden)= 0.52545E+01
  rms(prec ) = 0.56547E+01
  weight for this iteration     100.00

 eigenvalues of (default mixing * dielectric matrix)
  average eigenvalue GAMMA=   0.3441
  1.3141  0.5824  0.5824  0.2100  0.2100  0.1327  0.1327  0.0978  0.0978  0.0812

 Free energy of the ion-electron system (eV)
  ---------------------------------------------------
[...]
   -.476E+02 0.168E+02 -.271E+04   0.479E+02 -.161E+02 0.271E+04   -.240E+00 -.742E+00 0.159E+01   -.375E-01 0.175E-01 0.291E-01
   -.688E+02 -.325E+02 -.283E+04   0.679E+02 0.332E+02 0.283E+04   0.819E+00 -.659E+00 0.241E+01   0.504E-01 -.193E-01 0.211E-01
   0.103E+03 0.714E+01 -.269E+04   -.102E+03 -.808E+01 0.269E+04   -.507E+00 0.975E+00 0.201E+01   0.221E-01 0.203E-01 0.291E-01
   0.123E+02 0.967E+01 -.291E+04   -.122E+02 -.106E+02 0.291E+04   -.135E+00 0.899E+00 0.276E+01   0.726E-02 -.591E-02 0.146E-01
   0.565E+02 0.617E+01 -.296E+04   -.577E+02 -.526E+01 0.295E+04   0.120E+01 -.957E+00 0.306E+01   0.855E-02 0.456E-01 0.121E-01
   0.216E+02 0.724E+02 -.273E+04   -.224E+02 -.719E+02 0.272E+04   0.702E+00 -.475E+00 0.205E+01   0.939E-02 -.867E-02 0.733E-02
   0.613E+02 0.114E+02 -.288E+04   -.603E+02 -.110E+02 0.288E+04   -.988E+00 -.472E+00 0.262E+01   0.443E-01 0.606E-03 -.116E-01
   -.100E+03 -.249E+02 -.282E+04   0.100E+03 0.245E+02 0.282E+04   -.180E+00 0.295E+00 0.102E+01   -.951E-02 0.103E-01 -.193E-01
   -.574E+02 -.391E+02 -.278E+04   0.579E+02 0.388E+02 0.278E+04   -.527E+00 0.228E+00 0.198E+01   0.664E-02 0.705E-02 -.290E-02
   -.501E+02 -.584E+02 -.286E+04   0.500E+02 0.583E+02 0.286E+04   0.186E+00 0.967E-01 0.226E+01   -.155E-01 0.205E-01 -.333E-01
   0.106E+03 0.524E+02 -.275E+04   -.106E+03 -.525E+02 0.274E+04   -.470E+00 0.431E-01 0.252E+01   0.140E-01 -.287E-01 0.393E-01
   0.858E+02 0.475E+02 -.273E+04   -.852E+02 -.466E+02 0.273E+04   -.517E+00 -.986E+00 0.200E+01   -.279E-01 0.272E-01 0.114E-02
   -.296E+02 -.316E+02 -.270E+04   0.291E+02 0.313E+02 0.269E+04   0.480E+00 0.348E+00 0.169E+01   0.693E-02 -.599E-01 0.275E-01
   -.360E+02 -.224E+02 -.277E+04   0.360E+02 0.222E+02 0.277E+04   0.518E-01 0.198E+00 0.185E+01   -.365E-01 0.552E-02 -.897E-02
   0.447E+02 -.603E+02 -.133E+04   -.436E+02 0.593E+02 0.132E+04   -.110E+01 0.980E+00 0.200E+01   -.272E-01 -.110E-01 -.141E-01
   -.107E+03 -.769E+02 -.148E+04   0.106E+03 0.763E+02 0.148E+04   0.127E+01 0.631E+00 0.222E+01   -.406E-01 0.105E-01 -.305E-01
   0.597E+02 0.543E+02 0.278E+04   -.590E+02 -.540E+02 -.278E+04   -.657E+00 -.432E+00 -.194E+01   -.876E-02 0.693E-02 0.469E-02
   -.118E+03 -.144E+03 0.197E+04   0.118E+03 0.144E+03 -.197E+04   -.156E+00 -.381E+00 0.137E+01   0.770E-01 0.453E-02 0.740E-02
   0.730E+02 0.693E+02 -.154E+04   -.723E+02 -.688E+02 0.154E+04   -.763E+00 -.440E+00 0.176E+01   0.136E-01 -.146E-01 0.406E-01
   0.773E+01 0.189E+03 0.297E+04   -.739E+01 -.187E+03 -.296E+04   -.210E+00 -.164E+01 -.199E+01   -.279E-01 -.814E-01 0.427E-03
   0.158E+03 0.251E+02 0.147E+04   -.157E+03 -.260E+02 -.147E+04   -.765E+00 0.953E+00 -.385E+00   -.263E-01 -.171E-01 -.632E-01
   -.189E+02 -.389E+02 -.276E+04   0.190E+02 0.383E+02 0.276E+04   -.178E+00 0.586E+00 0.179E+01   -.163E-01 -.846E-02 0.152E-01
   0.107E+03 0.896E+02 -.231E+03   -.107E+03 -.893E+02 0.231E+03   0.730E-01 -.319E+00 0.159E+00   -.138E-02 -.206E-01 -.191E-01
   -.565E+01 0.435E+02 -.291E+04   0.550E+01 -.440E+02 0.291E+04   0.155E+00 0.614E+00 0.217E+01   -.859E-02 -.113E-01 -.485E-02
   -.438E+02 -.458E+02 0.335E+03   0.436E+02 0.445E+02 -.335E+03   0.154E+00 0.122E+01 -.152E+00   0.102E-01 0.191E-01 -.344E-01
   -.829E+02 -.528E+02 -.145E+04   0.832E+02 0.523E+02 0.145E+04   -.288E+00 0.520E+00 0.190E+01   -.194E-01 0.246E-01 -.762E-02
   0.114E+02 0.665E+01 -.133E+04   -.121E+02 -.604E+01 0.133E+04   0.707E+00 -.523E+00 0.192E+01   0.286E-02 -.370E-01 -.139E-01
   -.650E+02 -.987E+02 -.256E+02   0.646E+02 0.982E+02 0.253E+02   0.354E+00 0.520E+00 0.274E+00   0.646E-01 -.165E-01 -.634E-02
   -.221E+02 -.298E+02 0.124E+03   0.227E+02 0.298E+02 -.125E+03   -.518E+00 -.698E-01 0.850E+00   -.338E-01 0.196E-01 -.151E-01
   -.663E+02 -.121E+03 -.120E+04   0.663E+02 0.121E+03 0.120E+04   0.666E-01 0.781E+00 0.695E+00   0.206E-01 -.913E-02 -.997E-02
   -.185E+01 0.110E+03 0.236E+04   0.310E+01 -.110E+03 -.236E+04   -.112E+01 -.356E+00 -.153E+01   0.236E-01 0.153E-01 -.123E-01
   0.776E+01 0.137E+03 0.248E+04   -.889E+01 -.137E+03 -.248E+04   0.106E+01 -.757E+00 -.244E+01   0.113E-03 -.606E-02 -.138E-01
   -.715E+01 0.874E+02 0.223E+04   0.700E+01 -.858E+02 -.223E+04   0.673E-01 -.139E+01 -.215E+01   0.402E-01 0.401E-01 -.212E-01
   0.126E+03 0.698E+02 0.108E+04   -.126E+03 -.698E+02 -.108E+04   -.284E+00 0.143E-01 0.171E-01   -.174E-01 -.170E-02 -.142E-01
   0.489E+02 -.602E+02 0.142E+04   -.484E+02 0.602E+02 -.142E+04   -.528E+00 0.201E-01 -.342E+00   0.210E-01 0.584E-02 -.413E-01
   -.695E+02 0.112E+02 -.140E+04   0.693E+02 -.110E+02 0.140E+04   0.199E+00 -.304E+00 0.297E+00   0.389E-01 -.636E-02 0.161E-01
   -.256E+03 -.128E+03 0.278E+04   0.255E+03 0.126E+03 -.277E+04   0.150E+01 0.153E+01 -.399E+01   0.141E-01 -.169E-01 0.251E-02
   -.168E+02 0.989E+02 0.132E+04   0.164E+02 -.987E+02 -.132E+04   0.431E+00 -.256E+00 -.684E+00   -.383E-01 -.202E-01 -.516E-02
   -.953E+02 -.867E+02 0.136E+03   0.952E+02 0.869E+02 -.136E+03   0.185E-01 -.160E+00 -.294E+00   0.251E-01 0.156E-01 -.112E-01
   0.128E+02 -.125E+03 -.147E+04   -.130E+02 0.124E+03 0.147E+04   0.138E+00 0.571E+00 0.321E+00   0.499E-01 0.268E-01 0.879E-02
   0.788E+02 0.129E+03 -.142E+04   -.788E+02 -.129E+03 0.142E+04   -.694E-01 -.691E+00 -.625E+00   0.719E-02 -.730E-02 -.160E-01
   -.798E+02 -.138E+03 0.273E+04   0.780E+02 0.137E+03 -.272E+04   0.156E+01 0.162E+01 -.329E+01   0.360E-01 -.509E-01 0.103E-03
   0.166E+02 -.255E+02 0.276E+04   -.171E+02 0.255E+02 -.276E+04   0.406E+00 -.126E+00 -.331E+01   -.348E-01 0.123E-01 -.749E-02
   0.228E+03 -.395E+02 0.247E+04   -.226E+03 0.393E+02 -.247E+04   -.131E+01 0.251E+00 -.198E+01   0.299E-01 0.708E-02 0.258E-02
   -.185E+03 -.295E+02 0.146E+04   0.185E+03 0.296E+02 -.146E+04   0.255E+00 -.214E-01 0.203E+00   -.398E-03 0.251E-01 -.158E-01
   -.188E+03 0.584E+02 0.447E+01   0.188E+03 -.581E+02 -.404E+01   0.318E+00 -.384E+00 -.467E+00   -.111E-01 0.341E-01 -.813E-02
   -.187E+03 -.406E+02 0.139E+04   0.187E+03 0.411E+02 -.139E+04   -.876E-01 -.438E+00 0.482E+00   0.147E-02 0.323E-01 -.224E-01
   0.262E+02 -.685E+02 0.135E+04   -.261E+02 0.682E+02 -.135E+04   -.540E-01 0.511E+00 -.359E-01   -.336E-01 0.701E-03 -.152E-01
   0.187E+03 0.405E+02 -.147E+04   -.187E+03 -.406E+02 0.147E+04   -.747E+00 0.118E+00 0.192E-01   0.423E-01 0.747E-02 -.520E-02
   0.180E+03 0.553E+01 0.274E+04   -.178E+03 -.563E+01 -.273E+04   -.188E+01 0.101E+00 -.327E+01   -.499E-02 -.941E-02 -.156E-01
   -.975E+02 0.350E+02 0.159E+04   0.977E+02 -.347E+02 -.159E+04   -.184E+00 -.426E+00 0.294E+00   -.152E-01 0.166E-01 -.252E-01
   0.111E+03 -.572E+02 -.103E+03   -.111E+03 0.572E+02 0.103E+03   -.406E+00 0.901E-01 -.131E+00   0.341E-01 0.153E-01 -.344E-01
   0.134E+03 0.310E+02 0.297E+04   -.134E+03 -.306E+02 -.297E+04   -.142E+00 -.308E+00 -.150E+01   -.380E-01 0.178E-01 0.541E-02
   -.527E+02 -.162E+03 0.172E+04   0.526E+02 0.161E+03 -.172E+04   -.699E-01 0.341E+00 0.143E+00   0.325E-01 -.856E-02 -.153E-01
   0.192E+03 -.101E+02 0.134E+04   -.192E+03 0.102E+02 -.134E+04   0.401E+00 -.489E-01 0.489E+00   -.229E-02 -.773E-02 -.605E-01
   -.123E+03 0.280E+02 0.200E+03   0.122E+03 -.279E+02 -.200E+03   0.412E+00 -.755E-01 -.355E+00   -.171E-01 0.107E-01 -.211E-01
   0.381E+01 0.566E+02 -.127E+04   -.366E+01 -.568E+02 0.127E+04   -.123E+00 0.146E+00 0.538E+00   -.316E-01 0.689E-02 -.357E-01
   -.128E+03 0.145E+02 -.163E+04   0.128E+03 -.142E+02 0.163E+04   0.290E+00 -.293E+00 0.921E+00   0.179E-01 0.227E-01 -.875E-02
   0.828E+02 0.199E+03 0.290E+04   -.828E+02 -.199E+03 -.290E+04   -.305E-01 -.608E-01 -.120E+01   -.173E-01 -.301E-01 0.531E-02
   -.194E+03 -.245E+02 0.312E+04   0.192E+03 0.250E+02 -.312E+04   0.214E+01 -.430E+00 -.409E+01   -.130E-01 0.104E-01 -.233E-02
   -.427E+01 -.415E+02 0.207E+03   0.454E+01 0.416E+02 -.207E+03   -.388E+00 -.938E-01 -.350E+00   0.270E-01 -.149E-01 -.230E-01
   -.829E+02 -.121E+02 -.762E+02   0.826E+02 0.117E+02 0.761E+02   0.282E+00 0.428E+00 -.283E-01   -.192E-01 -.726E-02 -.274E-01
   0.316E+02 0.203E+03 0.111E+04   -.318E+02 -.203E+03 -.111E+04   0.274E+00 -.442E+00 0.190E-01   -.113E-01 -.104E-01 -.400E-01
   0.143E+03 0.155E+02 -.217E+03   -.144E+03 -.161E+02 0.217E+03   0.249E+00 0.751E+00 -.523E+00   -.417E-01 -.456E-02 -.326E-01
   -.119E+02 -.928E+02 0.171E+03   0.123E+02 0.928E+02 -.171E+03   -.461E+00 -.716E-02 -.305E+00   -.264E-02 -.142E-01 -.172E-01
   -.170E+03 -.110E+03 0.165E+04   0.170E+03 0.110E+03 -.165E+04   0.262E-01 -.178E+00 -.336E+00   -.350E-01 0.254E-01 0.179E-01
   -.704E+02 0.708E+01 0.148E+04   0.707E+02 -.697E+01 -.148E+04   -.232E+00 -.122E+00 -.692E+00   0.215E-01 -.447E-01 -.594E-02
   -.272E+03 -.157E+03 0.302E+04   0.269E+03 0.155E+03 -.302E+04   0.225E+01 0.136E+01 -.367E+01   -.317E-01 0.469E-01 -.366E-02
   0.296E+03 -.679E+02 0.296E+04   -.293E+03 0.672E+02 -.296E+04   -.220E+01 0.771E+00 -.282E+01   -.338E-02 -.487E-02 -.106E-01
   0.867E+02 0.274E+02 0.151E+04   -.867E+02 -.277E+02 -.151E+04   0.113E+00 0.182E+00 0.102E-01   -.976E-02 -.145E-01 -.596E-01
   0.140E+03 0.122E+02 0.120E+04   -.140E+03 -.122E+02 -.120E+04   0.932E-01 -.165E-01 -.323E+00   -.109E-01 -.738E-02 -.450E-01
   0.892E+02 0.205E+02 -.156E+04   -.891E+02 -.206E+02 0.156E+04   -.180E+00 -.247E-01 -.283E+00   -.259E-01 0.208E-01 -.234E-02
   -.783E+00 -.101E+02 0.308E+04   0.850E+00 0.105E+02 -.308E+04   -.760E-01 -.417E+00 -.174E+01   -.750E-01 0.339E-02 0.726E-02
   0.626E+02 0.177E+03 -.522E+02   -.630E+02 -.177E+03 0.530E+02   0.450E+00 0.236E+00 -.832E+00   -.375E-01 -.151E-01 -.418E-01
   0.352E+01 0.939E+02 -.312E+02   -.376E+01 -.933E+02 0.313E+02   0.277E+00 -.658E+00 -.123E+00   0.390E-01 -.438E-02 -.245E-01
   0.227E+03 0.500E+02 -.244E+03   -.227E+03 -.497E+02 0.245E+03   0.346E+00 -.334E+00 -.542E+00   -.164E-01 -.282E-01 -.475E-01
   -.610E+02 -.113E+03 -.120E+02   0.611E+02 0.113E+03 0.118E+02   -.146E+00 0.258E+00 0.176E+00   0.320E-01 0.202E-01 -.855E-02
   -.722E+00 -.533E+00 -.331E+03   0.595E+00 0.594E+00 0.332E+03   0.143E+00 -.670E-01 -.129E+01   0.526E-03 0.120E-02 0.437E-03
 -----------------------------------------------------------------------------------------------
   -.296E+01 -.108E+01 -.644E+01   0.304E-12 -.416E-12 -.263E-10   0.302E+01 0.114E+01 0.730E+01   -.660E-01 -.142E-01 -.902E+00
 
 
 POSITION                                       TOTAL-FORCE (eV/Angst)
 -----------------------------------------------------------------------------------
     13.77893      8.54367      6.63131         0.004315     -0.006372      0.000536
      5.28175      8.55252      6.41450         0.029043     -0.007177      0.005175
      5.13282      3.50943      6.83321        -0.003087      0.009576      0.008574
     15.24396      9.36682      8.78576         0.010883      0.006479      0.016930
      3.92156      4.52981      9.02201        -0.023015      0.012877      0.003531
      6.76754      9.24363      8.73024         0.019251      0.023359      0.002457
     12.36874      4.41890      9.07169        -0.019145     -0.007383      0.011352
      9.48339      9.30288      9.17380         0.003600      0.010345     -0.014075
     10.88918      2.06352      8.73173        -0.002315     -0.010172     -0.007851
      2.63549      2.08308      9.09141        -0.002093     -0.027674     -0.008920
     12.43178      9.26192      9.04306        -0.010906      0.001606      0.011445
     13.86441      6.91940      8.97433        -0.009782     -0.007306      0.019063
      5.35533      1.97753      9.09471        -0.007829     -0.012712      0.005176
      8.09752      6.79829      8.79457        -0.020916     -0.023846      0.010412
      9.51662      4.46098      8.78111         0.003824     -0.012559     -0.000391
      5.31604      6.91563      8.80570        -0.012485      0.011938      0.016947
      8.16831      1.95219      8.89432         0.015018      0.003320      0.004574
      7.99673      3.36682      6.61520        -0.004899     -0.001563      0.001221
      6.54937      1.09652      6.79256         0.010575      0.020486     -0.005232
      6.83385      1.22925      1.47033        -0.002632      0.036722      0.000805
      3.61235      3.96468      2.61995        -0.012029      0.004729      0.003930
      1.43329      1.44083      6.82933         0.018888      0.007137      0.027037
      0.67127      0.98910      1.08188        -0.018583     -0.015145     -0.000541
      6.74807      9.00879      3.12342        -0.003786      0.012875     -0.018210
      6.75692      4.36552      8.92766        -0.006932      0.003964      0.001998
      8.49330      5.38439      5.05378         0.006616     -0.000077      0.004560
     10.98505      6.80546      9.13845         0.012222      0.019667      0.008352
     14.94884      7.37673      4.49249         0.015863     -0.031703     -0.062453
     12.46721      6.14421      6.84320         0.003278     -0.006171     -0.016942
      6.47421      5.89254      6.64526         0.008993      0.001946     -0.002109
      3.57422      2.54624      4.95878        -0.029386     -0.022153     -0.024369
     11.12614      5.45251      4.71025         0.022758      0.002118      0.016843
      3.87386      5.91400      6.70564         0.013241     -0.007485      0.004345
     13.73438      8.58852      1.76277        -0.004274     -0.022298     -0.037719
      4.87663      8.41395      1.57788         0.006390      0.009722      0.020760
      3.75877      6.38414      2.06092         0.026778     -0.006214      0.018004
      8.35850      2.27224      3.29405        -0.003367      0.001901      0.005638
      9.33367      9.15886      2.96349         0.002983      0.002388      0.020849
      2.48115      3.85300      6.95486        -0.009748     -0.007558     -0.014551
      1.94892      3.12368      0.97734        -0.003810      0.005053      0.002919
     10.75187      2.21221      3.05623         0.003916      0.008281      0.000671
     13.77799      5.05868      4.81470        -0.036265      0.024412     -0.003230
      3.95847      0.97005      7.02846        -0.003080     -0.025948     -0.002572
      9.81910      6.30632      6.97605         0.003449     -0.015744     -0.017366
      3.32747      0.88717      1.07332        -0.003515     -0.002355     -0.007270
      9.37038      5.94444      1.03355         0.021440      0.001871     -0.035398
      5.77436      3.51120      1.58883         0.007728      0.002063      0.000808
     11.78080      9.10211      3.01275        -0.023734     -0.010246      0.025748
     12.14221      7.86485      4.90717        -0.036182     -0.017685      0.014919
     12.89855      6.59993      3.08536        -0.009569      0.007033      0.024826
      9.60902      4.40928      2.93166        -0.010298     -0.013034      0.000311
      8.51004      8.48213      6.96182         0.010672      0.004158     -0.030570
      8.12654      8.25967      1.10014        -0.017242      0.011243     -0.003094
     10.59532      7.05732      2.72628        -0.000866     -0.004481      0.009357
      2.64345      0.12582      5.05287         0.010946     -0.008182      0.001860
      8.18206      3.50560      1.21995        -0.007558     -0.033254      0.008842
      4.79851      1.62222      2.89617        -0.006751     -0.001939      0.018852
      5.80940      6.64990      3.24762        -0.008936      0.015338     -0.018511
      7.65468      0.41297      4.68699        -0.031124      0.006278      0.010661
      9.46156      1.13403      6.53062        -0.002706     -0.002946     -0.009029
     10.93384      8.49627      6.97108        -0.009500      0.003266      0.003403
      9.36237      1.19334      1.33066         0.028637      0.004933     -0.002309
     10.65631      8.73216      0.98021        -0.000550     -0.003380     -0.005685
      5.03147      4.91039      4.71650        -0.027352     -0.003834     -0.047306
     12.26834      3.06562      4.96160        -0.008148      0.039984     -0.031254
      9.64277      0.01896      3.43463         0.024967      0.003567      0.020578
      9.85949      3.06130      5.05334         0.037907      0.012814     -0.016164
      6.31739      2.58312      4.70295        -0.006949     -0.002671     -0.050146
     12.25313      4.17493      2.83324        -0.003908     -0.002392     -0.003183
      2.09525      1.75623      3.07324         0.006496      0.006469      0.020149
     11.83128      5.72145      1.13423         0.032358      0.005068      0.000164
      6.85743      5.74904      1.30355        -0.004018     -0.003456      0.009122
      8.21979      6.81570      3.00225         0.000206     -0.001682     -0.010455
      7.04013      4.41026      3.27464         0.000297      0.009076      0.014718
     11.12667      3.89853      6.90612         0.000141     -0.002185     -0.010952
     10.73608      3.41609      1.01158         0.004476     -0.014750      0.002157
     11.35396      0.81935      4.88330        -0.003374      0.009905     -0.018700
      9.67608      7.72321      4.95729         0.041242      0.026800      0.046966
      7.20385      7.63915      5.11888        -0.006608      0.026764      0.008478
      5.07803      0.26935      4.93904        -0.006190     -0.027214      0.018177
     11.03075      8.48880      9.89677         0.016047     -0.004580      0.022355
 -----------------------------------------------------------------------------------
    total drift:                               -0.014257      0.045717     -0.038049


--------------------------------------------------------------------------------------------------------



  FREE ENERGIE OF THE ION-ELECTRON SYSTEM (eV)
  ---------------------------------------------------
  free  energy   TOTEN  =      -503.49690070 eV

  energy  without entropy=     -503.52279259  energy(sigma->0) =     -503.50553133
 
 d Force = 0.2468167E-02[ 0.207E-03, 0.473E-02]  d Energy = 0.2248212E-02 0.220E-03
 d Force =-0.1110262E+01[-0.115E+01,-0.107E+01]  d Ewald  =-0.1110223E+01-0.386E-04


--------------------------------------------------------------------------------------------------------


    POTLOK:  cpu time    0.4359: real time    0.4379


--------------------------------------------------------------------------------------------------------


 Conjugate gradient step on ions:
 trial-energy change:   -0.002248  1 .order   -0.002468   -0.004730   -0.000207
  (g-gl).g = 0.202E-02      g.g   = 0.249E-02  gl.gl    = 0.605E-02
 g(Force)  = 0.249E-02   g(Stress)= 0.000E+00 ortho     = 0.753E-04
 gamma     =   0.33304
 trial     =   1.87953
 opt step  =   2.00411  (harmonic =   1.96535) maximal distance =0.01559910
 next E    =  -503.496907   (d E  =  -0.00225)


--------------------------------------------------------------------------------------------------------


  
 reached required accuracy - stopping structural energy minimisation
     LOOP+:  cpu time  817.3886: real time  820.7708
    4ORBIT:  cpu time    0.0000: real time    0.0000

 total amount of memory used by VASP MPI-rank0   243557. kBytes
=======================================================================

   base      :      30000. kBytes
   nonlr-proj:      33158. kBytes
   fftplans  :      18297. kBytes
   grid      :      51226. kBytes
   one-center:        653. kBytes
   wavefun   :     110223. kBytes
 
  
  
 General timing and accounting informations for this job:
 ========================================================
  
                  Total CPU time used (sec):    16175.232
                            User time (sec):    15724.073
                          System time (sec):      451.160
                         Elapsed time (sec):    16251.011
  
                   Maximum memory used (kb):      431392.
                   Average memory used (kb):           0.
  
                          Minor page faults:      3865324
                          Major page faults:          175
                 Voluntary context switches:        10492
