 vasp.5.4.4.18Apr17-6-g9f103f2a35 (build Nov 30 2020 22:55:02) complex          
  
 executed on             LinuxIFC date 2021.10.28  13:10:04
 running on   40 total cores
 distrk:  each k-point on   40 cores,    1 groups
 distr:  one band on NCORES_PER_BAND=   4 cores,   10 groups


--------------------------------------------------------------------------------------------------------


 INCAR:
 POTCAR:    PAW_PBE Pt 04Feb2005                  
 POTCAR:    PAW_PBE Fe 06Sep2000                  
 POTCAR:    PAW_PBE Co 02Aug2007                  
 POTCAR:    PAW_PBE Cu 22Jun2005                  
 POTCAR:    PAW_PBE Ni 02Aug2007                  
 POTCAR:    PAW_PBE Pt 04Feb2005                  
   VRHFIN =Pt: s1d9                                                             
   LEXCH  = PE                                                                  
   EATOM  =   729.1176 eV,   53.5886 Ry                                         
                                                                                
   TITEL  = PAW_PBE Pt 04Feb2005                                                
   LULTRA =        F    use ultrasoft PP ?                                      
   IUNSCR =        1    unscreen: 0-lin 1-nonlin 2-no                           
   RPACOR =    2.330    partial core radius                                     
   POMASS =  195.080; ZVAL   =   10.000    mass and valenz                      
   RCORE  =    2.600    outmost cutoff radius                                   
   RWIGS  =    2.750; RWIGS  =    1.455    wigner-seitz radius (au A)           
   ENMAX  =  230.283; ENMIN  =  172.712 eV                                      
   ICORE  =        3    local potential                                         
   LCOR   =        T    correct aug charges                                     
   LPAW   =        T    paw PP                                                  
   EAUG   =  358.966                                                            
   DEXC   =    0.000                                                            
   RMAX   =    2.658    core radius for proj-oper                               
   RAUG   =    1.300    factor for augmentation sphere                          
   RDEP   =    2.761    radius for radial grids                                 
   RDEPT  =    2.203    core radius for aug-charge                              
                                                                                
   Atomic configuration                                                         
   16 entries                                                                   
     n  l   j            E        occ.                                          
     1  0  0.50    -78401.1885   2.0000                                         
     2  0  0.50    -13770.7750   2.0000                                         
     2  1  1.50    -11931.0468   6.0000                                         
     3  0  0.50     -3234.7234   2.0000                                         
     3  1  1.50     -2699.2216   6.0000                                         
     3  2  2.50     -2119.5714  10.0000                                         
     4  0  0.50      -695.1528   2.0000                                         
     4  1  1.50      -519.6034   6.0000                                         
     4  2  2.50      -306.6786  10.0000                                         
     4  3  3.50       -70.1041  14.0000                                         
     5  0  0.50      -101.7747   2.0000                                         
     5  1  1.50       -55.9873   6.0000                                         
     5  2  2.50        -6.1423   9.0000                                         
     6  0  0.50        -5.6573   1.0000                                         
     6  1  1.50        -6.8029   0.0000                                         
     5  3  2.50        -1.3606   0.0000                                         
   Description                                                                  
     l       E           TYP  RCUT    TYP  RCUT                                 
     2     -6.1423404     23  2.500                                             
     2     -7.5029230     23  2.500                                             
     0     -5.6573207     23  2.500                                             
     0      0.7416693     23  2.500                                             
     1     -2.7211652     23  2.600                                             
     1     20.4087390     23  2.600                                             
     3     -1.3605826     23  2.500                                             
  local pseudopotential read in
  partial core-charges read in
  partial kinetic energy density read in
  atomic valenz-charges read in
  non local Contribution for L=           2  read in
    real space projection operators read in
  non local Contribution for L=           2  read in
    real space projection operators read in
  non local Contribution for L=           0  read in
    real space projection operators read in
  non local Contribution for L=           0  read in
    real space projection operators read in
  non local Contribution for L=           1  read in
    real space projection operators read in
  non local Contribution for L=           1  read in
    real space projection operators read in
    PAW grid and wavefunctions read in
 
   number of l-projection  operators is LMAX  =           6
   number of lm-projection operators is LMMAX =          18
 
 POTCAR:    PAW_PBE Fe 06Sep2000                  
   VRHFIN =Fe:  d7 s1                                                           
   LEXCH  = PE                                                                  
   EATOM  =   594.3153 eV,   43.6809 Ry                                         
                                                                                
   TITEL  = PAW_PBE Fe 06Sep2000                                                
   LULTRA =        F    use ultrasoft PP ?                                      
   IUNSCR =        1    unscreen: 0-lin 1-nonlin 2-no                           
   RPACOR =    2.000    partial core radius                                     
   POMASS =   55.847; ZVAL   =    8.000    mass and valenz                      
   RCORE  =    2.300    outmost cutoff radius                                   
   RWIGS  =    2.460; RWIGS  =    1.302    wigner-seitz radius (au A)           
   ENMAX  =  267.882; ENMIN  =  200.911 eV                                      
   RCLOC  =    1.701    cutoff for local pot                                    
   LCOR   =        T    correct aug charges                                     
   LPAW   =        T    paw PP                                                  
   EAUG   =  511.368                                                            
   DEXC   =    0.000                                                            
   RMAX   =    2.356    core radius for proj-oper                               
   RAUG   =    1.300    factor for augmentation sphere                          
   RDEP   =    2.442    radius for radial grids                                 
   RDEPT  =    1.890    core radius for aug-charge                              
                                                                                
   Atomic configuration                                                         
    9 entries                                                                   
     n  l   j            E        occ.                                          
     1  0  0.50     -6993.8440   2.0000                                         
     2  0  0.50      -814.6047   2.0000                                         
     2  1  1.50      -693.3689   6.0000                                         
     3  0  0.50       -89.4732   2.0000                                         
     3  1  1.50       -55.6373   6.0000                                         
     3  2  2.50        -3.8151   7.0000                                         
     4  0  0.50        -4.2551   1.0000                                         
     4  1  1.50        -3.4015   0.0000                                         
     4  3  2.50        -1.3606   0.0000                                         
   Description                                                                  
     l       E           TYP  RCUT    TYP  RCUT                                 
     2     -3.8151135     23  2.300                                             
     2     -5.1756961     23  2.300                                             
     0     -4.2550963     23  2.300                                             
     0      7.2035603     23  2.300                                             
     1     -2.7211652     23  2.300                                             
     1     18.4316424     23  2.300                                             
  local pseudopotential read in
  partial core-charges read in
  partial kinetic energy density read in
  atomic valenz-charges read in
  non local Contribution for L=           2  read in
    real space projection operators read in
  non local Contribution for L=           2  read in
    real space projection operators read in
  non local Contribution for L=           0  read in
    real space projection operators read in
  non local Contribution for L=           0  read in
    real space projection operators read in
  non local Contribution for L=           1  read in
    real space projection operators read in
  non local Contribution for L=           1  read in
    real space projection operators read in
    PAW grid and wavefunctions read in
 
   number of l-projection  operators is LMAX  =           6
   number of lm-projection operators is LMMAX =          18
 
 POTCAR:    PAW_PBE Co 02Aug2007                  
   VRHFIN =Co: d8 s1                                                            
   LEXCH  = PE                                                                  
   EATOM  =   813.3670 eV,   59.7808 Ry                                         
                                                                                
   TITEL  = PAW_PBE Co 02Aug2007                                                
   LULTRA =        F    use ultrasoft PP ?                                      
   IUNSCR =        1    unscreen: 0-lin 1-nonlin 2-no                           
   RPACOR =    2.000    partial core radius                                     
   POMASS =   58.933; ZVAL   =    9.000    mass and valenz                      
   RCORE  =    2.300    outmost cutoff radius                                   
   RWIGS  =    2.460; RWIGS  =    1.302    wigner-seitz radius (au A)           
   ENMAX  =  267.968; ENMIN  =  200.976 eV                                      
   RCLOC  =    1.203    cutoff for local pot                                    
   LCOR   =        T    correct aug charges                                     
   LPAW   =        T    paw PP                                                  
   EAUG   =  477.818                                                            
   DEXC   =    0.000                                                            
   RMAX   =    2.360    core radius for proj-oper                               
   RAUG   =    1.300    factor for augmentation sphere                          
   RDEP   =    2.393    radius for radial grids                                 
   RDEPT  =    1.864    core radius for aug-charge                              
                                                                                
   Atomic configuration                                                         
    9 entries                                                                   
     n  l   j            E        occ.                                          
     1  0  0.50     -7587.6674   2.0000                                         
     2  0  0.50      -893.6084   2.0000                                         
     2  1  1.50      -764.5805   6.0000                                         
     3  0  0.50       -97.5973   2.0000                                         
     3  1  1.50       -60.9648   6.0000                                         
     3  2  2.50        -4.2382   8.0000                                         
     4  0  0.50        -4.3746   1.0000                                         
     4  1  1.50        -4.0817   0.0000                                         
     4  3  2.50        -1.3606   0.0000                                         
   Description                                                                  
     l       E           TYP  RCUT    TYP  RCUT                                 
     2     -4.2382362     23  2.300                                             
     2     -5.5988188     23  2.300                                             
     0     -4.3745797     23  2.300                                             
     0      5.7660125     23  2.300                                             
     1     -2.7211652     23  2.300                                             
     1     16.9860234     23  2.300                                             
  local pseudopotential read in
  partial core-charges read in
  partial kinetic energy density read in
  atomic valenz-charges read in
  non local Contribution for L=           2  read in
    real space projection operators read in
  non local Contribution for L=           2  read in
    real space projection operators read in
  non local Contribution for L=           0  read in
    real space projection operators read in
  non local Contribution for L=           0  read in
    real space projection operators read in
  non local Contribution for L=           1  read in
    real space projection operators read in
  non local Contribution for L=           1  read in
    real space projection operators read in
    PAW grid and wavefunctions read in
 
   number of l-projection  operators is LMAX  =           6
   number of lm-projection operators is LMMAX =          18
 
 POTCAR:    PAW_PBE Cu 22Jun2005                  
   VRHFIN =Cu: d10 p1                                                           
   LEXCH  = PE                                                                  
   EATOM  =  1390.9808 eV,  102.2342 Ry                                         
                                                                                
   TITEL  = PAW_PBE Cu 22Jun2005                                                
   LULTRA =        F    use ultrasoft PP ?                                      
   IUNSCR =        1    unscreen: 0-lin 1-nonlin 2-no                           
   RPACOR =    2.000    partial core radius                                     
   POMASS =   63.546; ZVAL   =   11.000    mass and valenz                      
   RCORE  =    2.300    outmost cutoff radius                                   
   RWIGS  =    2.200; RWIGS  =    1.164    wigner-seitz radius (au A)           
   ENMAX  =  295.446; ENMIN  =  221.585 eV                                      
   ICORE  =        3    local potential                                         
   LCOR   =        T    correct aug charges                                     
   LPAW   =        T    paw PP                                                  
   EAUG   =  586.980                                                            
   DEXC   =    0.000                                                            
   RMAX   =    2.344    core radius for proj-oper                               
   RAUG   =    1.300    factor for augmentation sphere                          
   RDEP   =    2.302    radius for radial grids                                 
   RDEPT  =    1.771    core radius for aug-charge                              
                                                                                
   Atomic configuration                                                         
    9 entries                                                                   
     n  l   j            E        occ.                                          
     1  0  0.50     -8850.2468   2.0000                                         
     2  0  0.50     -1062.3498   2.0000                                         
     2  1  1.50      -916.8226   6.0000                                         
     3  0  0.50      -114.6929   2.0000                                         
     3  1  1.50       -72.1325   6.0000                                         
     3  2  2.50        -5.0394  10.0000                                         
     4  0  0.50        -4.6097   1.0000                                         
     4  1  0.50        -4.0817   0.0000                                         
     4  3  2.50        -1.3606   0.0000                                         
   Description                                                                  
     l       E           TYP  RCUT    TYP  RCUT                                 
     2     -5.0393973     23  2.200                                             
     2     10.8846608     23  2.200                                             
     0     -4.6097109     23  2.200                                             
     0      8.2520465     23  2.200                                             
     1     -2.7211652     23  2.200                                             
     1     21.7055443     23  2.200                                             
     3      2.7211652     23  2.300                                             
  local pseudopotential read in
  partial core-charges read in
  partial kinetic energy density read in
  atomic valenz-charges read in
  non local Contribution for L=           2  read in
    real space projection operators read in
  non local Contribution for L=           2  read in
    real space projection operators read in
  non local Contribution for L=           0  read in
    real space projection operators read in
  non local Contribution for L=           0  read in
    real space projection operators read in
  non local Contribution for L=           1  read in
    real space projection operators read in
  non local Contribution for L=           1  read in
    real space projection operators read in
    PAW grid and wavefunctions read in
 
   number of l-projection  operators is LMAX  =           6
   number of lm-projection operators is LMMAX =          18
 
 POTCAR:    PAW_PBE Ni 02Aug2007                  
   VRHFIN =Ni:                                                                  
   LEXCH  = PE                                                                  
   EATOM  =  1077.6739 eV,   79.2068 Ry                                         
                                                                                
   TITEL  = PAW_PBE Ni 02Aug2007                                                
   LULTRA =        F    use ultrasoft PP ?                                      
   IUNSCR =        1    unscreen: 0-lin 1-nonlin 2-no                           
   RPACOR =    2.000    partial core radius                                     
   POMASS =   58.690; ZVAL   =   10.000    mass and valenz                      
   RCORE  =    2.300    outmost cutoff radius                                   
   RWIGS  =    2.430; RWIGS  =    1.286    wigner-seitz radius (au A)           
   ENMAX  =  269.532; ENMIN  =  202.149 eV                                      
   RCLOC  =    1.201    cutoff for local pot                                    
   LCOR   =        T    correct aug charges                                     
   LPAW   =        T    paw PP                                                  
   EAUG   =  544.565                                                            
   DEXC   =    0.000                                                            
   RMAX   =    2.357    core radius for proj-oper                               
   RAUG   =    1.300    factor for augmentation sphere                          
   RDEP   =    2.390    radius for radial grids                                 
   RDEPT  =    1.838    core radius for aug-charge                              
                                                                                
   Atomic configuration                                                         
    9 entries                                                                   
     n  l   j            E        occ.                                          
     1  0  0.50     -8206.4253   2.0000                                         
     2  0  0.50      -976.1748   2.0000                                         
     2  1  1.50      -839.0571   6.0000                                         
     3  0  0.50      -105.9991   2.0000                                         
     3  1  1.50       -66.4603   6.0000                                         
     3  2  2.50        -4.6458   9.0000                                         
     4  0  0.50        -4.4926   1.0000                                         
     4  1  1.50        -4.0817   0.0000                                         
     4  3  2.50        -1.3606   0.0000                                         
   Description                                                                  
     l       E           TYP  RCUT    TYP  RCUT                                 
     2     -4.6457903     23  2.300                                             
     2     -6.0063729     23  2.300                                             
     0     -4.4925590     23  2.300                                             
     0      5.0102601     23  2.300                                             
     1     -2.7211652     23  2.300                                             
     1     16.5183231     23  2.300                                             
  local pseudopotential read in
  partial core-charges read in
  partial kinetic energy density read in
  atomic valenz-charges read in
  non local Contribution for L=           2  read in
    real space projection operators read in
  non local Contribution for L=           2  read in
    real space projection operators read in
  non local Contribution for L=           0  read in
    real space projection operators read in
  non local Contribution for L=           0  read in
    real space projection operators read in
  non local Contribution for L=           1  read in
    real space projection operators read in
  non local Contribution for L=           1  read in
    real space projection operators read in
    PAW grid and wavefunctions read in
 
   number of l-projection  operators is LMAX  =           6
   number of lm-projection operators is LMMAX =          18
 
 Optimization of the real space projectors (new method)

 maximal supplied QI-value         = 14.36
 optimisation between [QCUT,QGAM] = [ 11.92, 23.98] = [ 39.79,161.09] Ry 
 Optimized for a Real-space Cutoff    1.49 Angstroem

   l    n(q)    QCUT    max X(q) W(low)/X(q) W(high)/X(q)  e(spline) 
   2     10    11.920    66.195    0.79E-04    0.18E-03    0.24E-06
   2     10    11.920    64.643    0.81E-04    0.19E-03    0.24E-06
   0     11    11.920    95.520    0.28E-04    0.54E-04    0.18E-06
   0     11    11.920    63.403    0.27E-04    0.52E-04    0.17E-06
   1     10    11.920    19.961    0.18E-04    0.11E-03    0.23E-06
   1     10    11.920    13.289    0.25E-04    0.87E-04    0.19E-06
 Optimization of the real space projectors (new method)

 maximal supplied QI-value         = 16.25
 optimisation between [QCUT,QGAM] = [ 11.86, 23.89] = [ 39.41,159.82] Ry 
 Optimized for a Real-space Cutoff    1.49 Angstroem

   l    n(q)    QCUT    max X(q) W(low)/X(q) W(high)/X(q)  e(spline) 
   2     10    11.864    80.901    0.13E-03    0.23E-03    0.37E-06
   2     10    11.864    75.754    0.13E-03    0.23E-03    0.38E-06
   0     11    11.864    58.752    0.44E-04    0.11E-04    0.20E-06
   0     11    11.864    30.679    0.36E-04    0.10E-04    0.18E-06
   1     10    11.864    17.977    0.31E-04    0.45E-04    0.10E-06
   1     10    11.864    13.559    0.25E-04    0.37E-04    0.89E-07
 Optimization of the real space projectors (new method)

 maximal supplied QI-value         = 16.25
 optimisation between [QCUT,QGAM] = [ 11.86, 23.89] = [ 39.41,159.82] Ry 
 Optimized for a Real-space Cutoff    1.33 Angstroem

   l    n(q)    QCUT    max X(q) W(low)/X(q) W(high)/X(q)  e(spline) 
   2      9    11.864    65.824    0.22E-03    0.53E-03    0.26E-06
   2      9    11.864    61.429    0.22E-03    0.53E-03    0.26E-06
   0      9    11.864    56.174    0.21E-03    0.32E-04    0.15E-06
   0      9    11.864    31.263    0.19E-03    0.30E-04    0.14E-06
   1      9    11.864    19.828    0.63E-04    0.30E-03    0.16E-06
   1      9    11.864    15.139    0.49E-04    0.25E-03    0.13E-06
 Optimization of the real space projectors (new method)

 maximal supplied QI-value         = 16.25
 optimisation between [QCUT,QGAM] = [ 11.86, 23.89] = [ 39.41,159.82] Ry 
 Optimized for a Real-space Cutoff    1.49 Angstroem

   l    n(q)    QCUT    max X(q) W(low)/X(q) W(high)/X(q)  e(spline) 
   2     10    11.864     4.610    0.10E-03    0.20E-03    0.29E-06
   2     10    11.864     8.522    0.17E-03    0.33E-03    0.50E-06
   0     11    11.864    51.609    0.52E-04    0.55E-04    0.33E-06
   0     11    11.864    27.747    0.46E-04    0.52E-04    0.31E-06
   1     10    11.864    20.408    0.54E-04    0.25E-04    0.21E-06
   1     10    11.864    13.425    0.48E-04    0.22E-04    0.18E-06
 Optimization of the real space projectors (new method)

 maximal supplied QI-value         = 16.25
 optimisation between [QCUT,QGAM] = [ 11.86, 23.89] = [ 39.41,159.82] Ry 
 Optimized for a Real-space Cutoff    1.33 Angstroem

   l    n(q)    QCUT    max X(q) W(low)/X(q) W(high)/X(q)  e(spline) 
   2      9    11.864    60.317    0.21E-03    0.51E-03    0.25E-06
   2      9    11.864    55.921    0.21E-03    0.51E-03    0.26E-06
   0      9    11.864    51.690    0.22E-03    0.30E-04    0.17E-06
   0      9    11.864    30.015    0.20E-03    0.28E-04    0.15E-06
   1      9    11.864    18.849    0.76E-04    0.33E-03    0.17E-06
   1      9    11.864    14.624    0.60E-04    0.28E-03    0.15E-06
  PAW_PBE Pt 04Feb2005                  :
 energy of atom  1       EATOM= -729.1176
 kinetic energy error for atom=    0.0021 (will be added to EATOM!!)
  PAW_PBE Fe 06Sep2000                  :
 energy of atom  2       EATOM= -594.3153
 kinetic energy error for atom=    0.0024 (will be added to EATOM!!)
  PAW_PBE Co 02Aug2007                  :
 energy of atom  3       EATOM= -813.3670
 kinetic energy error for atom=    0.0026 (will be added to EATOM!!)
  PAW_PBE Cu 22Jun2005                  :
 energy of atom  4       EATOM=-1390.9808
 kinetic energy error for atom=    0.0036 (will be added to EATOM!!)
  PAW_PBE Ni 02Aug2007                  :
 energy of atom  5       EATOM=-1077.6739
 kinetic energy error for atom=    0.0027 (will be added to EATOM!!)
 
 
 POSCAR: 11.26-high                              
  positions in direct lattice
  velocities in cartesian coordinates
 exchange correlation table for  LEXCH =        8
   RHO(1)=    0.500       N(1)  =     2000
   RHO(2)=  100.500       N(2)  =     4000
 


--------------------------------------------------------------------------------------------------------


 ion  position               nearest neighbor table
   1  0.776  0.870  0.315-  56 2.60  32 2.67  15 2.73  33 2.76  65 2.77  23 2.78  40 2.79   8 2.81
                            16 2.82  41 2.87   3 2.89   2 2.91
   2  0.036  0.870  0.315-  38 2.64  79 2.64  32 2.73  26 2.76   8 2.76  10 2.77  20 2.80  34 2.82
                            41 2.83  58 2.83   3 2.84   1 2.91
   3  0.036  0.616  0.313-  50 2.58  68 2.63  32 2.69   4 2.80   6 2.80   9 2.81  20 2.83   2 2.84
                            33 2.84  16 2.87  34 2.87   1 2.89
   4  0.028  0.371  0.319-  50 2.61  36 2.68  42 2.70  11 2.73  77 2.77   9 2.78  14 2.78   3 2.80
                            33 2.81  26 2.83   6 2.89   5 2.96
   5  0.290  0.106  0.318-  61 2.55  36 2.68  39 2.69  58 2.69  12 2.70  65 2.77  26 2.77  14 2.79
                            17 2.79  23 2.80   6 2.92   4 2.96
   6  0.287  0.367  0.317-  68 2.60  71 2.63  36 2.71  23 2.75  29 2.76  17 2.80   9 2.80   3 2.80
                            34 2.86   4 2.89  22 2.90   5 2.92
   7  0.861  0.689  0.125-  74 2.52  43 2.54  45 2.59  55 2.63  60 2.65  50 2.65  56 2.66  32 2.71
                            72 2.71  25 2.83  64 3.07
   8  0.868  0.952  0.417-   2 2.76  16 2.79  20 2.81  41 2.81   1 2.81  21 2.82  13 2.82  15 2.83
                            10 2.85
   9  0.114  0.456  0.420-  20 2.76   4 2.78  16 2.78  11 2.79   6 2.80  29 2.81   3 2.81  14 2.84
                            17 2.90
  10  0.124  0.948  0.417-  58 2.67  26 2.75   2 2.77  12 2.77  18 2.77  20 2.81  14 2.81   8 2.85
                            13 2.88
  11  0.869  0.449  0.421-  77 2.72   4 2.73  19 2.74  13 2.77  14 2.79   9 2.79  33 2.82  31 2.83
                            16 2.85
  12  0.372  0.946  0.419-  58 2.69   5 2.70  65 2.71  18 2.71  31 2.75  10 2.77  15 2.77  17 2.81
                            14 2.85
  13  0.867  0.204  0.416-  77 2.71  26 2.77  11 2.77  41 2.77  21 2.78  19 2.79  14 2.82   8 2.82
                            10 2.88
  14  0.119  0.201  0.420-   4 2.78   5 2.79  11 2.79  17 2.81  26 2.81  10 2.81  13 2.82   9 2.84
                            12 2.85
  15  0.619  0.947  0.418-   1 2.73  65 2.75  16 2.76  31 2.76  12 2.77  17 2.79  23 2.80   8 2.83
                            21 2.90
  16  0.867  0.704  0.420-  15 2.76  33 2.77   9 2.78  20 2.79   8 2.79   1 2.82  31 2.82  11 2.85
                             3 2.87
  17  0.372  0.196  0.420-  23 2.75  15 2.79   5 2.79   6 2.80  12 2.81  14 2.81  21 2.82  29 2.85
                             9 2.90
  18  0.373  0.703  0.418-  51 2.62  58 2.68  12 2.71  31 2.73  34 2.74  10 2.77  19 2.78  29 2.85
                            20 2.89
  19  0.622  0.457  0.420-  51 2.65  77 2.66  31 2.72  22 2.73  11 2.74  18 2.78  13 2.79  21 2.84
                            29 2.88
  20  0.117  0.701  0.419-   9 2.76  34 2.78  16 2.79  29 2.79   2 2.80   8 2.81  10 2.81   3 2.83
                            18 2.89
  21  0.619  0.205  0.417-  22 2.75  23 2.77  13 2.78  41 2.79  29 2.81   8 2.82  17 2.82  19 2.84
                            15 2.90
  22  0.541  0.376  0.318-  70 2.60  71 2.65  30 2.65  77 2.67  51 2.71  19 2.73  21 2.75  34 2.79
                            41 2.80  29 2.81   6 2.90  23 2.91
  23  0.532  0.121  0.316-  71 2.65  40 2.70  39 2.75   6 2.75  17 2.75  21 2.77   1 2.78   5 2.80
                            15 2.80  41 2.83  22 2.91  65 2.94
  24  0.544  0.120  0.050-  46 2.53  63 2.54  55 2.60  43 2.70  66 2.74  54 2.84  62 2.84  52 2.86
                            67 2.92
  25  0.114  0.439  0.123-  54 2.49  48 2.53  45 2.58  36 2.69  73 2.70  63 2.74  50 2.75  68 2.78
                             7 2.83  72 2.85  64 2.94  76 3.12
  26  0.039  0.114  0.316-  79 2.55  61 2.63  42 2.66  10 2.75   2 2.76  13 2.77   5 2.77  58 2.79
                            14 2.81  41 2.82   4 2.83  77 2.96
  27  0.025  0.132  0.037-  48 2.54  49 2.60  73 2.61  28 2.65  78 2.71  59 2.73  66 2.74  52 2.92
                            44 3.11
  28  0.115  0.959  0.130-  59 2.54  79 2.58  44 2.59  38 2.63  27 2.65  61 2.66  69 2.68  73 2.69
                            47 2.80  49 2.84  35 2.88  64 2.93
  29  0.367  0.453  0.420-   6 2.76  34 2.77  20 2.79  21 2.81  22 2.81   9 2.81  18 2.85  17 2.85
                            19 2.88
  30  0.456  0.540  0.221-  76 2.51  57 2.56  22 2.65  34 2.67  37 2.72  51 2.73  35 2.73  80 2.74
                            71 2.76  38 2.79  70 2.79  68 2.85
  31  0.618  0.701  0.421-  51 2.67  65 2.71  19 2.72  18 2.73  33 2.75  12 2.75  15 2.76  16 2.82
                            11 2.83
  32  0.941  0.791  0.218-  64 2.57  69 2.60   1 2.67   3 2.69   7 2.71   2 2.73  56 2.78  40 2.87
                            50 2.87  79 2.91  68 3.02  38 3.04
  33  0.780  0.623  0.318-  56 2.60  37 2.62  50 2.63  65 2.69  77 2.74  31 2.75  51 2.75   1 2.76
                            16 2.77   4 2.81  11 2.82   3 2.84
  34  0.289  0.621  0.318-  38 2.66  30 2.67  68 2.73  18 2.74  58 2.76  51 2.77  29 2.77  20 2.78
                            22 2.79   2 2.82   6 2.86   3 2.87
  35  0.377  0.709  0.122-  53 2.48  75 2.55  59 2.60  47 2.62  60 2.68  30 2.73  80 2.74  38 2.75
                            57 2.85  76 2.87  28 2.88  64 2.88
  36  0.198  0.277  0.223-  73 2.54  63 2.54   4 2.68   5 2.68  25 2.69   6 2.71  61 2.76  42 2.81
                            68 2.83  50 2.84  39 2.91  71 2.97
  37  0.694  0.549  0.222-  72 2.55  60 2.56  57 2.60  33 2.62  56 2.63  80 2.66  51 2.70  77 2.71
                            30 2.72  50 2.75  70 2.83  42 2.88
  38  0.211  0.792  0.224-  58 2.58  64 2.59  61 2.62  28 2.63   2 2.64  34 2.66  80 2.70  35 2.75
                            30 2.79  79 2.85  68 3.02  32 3.04
  39  0.456  0.017  0.221-  47 2.49  55 2.60  80 2.62  63 2.65  65 2.65  61 2.65   5 2.69  56 2.69
                            23 2.75  40 2.78  36 2.91  71 3.11
  40  0.686  0.047  0.215-  46 2.52  69 2.55  55 2.59  23 2.70  71 2.71  41 2.74  39 2.78   1 2.79
                            70 2.86  32 2.87  56 2.93  79 2.98
  41  0.784  0.121  0.313-  70 2.56  79 2.59  40 2.74  13 2.77  21 2.79  22 2.80   8 2.81  26 2.82
                             2 2.83  23 2.83   1 2.87  77 2.87
  42  0.944  0.286  0.222-  49 2.50  72 2.55  70 2.65  26 2.66  79 2.67  73 2.68   4 2.70  77 2.70
                            50 2.78  36 2.81  37 2.88  61 3.01
  43  0.787  0.882  0.049-  55 2.41  69 2.50   7 2.54  44 2.64  24 2.70  66 2.73  45 2.88  67 2.95

  44  0.036  0.851  0.047-  45 2.41  69 2.53  64 2.55  28 2.59  43 2.64  75 2.67  59 3.07  27 3.11

  45  0.048  0.630  0.044-  44 2.41  75 2.46  64 2.49  25 2.58   7 2.59  54 2.82  43 2.88
  46  0.621  0.226  0.132-  70 2.50  62 2.51  57 2.51  40 2.52  24 2.53  66 2.58  76 2.58  71 2.59
                            49 2.65  69 2.81  63 2.91
  47  0.371  0.944  0.131-  59 2.38  52 2.40  39 2.49  67 2.53  61 2.56  35 2.62  80 2.63  60 2.68
                            73 2.75  55 2.77  28 2.80
  48  0.994  0.372  0.045-  72 2.33  78 2.48  74 2.51  25 2.53  27 2.54  73 2.62
  49  0.863  0.212  0.131-  78 2.43  42 2.50  66 2.56  70 2.57  27 2.60  79 2.61  72 2.63  69 2.64
                            46 2.65  57 2.68  28 2.84  73 2.86
  50  0.946  0.532  0.224-   3 2.58   4 2.61  33 2.63  72 2.64   7 2.65  37 2.75  25 2.75  56 2.78
                            42 2.78  36 2.84  32 2.87  68 2.92
  51  0.536  0.619  0.323-  18 2.62  80 2.65  19 2.65  31 2.67  65 2.67  77 2.70  37 2.70  22 2.71
                            30 2.73  33 2.75  34 2.77  58 2.77
  52  0.294  0.109  0.050-  47 2.40  73 2.40  59 2.41  63 2.56  67 2.71  24 2.86  27 2.92
  53  0.565  0.596  0.047-  74 2.34  57 2.36  60 2.45  35 2.48  78 2.48  62 2.65  67 2.86
  54  0.303  0.384  0.050-  76 2.30  75 2.43  25 2.49  63 2.55  62 2.58  45 2.82  24 2.84
  55  0.628  0.924  0.130-  43 2.41  56 2.46  60 2.47  67 2.47  40 2.59  39 2.60  24 2.60   7 2.63
                            47 2.77
  56  0.699  0.780  0.223-  55 2.46  60 2.53  33 2.60   1 2.60  37 2.63  65 2.65   7 2.66  39 2.69
                            80 2.72  50 2.78  32 2.78  40 2.93
  57  0.622  0.449  0.132-  53 2.36  78 2.44  46 2.51  62 2.53  70 2.55  30 2.56  37 2.60  72 2.63
                            76 2.65  49 2.68  35 2.85  60 2.89
  58  0.289  0.866  0.320-  61 2.57  38 2.58  80 2.60  10 2.67  18 2.68  12 2.69   5 2.69  65 2.72
                            34 2.76  51 2.77  26 2.79   2 2.83
  59  0.279  0.903  0.041-  47 2.38  52 2.41  28 2.54  35 2.60  67 2.66  27 2.73  44 3.07
  60  0.615  0.710  0.130-  53 2.45  55 2.47  67 2.48  74 2.50  56 2.53  37 2.56  80 2.64   7 2.65
                            35 2.68  47 2.68  72 2.82  57 2.89
  61  0.217  0.022  0.226-   5 2.55  47 2.56  58 2.57  38 2.62  26 2.63  39 2.65  28 2.66  73 2.66
                            80 2.68  36 2.76  79 2.84  42 3.01
  62  0.536  0.376  0.040-  76 2.49  46 2.51  57 2.53  54 2.58  78 2.63  53 2.65  75 2.81  24 2.84

  63  0.370  0.210  0.136-  71 2.51  24 2.54  36 2.54  54 2.55  52 2.56  39 2.65  25 2.74  76 2.78
                            73 2.83  46 2.91
  64  0.133  0.690  0.137-  75 2.44  68 2.46  45 2.49  44 2.55  32 2.57  38 2.59  76 2.77  35 2.88
                            28 2.93  25 2.94   7 3.07
  65  0.535  0.858  0.319-  80 2.51  56 2.65  39 2.65  51 2.67  33 2.69  12 2.71  31 2.71  58 2.72
                            15 2.75   5 2.77   1 2.77  23 2.94
  66  0.784  0.126  0.040-  69 2.51  49 2.56  46 2.58  78 2.65  43 2.73  24 2.74  27 2.74
  67  0.533  0.866  0.041-  55 2.47  60 2.48  47 2.53  59 2.66  52 2.71  74 2.86  53 2.86  24 2.92
                            43 2.95
  68  0.211  0.523  0.221-  64 2.46   6 2.60  76 2.61   3 2.63  71 2.65  34 2.73  25 2.78  36 2.83
                            30 2.85  50 2.92  32 3.02  38 3.02
  69  0.869  0.974  0.132-  79 2.49  43 2.50  66 2.51  44 2.53  40 2.55  32 2.60  49 2.64  28 2.68
                            46 2.81
  70  0.705  0.291  0.225-  46 2.50  57 2.55  41 2.56  49 2.57  22 2.60  77 2.62  42 2.65  79 2.79
                            30 2.79  37 2.83  40 2.86
  71  0.453  0.295  0.223-  63 2.51  76 2.52  46 2.59   6 2.63  68 2.65  22 2.65  23 2.65  40 2.71
                            30 2.76  36 2.97  39 3.11
  72  0.856  0.450  0.131-  48 2.33  74 2.44  78 2.50  42 2.55  37 2.55  57 2.63  49 2.63  50 2.64
                             7 2.71  60 2.82  25 2.85  73 2.98
  73  0.128  0.192  0.131-  52 2.40  36 2.54  27 2.61  48 2.62  61 2.66  42 2.68  28 2.69  25 2.70
                            47 2.75  63 2.83  49 2.86  72 2.98
  74  0.773  0.598  0.042-  53 2.34  72 2.44  60 2.50  48 2.51   7 2.52  78 2.59  67 2.86
  75  0.275  0.613  0.046-  54 2.43  64 2.44  45 2.46  76 2.48  35 2.55  44 2.67  62 2.81
  76  0.385  0.450  0.132-  54 2.30  75 2.48  62 2.49  30 2.51  71 2.52  46 2.58  68 2.61  57 2.65
                            64 2.77  63 2.78  35 2.87  25 3.12
  77  0.777  0.380  0.320-  70 2.62  19 2.66  22 2.67  51 2.70  42 2.70  37 2.71  13 2.71  11 2.72
                            33 2.74   4 2.77  41 2.87  26 2.96
  78  0.776  0.366  0.044-  49 2.43  57 2.44  48 2.48  53 2.48  72 2.50  74 2.59  62 2.63  66 2.65
                            27 2.71
  79  0.954  0.043  0.223-  69 2.49  26 2.55  28 2.58  41 2.59  49 2.61   2 2.64  42 2.67  70 2.79
                            61 2.84  38 2.85  32 2.91  40 2.98
  80  0.455  0.784  0.227-  65 2.51  58 2.60  39 2.62  47 2.63  60 2.64  51 2.65  37 2.66  61 2.68
                            38 2.70  56 2.72  30 2.74  35 2.74
 
  LATTYP: Found a hexagonal cell.
 ALAT       =    11.2227001190
 C/A-ratio  =     1.9603125600
  
  Lattice vectors:
  
 A1 = (   5.6113500595,  -9.7191434021,   0.0000000000)
 A2 = ( -11.2227001190,   0.0000000000,   0.0000000000)
 A3 = (   0.0000000000,   0.0000000000, -22.0000000000)


Analysis of symmetry for initial positions (statically):
=====================================================================
 Subroutine PRICEL returns:
 Original cell was already a primitive cell.
 

 Routine SETGRP: Setting up the symmetry group for a 
 hexagonal supercell.


 Subroutine GETGRP returns: Found  1 space group operations
 (whereof  1 operations were pure point group operations)
 out of a pool of 24 trial point group operations.


The static configuration has the point symmetry C_1 .


Analysis of symmetry for dynamics (positions and initial velocities):
=====================================================================
 Subroutine PRICEL returns:
 Original cell was already a primitive cell.
 

 Routine SETGRP: Setting up the symmetry group for a 
 hexagonal supercell.


 Subroutine GETGRP returns: Found  1 space group operations
 (whereof  1 operations were pure point group operations)
 out of a pool of 24 trial point group operations.


The dynamic configuration has the point symmetry C_1 .


Analysis of structural, dynamic, and magnetic symmetry:
=====================================================================
 Subroutine PRICEL returns:
 Original cell was already a primitive cell.
 

 Routine SETGRP: Setting up the symmetry group for a 
 hexagonal supercell.


 Subroutine GETGRP returns: Found  1 space group operations
 (whereof  1 operations were pure point group operations)
 out of a pool of 24 trial point group operations.


The magnetic configuration has the point symmetry C_1 .


 Subroutine INISYM returns: Found  1 space group operations
 (whereof  1 operations are pure point group operations),
 and found     1 'primitive' translations

 
 
 KPOINTS: mesh auto                               

Automatic generation of k-mesh.
Space group operators:
 irot       det(A)        alpha          n_x          n_y          n_z        tau_x        tau_y        tau_z
    1     1.000000     0.000000     1.000000     0.000000     0.000000     0.000000     0.000000     0.000000
 
 Subroutine IBZKPT returns following result:
 ===========================================
 
 Found      4 irreducible k-points:
 
 Following reciprocal coordinates:
            Coordinates               Weight
  0.000000  0.000000  0.000000      1.000000
  0.500000  0.000000  0.000000      1.000000
  0.000000  0.500000  0.000000      1.000000
  0.500000  0.500000  0.000000      1.000000
 
 Following cartesian coordinates:
            Coordinates               Weight
  0.000000  0.000000  0.000000      1.000000
  0.044553 -0.025722  0.000000      1.000000
  0.000000  0.051445  0.000000      1.000000
  0.044553  0.025722  0.000000      1.000000
 


--------------------------------------------------------------------------------------------------------




 Dimension of arrays:
   k-points           NKPTS =      4   k-points in BZ     NKDIM =      4   number of bands    NBANDS=    590
   number of dos      NEDOS =    301   number of ions     NIONS =     80
   non local maximal  LDIM  =      6   non local SUM 2l+1 LMDIM =     18
   total plane-waves  NPLWV = ******
   max r-space proj   IRMAX =   7929   max aug-charges    IRDMAX=  34542
   dimension x,y,z NGX =    90 NGY =   90 NGZ =  168
   dimension x,y,z NGXF=   180 NGYF=  180 NGZF=  336
   support grid    NGXF=   180 NGYF=  180 NGZF=  336
   ions per type =              42  10   9  10   9
   NGX,Y,Z   is equivalent  to a cutoff of  13.33, 13.33, 12.70 a.u.
   NGXF,Y,Z  is equivalent  to a cutoff of  26.66, 26.66, 25.39 a.u.

 SYSTEM =  Pt111                                   
 POSCAR =  11.26-high                              

 Startparameter for this run:
   NWRITE =      2    write-flag & timer
   PREC   = accura    normal or accurate (medium, high low for compatibility)
   ISTART =      0    job   : 0-new  1-cont  2-samecut
   ICHARG =      2    charge: 1-file 2-atom 10-const
   ISPIN  =      2    spin polarized calculation?
   LNONCOLLINEAR =      F non collinear calculations
   LSORBIT =      F    spin-orbit coupling
   INIWAV =      1    electr: 0-lowe 1-rand  2-diag
   LASPH  =      F    aspherical Exc in radial PAW
   METAGGA=      F    non-selfconsistent MetaGGA calc.

 Electronic Relaxation 1
   ENCUT  =  550.0 eV  40.42 Ry    6.36 a.u.  21.46 21.46 42.07*2*pi/ulx,y,z
   ENINI  =  550.0     initial cutoff
   ENAUG  =  587.0 eV  augmentation charge cutoff
   NELM   =    200;   NELMIN=  2; NELMDL= -5     # of ELM steps 
   EDIFF  = 0.1E-04   stopping-criterion for ELM
   LREAL  =      T    real-space projection
   NLSPLINE    = F    spline interpolate recip. space projectors
   LCOMPAT=      F    compatible to vasp.4.4
   GGA_COMPAT  = T    GGA compatible to vasp.4.4-vasp.4.6
   LMAXPAW     = -100 max onsite density
   LMAXMIX     =    2 max onsite mixed and CHGCAR
   VOSKOWN=      0    Vosko Wilk Nusair interpolation
   ROPT   =   -0.00025  -0.00025  -0.00025  -0.00025
   ROPT   =   -0.00025
 Ionic relaxation
   EDIFFG = -.5E-01   stopping-criterion for IOM
   NSW    =    300    number of steps for IOM
   NBLOCK =      1;   KBLOCK =    300    inner block; outer block 
   IBRION =      2    ionic relax: 0-MD 1-quasi-New 2-CG
   NFREE  =      1    steps in history (QN), initial steepest desc. (CG)
   ISIF   =      2    stress and relaxation
   IWAVPR =     11    prediction:  0-non 1-charg 2-wave 3-comb
   ISYM   =      2    0-nonsym 1-usesym 2-fastsym
   LCORR  =      T    Harris-Foulkes like correction to forces

   POTIM  = 0.5000    time-step for ionic-motion
   TEIN   =    0.0    initial temperature
   TEBEG  =    0.0;   TEEND  =   0.0 temperature during run
   SMASS  =  -3.00    Nose mass-parameter (am)
   estimated Nose-frequenzy (Omega)   =  0.10E-29 period in steps =****** mass=  -0.288E-26a.u.
   SCALEE = 1.0000    scale energy and forces
   NPACO  =    256;   APACO  = 16.0  distance and # of slots for P.C.
   PSTRESS=    0.0 pullay stress

  Mass of Ions in am
   POMASS = 195.08 55.85 58.93 63.55 58.69
  Ionic Valenz
   ZVAL   =  10.00  8.00  9.00 11.00 10.00
  Atomic Wigner-Seitz radii
   RWIGS  =  -1.00 -1.00 -1.00 -1.00 -1.00
  virtual crystal weights 
   VCA    =   1.00  1.00  1.00  1.00  1.00
   NELECT =     781.0000    total number of electrons
   NUPDOWN=      -1.0000    fix difference up-down

 DOS related values:
   EMIN   =  10.00;   EMAX   =-10.00  energy-range for DOS
   EFERMI =   0.00
   ISMEAR =     1;   SIGMA  =   0.10  broadening in eV -4-tet -1-fermi 0-gaus

 Electronic relaxation 2 (details)
   IALGO  =     68    algorithm
   LDIAG  =      T    sub-space diagonalisation (order eigenvalues)
   LSUBROT=      F    optimize rotation matrix (better conditioning)
   TURBO    =      0    0=normal 1=particle mesh
   IRESTART =      0    0=no restart 2=restart with 2 vectors
   NREBOOT  =      0    no. of reboots
   NMIN     =      0    reboot dimension
   EREF     =   0.00    reference energy to select bands
   IMIX   =      4    mixing-type and parameters
     AMIX     =   0.40;   BMIX     =  1.00
     AMIX_MAG =   1.60;   BMIX_MAG =  1.00
     AMIN     =   0.10
     WC   =   100.;   INIMIX=   1;  MIXPRE=   1;  MAXMIX= -45

 Intra band minimization:
   WEIMIN = 0.0010     energy-eigenvalue tresh-hold
   EBREAK =  0.42E-08  absolut break condition
   DEPER  =   0.30     relativ break condition  

   TIME   =   0.40     timestep for ELM

  volume/ion in A,a.u.               =      30.00       202.42
  Fermi-wavevector in a.u.,A,eV,Ry     =   1.126097  2.128015 17.253475  1.268095
  Thomas-Fermi vector in A             =   2.262777
 
 Write flags
   LWAVE        =      F    write WAVECAR
   LDOWNSAMPLE  =      F    k-point downsampling of WAVECAR
   LCHARG       =      F    write CHGCAR
   LVTOT        =      F    write LOCPOT, total local potential
   LVHAR        =      F    write LOCPOT, Hartree potential only
   LELF         =      F    write electronic localiz. function (ELF)
   LORBIT       =      0    0 simple, 1 ext, 2 COOP (PROOUT), +10 PAW based schemes


 Dipole corrections
   LMONO  =      F    monopole corrections only (constant potential shift)
   LDIPOL =      F    correct potential (dipole corrections)
   IDIPOL =      0    1-x, 2-y, 3-z, 4-all directions 
   EPSILON=  1.0000000 bulk dielectric constant

 Exchange correlation treatment:
   GGA     =    --    GGA type
   LEXCH   =     8    internal setting for exchange type
   VOSKOWN=      0    Vosko Wilk Nusair interpolation
   LHFCALC =     F    Hartree Fock is set to
   LHFONE  =     F    Hartree Fock one center treatment
   AEXX    =    0.0000 exact exchange contribution

 Linear response parameters
   LEPSILON=     F    determine dielectric tensor
   LRPA    =     F    only Hartree local field effects (RPA)
   LNABLA  =     F    use nabla operator in PAW spheres
   LVEL    =     F    velocity operator in full k-point grid
   LINTERFAST=   F  fast interpolation
   KINTER  =     0    interpolate to denser k-point grid
   CSHIFT  =0.1000    complex shift for real part using Kramers Kronig
   OMEGAMAX=  -1.0    maximum frequency
   DEG_THRESHOLD= 0.2000000E-02 threshold for treating states as degnerate
   RTIME   =   -0.100 relaxation time in fs
  (WPLASMAI=    0.000 imaginary part of plasma frequency in eV, 0.658/RTIME)
   DFIELD  = 0.0000000 0.0000000 0.0000000 field for delta impulse in time
 
 Orbital magnetization related:
   ORBITALMAG=     F  switch on orbital magnetization
   LCHIMAG   =     F  perturbation theory with respect to B field
   DQ        =  0.001000  dq finite difference perturbation B field
   LLRAUG    =     F  two centre corrections for induced B field



--------------------------------------------------------------------------------------------------------


 conjugate gradient relaxation of ions
 charge density and potential will be updated during run
 spin polarized calculation
 RMM-DIIS sequential band-by-band and
  variant of blocked Davidson during initial phase
 perform sub-space diagonalisation
    before iterative eigenvector-optimisation
 modified Broyden-mixing scheme, WC =      100.0
 initial mixing is a Kerker type mixing with AMIX =  0.4000 and BMIX =      1.0000
 Hartree-type preconditioning will be used
 using additional bands          199
 real space projection scheme for non local part
 use partial core corrections
 calculate Harris-corrections to forces 
   (improved forces if not selfconsistent)
 use gradient corrections 
 use of overlap-Matrix (Vanderbilt PP)
 Methfessel and Paxton  Order N= 1 SIGMA  =   0.10


--------------------------------------------------------------------------------------------------------


  energy-cutoff  :      550.00
  volume of cell :     2399.65
      direct lattice vectors                 reciprocal lattice vectors
    11.222700119  0.000000000  0.000000000     0.089105116 -0.051444863  0.000000000
     5.611350060  9.719143402  0.000000000     0.000000000  0.102889726  0.000000000
     0.000000000  0.000000000 22.000000000     0.000000000  0.000000000  0.045454545

  length of vectors
    11.222700119 11.222700119 22.000000000     0.102889726  0.102889726  0.045454545


 
 k-points in units of 2pi/SCALE and weight: mesh auto                               
   0.00000000  0.00000000  0.00000000       0.250
   0.04455256 -0.02572243  0.00000000       0.250
   0.00000000  0.05144486  0.00000000       0.250
   0.04455256  0.02572243  0.00000000       0.250
 
 k-points in reciprocal lattice and weights: mesh auto                               
   0.00000000  0.00000000  0.00000000       0.250
   0.50000000  0.00000000  0.00000000       0.250
   0.00000000  0.50000000  0.00000000       0.250
   0.50000000  0.50000000  0.00000000       0.250
 
 position of ions in fractional coordinates (direct lattice) 
   0.77557731  0.87023446  0.31491798
   0.03566414  0.86950213  0.31521456
   0.03615767  0.61588908  0.31285262
   0.02791266  0.37106897  0.31866255
   0.28973222  0.10610163  0.31849496
   0.28698873  0.36725331  0.31745541
   0.86050109  0.68861528  0.12524734
   0.86808790  0.95213121  0.41666990
   0.11449634  0.45607477  0.41952026
   0.12437452  0.94793617  0.41692669
   0.86914511  0.44915499  0.42087487
   0.37201453  0.94582244  0.41852845
   0.86666409  0.20402833  0.41576606
   0.11884116  0.20127637  0.42016669
   0.61857524  0.94684491  0.41794791
   0.86726765  0.70403975  0.41969217
   0.37175150  0.19643187  0.41983204
   0.37318037  0.70347391  0.41805279
   0.62158984  0.45658354  0.41950491
   0.11711702  0.70104955  0.41854642
   0.61877267  0.20496274  0.41709259
   0.54095877  0.37599332  0.31776731
   0.53152741  0.12125529  0.31647534
   0.54388392  0.12032953  0.05046071
   0.11412375  0.43852463  0.12339881
   0.03906202  0.11397256  0.31575839
   0.02451957  0.13231724  0.03686534
   0.11511913  0.95861076  0.12972966
   0.36651267  0.45332229  0.41957339
   0.45580717  0.53953777  0.22139118
   0.61763008  0.70108573  0.42061922
   0.94106844  0.79056635  0.21798427
   0.77955474  0.62278550  0.31816873
   0.28923812  0.62062714  0.31780355
   0.37710987  0.70904666  0.12233516
   0.19794190  0.27723465  0.22297616
   0.69391415  0.54856976  0.22214892
   0.21082391  0.79170103  0.22374847
   0.45576047  0.01650898  0.22063860
   0.68626801  0.04690616  0.21474070
   0.78389377  0.12139550  0.31323568
   0.94361215  0.28574935  0.22161883
   0.78668926  0.88217404  0.04872713
   0.03592463  0.85056093  0.04657607
   0.04812590  0.63014879  0.04389295
   0.62088943  0.22565295  0.13239177
   0.37096512  0.94444030  0.13121415
   0.99367652  0.37200690  0.04469140
   0.86318628  0.21224211  0.13085914
   0.94630189  0.53213805  0.22397541
   0.53612581  0.61943382  0.32304446
   0.29433817  0.10923141  0.05027666
   0.56539333  0.59649394  0.04678133
   0.30345360  0.38410331  0.05004571
   0.62777529  0.92359150  0.13044435
   0.69897021  0.77998665  0.22253338
   0.62229393  0.44858982  0.13152828
   0.28900464  0.86639359  0.31974733
   0.27917808  0.90349758  0.04111247
   0.61454946  0.71016364  0.13004050
   0.21659938  0.02231615  0.22571886
   0.53626881  0.37637836  0.04013320
   0.37004039  0.21046492  0.13648071
   0.13259483  0.68951595  0.13744650
   0.53520414  0.85788928  0.31870539
   0.78409053  0.12585167  0.04035627
   0.53275296  0.86615708  0.04087043
   0.21062908  0.52290996  0.22145534
   0.86928745  0.97371835  0.13238396
   0.70501817  0.29136942  0.22454955
   0.45325589  0.29465112  0.22345032
   0.85554265  0.44992218  0.13131281
   0.12765565  0.19167068  0.13064729
   0.77262459  0.59826317  0.04206282
   0.27508159  0.61322104  0.04638251
   0.38532298  0.45016856  0.13182871
   0.77709108  0.37990542  0.31997050
   0.77562319  0.36565153  0.04364830
   0.95370528  0.04284982  0.22279132
   0.45521673  0.78368248  0.22716720
 
 position of ions in cartesian coordinates  (Angst):
  13.58726180  8.45793355  6.92819546
   5.27932885  8.45081594  6.93472035
   3.86175589  5.98591429  6.88275773
   2.39545334  3.60647257  7.01057618
   3.84695122  1.03121694  7.00688907
   5.28157532  3.56938762  6.98401907
  13.52120704  6.69275067  2.75544142
  15.08503172  9.25389977  9.16673789
   3.84415323  4.43265604  9.22944567
   6.71501960  9.21312753  9.17238709
  12.27452078  4.36540173  9.25924714
   9.48234834  9.19258397  9.20762597
  10.87118564  1.98298063  9.14685329
   2.46315082  1.95623390  9.24366723
  12.25516261  9.20252146  9.19485408
  13.68369824  6.84266330  9.23322776
   5.27430357  1.90914955  9.23630490
   8.13552977  6.83716379  9.19716134
   9.53796645  4.43760088  9.22910808
   5.24820355  6.81360106  9.20802115
   8.09441783  1.99206229  9.17603704
   8.18084821  3.65433298  6.99088086
   6.64557857  1.17849751  6.96245758
   6.77905724  1.16949998  1.11013570
   3.74149190  4.26208379  2.71477375
   1.07792125  1.10771562  6.94668459
   1.01765409  1.28601020  0.81103743
   6.67104806  9.31687547  2.85405241
   6.65701177  4.40590431  9.23061452
   8.14292251  5.24384492  4.87060606
  10.86551462  6.81395277  9.25362276
  14.99747344  7.68362771  4.79565388
  12.24337653  6.05294162  6.99971208
   6.72858883  6.03196417  6.99167801
   8.21089993  6.89132613  2.69137342
   3.77710324  2.69448335  4.90547546
  10.86580739  5.33162820  4.88727618
   6.80852515  7.69465581  4.92246635
   5.20750074  0.16045314  4.85404918
   7.96498701  0.45588771  4.72429544
   9.47859740  1.17986031  6.89118492
  12.19331581  2.77723888  4.87561425
  13.77896496  8.57397599  1.07199685
   5.17596650  8.26672361  1.02467348
   4.07608798  6.12450644  0.96564482
   8.23427355  2.19315337  2.91261892
   9.46281542  9.17915070  2.88671124
  13.23919459  3.61558843  0.98321085
  10.87824558  2.06281153  2.87890104
  13.60607517  5.17192598  4.92745905
   9.49263919  6.02036615  7.10697803
   3.91620470  1.06163574  1.10608656
   9.69237606  5.79741016  1.02918917
   5.56090694  3.73315518  1.10100553
  12.22792907  8.97651821  2.86977563
  12.22111125  7.58080210  4.89573437
   9.50101271  4.35990876  2.89362216
   8.10505012  8.42060354  7.03444129
   8.20297303  8.78122255  0.90447431
  10.88188108  6.90218223  2.86089096
   2.55605360  0.21689390  4.96581491
   8.13037477  3.65807530  0.88293031
   5.33384471  2.04553872  3.00257571
   5.35718746  6.70150443  3.02382291
  10.82035262  8.33794894  7.01151866
   9.50581065  1.22317047  0.88783798
  10.83923732  8.41830489  0.89914948
   5.29805786  5.08223689  4.87201747
  15.21962685  9.46370825  2.91244701
   9.54718333  2.83186113  4.94009015
   6.74014548  2.86375646  4.91590706
  12.12616943  4.37285816  2.88888182
   2.50817237  1.86287480  2.87424048
  12.02799819  5.81460557  0.92538205
   6.52815611  5.95998323  1.02041528
   6.85041764  4.37525275  2.90023170
  10.85284239  3.69235521  7.03935091
  10.75638520  3.55381961  0.96026255
  10.94359373  0.41646358  4.90140911
   9.50627759  7.61672243  4.99767847
 


--------------------------------------------------------------------------------------------------------


 k-point  1 :   0.0000 0.0000 0.0000  plane waves:   70321
 k-point  2 :   0.5000 0.0000 0.0000  plane waves:   70264
 k-point  3 :   0.0000 0.5000 0.0000  plane waves:   70264
 k-point  4 :   0.5000 0.5000 0.0000  plane waves:   70264

 maximum and minimum number of plane-waves per node :     17611    17530

 maximum number of plane-waves:     70321
 maximum index in each direction: 
   IXMAX=   21   IYMAX=   21   IZMAX=   42
   IXMIN=  -21   IYMIN=  -21   IZMIN=  -42


 real space projection operators:
  total allocation   :      80220.23 KBytes
  max/ min on nodes  :      20511.00      19606.36


 parallel 3D FFT for wavefunctions:
    minimum data exchange during FFTs selected (reduces bandwidth)
 parallel 3D FFT for charge:
    minimum data exchange during FFTs selected (reduces bandwidth)


 total amount of memory used by VASP MPI-rank0   281788. kBytes
=======================================================================

   base      :      30000. kBytes
   nonlr-proj:      35977. kBytes
   fftplans  :      20287. kBytes
   grid      :      59495. kBytes
   one-center:        622. kBytes
   wavefun   :     135407. kBytes
 
     INWAV:  cpu time    0.0000: real time    0.0000
 Broyden mixing: mesh for mixing (old mesh)
   NGX = 43   NGY = 43   NGZ = 85
  (NGX  =180   NGY  =180   NGZ  =336)
  gives a total of 157165 points

 initial charge density was supplied:
 charge density of overlapping atoms calculated
 number of electron     781.0000000 magnetization     231.0000000
 keeping initial charge density in first step


--------------------------------------------------------------------------------------------------------


 Maximum index for non-local projection operator         2112
 Maximum index for augmentation-charges         1780 (set IRDMAX)


--------------------------------------------------------------------------------------------------------


 First call to EWALD:  gamma=   0.132
 Maximum number of real-space cells 4x 4x 2
 Maximum number of reciprocal cells 2x 2x 4

    FEWALD:  cpu time    0.0041: real time    0.0041


--------------------------------------- Iteration      1(   1)  ---------------------------------------


    POTLOK:  cpu time    0.4665: real time    0.4830
    SETDIJ:  cpu time    0.0329: real time    0.0330
     EDDAV:  cpu time   73.0144: real time   73.2838
       DOS:  cpu time    0.0017: real time    0.0018
    --------------------------------------------
      LOOP:  cpu time   73.5155: real time   73.8016

 eigenvalue-minimisations  :  9440
 total energy-change (2. order) : 0.7518859E+04  (-0.3314851E+05)
 number of electron     781.0000000 magnetization     231.0000000
 augmentation part      781.0000000 magnetization     231.0000000

 Free energy of the ion-electron system (eV)
  ---------------------------------------------------
  alpha Z        PSCENC =      2084.20157746
  Ewald energy   TEWEN  =    207751.53710333
  -Hartree energ DENC   =   -277439.02501863
  -exchange      EXHF   =         0.00000000
  -V(xc)+E(xc)   XCENC  =      1136.69741913
  PAW double counting   =     62147.22769417   -63173.41155345
  entropy T*S    EENTRO =        -0.00682918
  eigenvalues    EBANDS =      7516.56401759
  atomic energy  EATOM  =     67495.07432386
  Solvation  Ediel_sol  =         0.00000000
  ---------------------------------------------------
  free energy    TOTEN  =      7518.85873428 eV

  energy without entropy =     7518.86556346  energy(sigma->0) =     7518.86101067


--------------------------------------------------------------------------------------------------------




--------------------------------------- Iteration      1(   2)  ---------------------------------------


     EDDAV:  cpu time   73.7353: real time   73.9113
       DOS:  cpu time    0.0019: real time    0.0019
    --------------------------------------------
      LOOP:  cpu time   73.7371: real time   73.9132

 eigenvalue-minimisations  :  9570
 total energy-change (2. order) :-0.6878046E+04  (-0.6135186E+04)
 number of electron     781.0000000 magnetization     231.0000000
 augmentation part      781.0000000 magnetization     231.0000000

 Free energy of the ion-electron system (eV)
  ---------------------------------------------------
  alpha Z        PSCENC =      2084.20157746
  Ewald energy   TEWEN  =    207751.53710333
  -Hartree energ DENC   =   -277439.02501863
  -exchange      EXHF   =         0.00000000
  -V(xc)+E(xc)   XCENC  =      1136.69741913
  PAW double counting   =     62147.22769417   -63173.41155345
  entropy T*S    EENTRO =         0.00606604
  eigenvalues    EBANDS =       638.50463700
  atomic energy  EATOM  =     67495.07432386
  Solvation  Ediel_sol  =         0.00000000
  ---------------------------------------------------
  free energy    TOTEN  =       640.81224891 eV

  energy without entropy =      640.80618287  energy(sigma->0) =      640.81022690


--------------------------------------------------------------------------------------------------------




--------------------------------------- Iteration      1(   3)  ---------------------------------------


     EDDAV:  cpu time   72.9945: real time   73.1672
       DOS:  cpu time    0.0020: real time    0.0020
    --------------------------------------------
      LOOP:  cpu time   72.9966: real time   73.1692

 eigenvalue-minimisations  :  9470
 total energy-change (2. order) :-0.1013861E+04  (-0.8321657E+03)
 number of electron     781.0000000 magnetization     231.0000000
 augmentation part      781.0000000 magnetization     231.0000000

 Free energy of the ion-electron system (eV)
  ---------------------------------------------------
  alpha Z        PSCENC =      2084.20157746
  Ewald energy   TEWEN  =    207751.53710333
  -Hartree energ DENC   =   -277439.02501863
  -exchange      EXHF   =         0.00000000
  -V(xc)+E(xc)   XCENC  =      1136.69741913
  PAW double counting   =     62147.22769417   -63173.41155345
  entropy T*S    EENTRO =        -0.00918454
  eigenvalues    EBANDS =      -375.34077069
  atomic energy  EATOM  =     67495.07432386
  Solvation  Ediel_sol  =         0.00000000
  ---------------------------------------------------
  free energy    TOTEN  =      -373.04840936 eV

  energy without entropy =     -373.03922482  energy(sigma->0) =     -373.04534784


--------------------------------------------------------------------------------------------------------




--------------------------------------- Iteration      1(   4)  ---------------------------------------


     EDDAV:  cpu time   87.1119: real time   87.3183
       DOS:  cpu time    0.0021: real time    0.0021
    --------------------------------------------
      LOOP:  cpu time   87.1141: real time   87.3204

 eigenvalue-minimisations  : 11880
 total energy-change (2. order) :-0.9141959E+02  (-0.8375206E+02)
 number of electron     781.0000000 magnetization     231.0000000
 augmentation part      781.0000000 magnetization     231.0000000

 Free energy of the ion-electron system (eV)
  ---------------------------------------------------
  alpha Z        PSCENC =      2084.20157746
  Ewald energy   TEWEN  =    207751.53710333
  -Hartree energ DENC   =   -277439.02501863
  -exchange      EXHF   =         0.00000000
  -V(xc)+E(xc)   XCENC  =      1136.69741913
  PAW double counting   =     62147.22769417   -63173.41155345
  entropy T*S    EENTRO =        -0.00578340
  eigenvalues    EBANDS =      -466.76376505
  atomic energy  EATOM  =     67495.07432386
  Solvation  Ediel_sol  =         0.00000000
  ---------------------------------------------------
  free energy    TOTEN  =      -464.46800258 eV

  energy without entropy =     -464.46221918  energy(sigma->0) =     -464.46607478


--------------------------------------------------------------------------------------------------------




--------------------------------------- Iteration      1(   5)  ---------------------------------------


     EDDAV:  cpu time   83.7600: real time   83.9580
       DOS:  cpu time    0.0021: real time    0.0021
    CHARGE:  cpu time    4.9203: real time    4.9321
    MIXING:  cpu time    0.0104: real time    0.0109
    --------------------------------------------
      LOOP:  cpu time   88.6929: real time   88.9032

 eigenvalue-minimisations  : 11300
 total energy-change (2. order) :-0.3769235E+01  (-0.3738053E+01)
 number of electron     781.0000032 magnetization     215.7903750
 augmentation part      312.8240092 magnetization     180.8595574

 Broyden mixing:
  rms(total) = 0.11747E+02    rms(broyden)= 0.11747E+02
  rms(prec ) = 0.12135E+02
  weight for this iteration     100.00

 Free energy of the ion-electron system (eV)
  ---------------------------------------------------
  alpha Z        PSCENC =      2084.20157746
  Ewald energy   TEWEN  =    207751.53710333
  -Hartree energ DENC   =   -277439.02501863
  -exchange      EXHF   =         0.00000000
  -V(xc)+E(xc)   XCENC  =      1136.69741913
  PAW double counting   =     62147.22769417   -63173.41155345
  entropy T*S    EENTRO =        -0.00574407
  eigenvalues    EBANDS =      -470.53303948
  atomic energy  EATOM  =     67495.07432386
  Solvation  Ediel_sol  =         0.00000000
  ---------------------------------------------------
  free energy    TOTEN  =      -468.23723768 eV

  energy without entropy =     -468.23149361  energy(sigma->0) =     -468.23532299


--------------------------------------------------------------------------------------------------------




--------------------------------------- Iteration      1(   6)  ---------------------------------------


    POTLOK:  cpu time    0.4552: real time    0.4563
    SETDIJ:  cpu time    0.0340: real time    0.0340
    EDDIAG:  cpu time   13.0628: real time   13.0942
  RMM-DIIS:  cpu time   47.8356: real time   47.9510
    ORTHCH:  cpu time    1.5274: real time    1.5314
       DOS:  cpu time    0.0020: real time    0.0020
    CHARGE:  cpu time    4.9406: real time    4.9530
    MIXING:  cpu time    0.0106: real time    0.0110
    --------------------------------------------
      LOOP:  cpu time   67.8681: real time   68.0329

 eigenvalue-minimisations  : 10049
 total energy-change (2. order) :-0.2869338E+03  (-0.1011907E+03)
 number of electron     781.0000043 magnetization     211.9217134
 augmentation part      370.5144193 magnetization     175.4726750

 Broyden mixing:
  rms(total) = 0.20614E+02    rms(broyden)= 0.20614E+02
  rms(prec ) = 0.27399E+02
  weight for this iteration     100.00

 eigenvalues of (default mixing * dielectric matrix)
  average eigenvalue GAMMA=   0.2539
  0.2539

 Free energy of the ion-electron system (eV)
  ---------------------------------------------------
  alpha Z        PSCENC =      2084.20157746
  Ewald energy   TEWEN  =    207751.53710333
  -Hartree energ DENC   =   -275859.26430141
  -exchange      EXHF   =         0.00000000
  -V(xc)+E(xc)   XCENC  =      1099.30319544
  PAW double counting   =     66563.20726040   -67414.37146119
  entropy T*S    EENTRO =        -0.00616513
  eigenvalues    EBANDS =     -2474.85256631
  atomic energy  EATOM  =     67495.07432386
  Solvation  Ediel_sol  =         0.00000000
  ---------------------------------------------------
  free energy    TOTEN  =      -755.17103356 eV

  energy without entropy =     -755.16486843  energy(sigma->0) =     -755.16897852


--------------------------------------------------------------------------------------------------------




--------------------------------------- Iteration      1(   7)  ---------------------------------------


    POTLOK:  cpu time    0.4538: real time    0.4549
    SETDIJ:  cpu time    0.0344: real time    0.0345
    EDDIAG:  cpu time   13.0534: real time   13.0866
  RMM-DIIS:  cpu time   45.0956: real time   45.2099
    ORTHCH:  cpu time    1.5258: real time    1.5298
       DOS:  cpu time    0.0020: real time    0.0020
    CHARGE:  cpu time    4.9378: real time    4.9503
    MIXING:  cpu time    0.0107: real time    0.0108
    --------------------------------------------
      LOOP:  cpu time   65.1136: real time   65.2788

 eigenvalue-minimisations  :  9460
 total energy-change (2. order) : 0.2096514E+03  (-0.1851025E+02)
 number of electron     781.0000032 magnetization     207.0955340
 augmentation part      340.5024167 magnetization     166.3455266

 Broyden mixing:
  rms(total) = 0.15191E+02    rms(broyden)= 0.15191E+02
  rms(prec ) = 0.19401E+02
  weight for this iteration     100.00

 eigenvalues of (default mixing * dielectric matrix)
  average eigenvalue GAMMA=   0.2664
  0.3792  0.1537

 Free energy of the ion-electron system (eV)
  ---------------------------------------------------
  alpha Z        PSCENC =      2084.20157746
  Ewald energy   TEWEN  =    207751.53710333
  -Hartree energ DENC   =   -276491.70475180
  -exchange      EXHF   =         0.00000000
  -V(xc)+E(xc)   XCENC  =      1117.37929765
  PAW double counting   =     67530.64519314   -68522.71427448
  entropy T*S    EENTRO =        -0.00033737
  eigenvalues    EBANDS =     -1509.93775022
  atomic energy  EATOM  =     67495.07432386
  Solvation  Ediel_sol  =         0.00000000
  ---------------------------------------------------
  free energy    TOTEN  =      -545.51961843 eV

  energy without entropy =     -545.51928107  energy(sigma->0) =     -545.51950598


--------------------------------------------------------------------------------------------------------




--------------------------------------- Iteration      1(   8)  ---------------------------------------


    POTLOK:  cpu time    0.4565: real time    0.4576
    SETDIJ:  cpu time    0.0345: real time    0.0346
    EDDIAG:  cpu time   13.0724: real time   13.1055
  RMM-DIIS:  cpu time   45.1256: real time   45.2400
    ORTHCH:  cpu time    1.5309: real time    1.5347
       DOS:  cpu time    0.0021: real time    0.0021
    CHARGE:  cpu time    4.8194: real time    4.8317
    MIXING:  cpu time    0.0113: real time    0.0113
    --------------------------------------------
      LOOP:  cpu time   65.0528: real time   65.2176

 eigenvalue-minimisations  :  9471
 total energy-change (2. order) : 0.1236106E+03  (-0.1713761E+02)
 number of electron     781.0000034 magnetization     200.0960647
 augmentation part      351.0135006 magnetization     156.6936154

 Broyden mixing:
  rms(total) = 0.12467E+02    rms(broyden)= 0.12467E+02
  rms(prec ) = 0.13850E+02
  weight for this iteration     100.00

 eigenvalues of (default mixing * dielectric matrix)
  average eigenvalue GAMMA=   0.3134
  0.5503  0.2803  0.1096

 Free energy of the ion-electron system (eV)
  ---------------------------------------------------
  alpha Z        PSCENC =      2084.20157746
  Ewald energy   TEWEN  =    207751.53710333
  -Hartree energ DENC   =   -276665.77932543
  -exchange      EXHF   =         0.00000000
  -V(xc)+E(xc)   XCENC  =      1127.16295481
  PAW double counting   =     68665.73198418   -69715.01524421
  entropy T*S    EENTRO =         0.00035308
  eigenvalues    EBANDS =     -1164.82276282
  atomic energy  EATOM  =     67495.07432386
  Solvation  Ediel_sol  =         0.00000000
  ---------------------------------------------------
  free energy    TOTEN  =      -421.90903574 eV

  energy without entropy =     -421.90938882  energy(sigma->0) =     -421.90915343


--------------------------------------------------------------------------------------------------------




--------------------------------------- Iteration      1(   9)  ---------------------------------------


    POTLOK:  cpu time    0.4547: real time    0.4558
    SETDIJ:  cpu time    0.0345: real time    0.0346
    EDDIAG:  cpu time   13.0823: real time   13.1157
  RMM-DIIS:  cpu time   45.2155: real time   45.3299
    ORTHCH:  cpu time    1.5297: real time    1.5335
       DOS:  cpu time    0.0021: real time    0.0021
    CHARGE:  cpu time    4.8171: real time    4.8294
    MIXING:  cpu time    0.0122: real time    0.0122
    --------------------------------------------
      LOOP:  cpu time   65.1480: real time   65.3131

 eigenvalue-minimisations  :  9487
 total energy-change (2. order) : 0.2498581E+02  (-0.2044314E+02)
 number of electron     781.0000039 magnetization     192.9620559
 augmentation part      347.5720817 magnetization     148.8977928

 Broyden mixing:
  rms(total) = 0.13655E+02    rms(broyden)= 0.13655E+02
  rms(prec ) = 0.14983E+02
  weight for this iteration     100.00

 eigenvalues of (default mixing * dielectric matrix)
  average eigenvalue GAMMA=   0.3477
  0.7513  0.3858  0.1267  0.1267

 Free energy of the ion-electron system (eV)
  ---------------------------------------------------
  alpha Z        PSCENC =      2084.20157746
  Ewald energy   TEWEN  =    207751.53710333
  -Hartree energ DENC   =   -276607.03868360
  -exchange      EXHF   =         0.00000000
  -V(xc)+E(xc)   XCENC  =      1139.64215587
  PAW double counting   =     70002.75534126   -71114.64988967
  entropy T*S    EENTRO =        -0.00019776
  eigenvalues    EBANDS =     -1148.44495663
  atomic energy  EATOM  =     67495.07432386
  Solvation  Ediel_sol  =         0.00000000
  ---------------------------------------------------
  free energy    TOTEN  =      -396.92322586 eV

  energy without entropy =     -396.92302811  energy(sigma->0) =     -396.92315995


--------------------------------------------------------------------------------------------------------




--------------------------------------- Iteration      1(  10)  ---------------------------------------


    POTLOK:  cpu time    0.4542: real time    0.4554
    SETDIJ:  cpu time    0.0346: real time    0.0347
    EDDIAG:  cpu time   13.0710: real time   13.1042
  RMM-DIIS:  cpu time   45.2370: real time   45.3516
    ORTHCH:  cpu time    1.5411: real time    1.5452
       DOS:  cpu time    0.0021: real time    0.0021
    CHARGE:  cpu time    4.8232: real time    4.8355
    MIXING:  cpu time    0.0117: real time    0.0118
    --------------------------------------------
      LOOP:  cpu time   65.1749: real time   65.3403

 eigenvalue-minimisations  :  9462
 total energy-change (2. order) :-0.4550238E+01  (-0.1340451E+02)
 number of electron     781.0000038 magnetization     185.1595803
 augmentation part      345.8444707 magnetization     140.8909970

 Broyden mixing:
  rms(total) = 0.12708E+02    rms(broyden)= 0.12707E+02
  rms(prec ) = 0.14089E+02
  weight for this iteration     100.00

 eigenvalues of (default mixing * dielectric matrix)
  average eigenvalue GAMMA=   0.3730
  0.8665  0.5913  0.1460  0.1460  0.1154

 Free energy of the ion-electron system (eV)
  ---------------------------------------------------
  alpha Z        PSCENC =      2084.20157746
  Ewald energy   TEWEN  =    207751.53710333
  -Hartree energ DENC   =   -276676.29382181
  -exchange      EXHF   =         0.00000000
  -V(xc)+E(xc)   XCENC  =      1145.42912969
  PAW double counting   =     71132.89855826   -72292.88714392
  entropy T*S    EENTRO =        -0.01039162
  eigenvalues    EBANDS =     -1041.42279916
  atomic energy  EATOM  =     67495.07432386
  Solvation  Ediel_sol  =         0.00000000
  ---------------------------------------------------
  free energy    TOTEN  =      -401.47346391 eV

  energy without entropy =     -401.46307229  energy(sigma->0) =     -401.47000004


--------------------------------------------------------------------------------------------------------




--------------------------------------- Iteration      1(  11)  ---------------------------------------


    POTLOK:  cpu time    0.4545: real time    0.4556
    SETDIJ:  cpu time    0.0346: real time    0.0347
    EDDIAG:  cpu time   13.0913: real time   13.1246
  RMM-DIIS:  cpu time   45.1097: real time   45.2234
    ORTHCH:  cpu time    1.5322: real time    1.5358
       DOS:  cpu time    0.0021: real time    0.0021
    CHARGE:  cpu time    4.7873: real time    4.7988
    MIXING:  cpu time    0.0126: real time    0.0127
    --------------------------------------------
      LOOP:  cpu time   65.0244: real time   65.1876

 eigenvalue-minimisations  :  9472
 total energy-change (2. order) : 0.2193750E+02  (-0.8677520E+01)
 number of electron     781.0000036 magnetization     178.0892101
 augmentation part      347.6041717 magnetization     131.8457639

 Broyden mixing:
  rms(total) = 0.10782E+02    rms(broyden)= 0.10782E+02
  rms(prec ) = 0.11987E+02
  weight for this iteration     100.00

 eigenvalues of (default mixing * dielectric matrix)
  average eigenvalue GAMMA=   0.3791
  1.0753  0.5964  0.1841  0.1841  0.1172  0.1172

 Free energy of the ion-electron system (eV)
  ---------------------------------------------------
  alpha Z        PSCENC =      2084.20157746
  Ewald energy   TEWEN  =    207751.53710333
  -Hartree energ DENC   =   -276723.65082107
  -exchange      EXHF   =         0.00000000
  -V(xc)+E(xc)   XCENC  =      1146.03194503
  PAW double counting   =     72089.06335433   -73248.18336159
  entropy T*S    EENTRO =         0.00763549
  eigenvalues    EBANDS =      -973.61771901
  atomic energy  EATOM  =     67495.07432386
  Solvation  Ediel_sol  =         0.00000000
  ---------------------------------------------------
  free energy    TOTEN  =      -379.53596217 eV

  energy without entropy =     -379.54359767  energy(sigma->0) =     -379.53850734


--------------------------------------------------------------------------------------------------------




--------------------------------------- Iteration      1(  12)  ---------------------------------------


    POTLOK:  cpu time    0.4557: real time    0.4568
    SETDIJ:  cpu time    0.0343: real time    0.0344
    EDDIAG:  cpu time   13.0699: real time   13.1011
  RMM-DIIS:  cpu time   45.4006: real time   45.5079
    ORTHCH:  cpu time    1.5403: real time    1.5440
       DOS:  cpu time    0.0022: real time    0.0022
    CHARGE:  cpu time    4.8055: real time    4.8169
    MIXING:  cpu time    0.0129: real time    0.0130
    --------------------------------------------
      LOOP:  cpu time   65.3214: real time   65.4762

 eigenvalue-minimisations  :  9492
 total energy-change (2. order) : 0.5730134E+02  (-0.5942156E+01)
 number of electron     781.0000034 magnetization     173.9962000
 augmentation part      348.7386693 magnetization     125.6696981

 Broyden mixing:
  rms(total) = 0.77830E+01    rms(broyden)= 0.77828E+01
  rms(prec ) = 0.86821E+01
  weight for this iteration     100.00

[...]
   0.108E+02 -.246E+02 -.129E+04   -.110E+02 0.239E+02 0.129E+04   0.184E+00 0.675E+00 0.225E+01   0.389E-01 0.655E-02 -.137E-01
   -.429E+02 0.153E+01 -.136E+04   0.422E+02 -.843E+00 0.136E+04   0.659E+00 -.636E+00 0.162E+01   0.566E-01 -.649E-01 -.140E-01
   0.111E+00 -.819E+02 -.138E+04   -.661E+00 0.808E+02 0.138E+04   0.593E+00 0.118E+01 0.175E+01   -.486E-01 -.829E-01 -.225E-01
   0.515E+02 0.341E+01 -.141E+04   -.512E+02 -.344E+01 0.141E+04   -.304E+00 0.908E-01 0.162E+01   0.677E-02 -.402E-01 -.860E-02
   -.122E+03 -.405E+01 0.153E+04   0.121E+03 0.479E+01 -.153E+04   0.987E+00 -.726E+00 0.686E+00   0.276E-01 -.408E-01 -.454E-01
   -.654E+01 -.776E+00 -.265E+04   0.670E+01 0.569E+00 0.265E+04   -.153E+00 0.192E+00 0.170E+01   -.155E-02 0.271E-01 0.529E-02
   -.130E+02 0.946E+01 -.267E+04   0.127E+02 -.881E+01 0.266E+04   0.298E+00 -.625E+00 0.155E+01   0.217E-01 -.267E-01 0.181E-01
   0.439E+02 -.119E+02 -.268E+04   -.435E+02 0.115E+02 0.268E+04   -.511E+00 0.405E+00 0.233E+01   0.575E-01 -.941E-02 -.531E-01
   -.383E+02 0.116E+01 -.271E+04   0.382E+02 -.176E+01 0.271E+04   0.828E-01 0.598E+00 0.188E+01   0.114E-01 -.410E-02 0.660E-01
   0.137E+02 -.459E+02 -.272E+04   -.139E+02 0.457E+02 0.272E+04   0.226E+00 0.248E+00 0.215E+01   -.270E-01 -.492E-02 -.569E-01
   -.348E+01 0.452E+02 -.267E+04   0.316E+01 -.448E+02 0.267E+04   0.322E+00 -.321E+00 0.170E+01   -.543E-02 -.557E-01 0.376E-01
   -.632E+01 -.542E+01 -.269E+04   0.629E+01 0.557E+01 0.269E+04   0.225E-01 -.873E-01 0.168E+01   0.233E-01 -.632E-01 -.496E-02
   -.470E+02 -.369E+02 -.269E+04   0.469E+02 0.361E+02 0.269E+04   0.106E+00 0.781E+00 0.160E+01   -.266E-01 0.303E-01 0.121E-01
   -.361E+02 0.105E+01 -.267E+04   0.358E+02 -.836E+00 0.267E+04   0.320E+00 -.271E+00 0.143E+01   -.871E-02 0.346E-01 0.282E-01
   0.138E+01 -.309E+02 -.269E+04   -.109E+01 0.303E+02 0.269E+04   -.301E+00 0.664E+00 0.185E+01   0.677E-02 -.400E-01 -.461E-02
   0.578E+02 0.173E+02 -.269E+04   -.569E+02 -.171E+02 0.269E+04   -.988E+00 -.385E+00 0.210E+01   0.115E-01 0.661E-01 -.468E-01
   0.362E+02 0.253E+02 -.272E+04   -.353E+02 -.246E+02 0.272E+04   -.850E+00 -.724E+00 0.217E+01   -.415E-01 0.116E-01 0.546E-01
   0.821E+01 -.964E+01 -.266E+04   -.842E+01 0.939E+01 0.266E+04   0.178E+00 0.219E+00 0.146E+01   0.332E-01 0.280E-01 0.483E-02
   0.924E+01 0.224E+02 -.268E+04   -.905E+01 -.219E+02 0.268E+04   -.195E+00 -.488E+00 0.197E+01   -.239E-01 -.239E-01 0.144E-01
   0.491E+02 0.258E+01 -.143E+04   -.476E+02 -.182E+01 0.143E+04   -.138E+01 -.784E+00 0.137E+01   -.577E-01 -.106E-01 0.722E-02
   -.491E+01 0.123E+02 -.136E+04   0.468E+01 -.121E+02 0.136E+04   0.231E+00 -.214E+00 0.110E+01   -.289E-01 0.340E-02 0.336E-01
   0.820E+02 0.605E+02 0.270E+04   -.817E+02 -.606E+02 -.270E+04   -.306E+00 0.826E-01 -.263E+01   -.187E-01 0.301E-01 -.372E-01
   0.521E+02 -.335E+02 0.159E+04   -.528E+02 0.334E+02 -.159E+04   0.649E+00 0.151E+00 0.143E+01   0.259E-01 -.470E-01 -.121E-01
   -.142E+02 -.152E+02 -.136E+04   0.141E+02 0.150E+02 0.136E+04   -.343E-01 0.371E+00 0.185E+01   0.808E-01 -.121E+00 -.365E-01
   -.788E+02 0.858E+02 0.283E+04   0.795E+02 -.844E+02 -.283E+04   -.632E+00 -.135E+01 -.297E+01   0.127E-01 -.259E-01 0.273E-01
   -.148E+02 0.276E+02 0.149E+04   0.144E+02 -.276E+02 -.149E+04   0.318E+00 -.881E-01 -.328E+00   0.410E-01 0.214E-01 0.238E-01
   0.148E+02 0.767E+01 -.269E+04   -.152E+02 -.754E+01 0.269E+04   0.442E+00 -.127E+00 0.193E+01   0.136E-01 -.193E-01 0.101E-01
   0.113E+02 -.777E+02 0.188E+01   -.110E+02 0.769E+02 -.246E+01   -.402E+00 0.668E+00 0.597E+00   -.269E-01 0.395E-01 -.124E-01
   -.309E+02 0.120E+02 -.273E+04   0.304E+02 -.122E+02 0.273E+04   0.622E+00 0.175E+00 0.194E+01   -.356E-01 0.545E-01 0.198E-01
   0.224E+02 0.308E+02 0.933E+02   -.231E+02 -.315E+02 -.934E+02   0.756E+00 0.733E+00 0.178E+00   0.791E-01 0.219E-01 -.189E-01
   -.816E+02 0.249E+02 -.136E+04   0.807E+02 -.247E+02 0.136E+04   0.896E+00 -.278E+00 0.231E+01   -.397E-02 0.331E-01 0.387E-01
   0.476E+02 -.137E+02 -.138E+04   -.466E+02 0.142E+02 0.138E+04   -.111E+01 -.613E+00 0.133E+01   0.445E-01 0.702E-01 -.698E-02
   0.414E+02 -.782E+02 0.159E+04   -.399E+02 0.781E+02 -.159E+04   -.140E+01 -.189E-01 0.134E+01   -.554E-01 0.707E-01 0.372E-01
   0.398E+02 -.303E+02 -.273E+01   -.401E+02 0.303E+02 0.217E+01   0.411E+00 0.210E-01 0.641E+00   -.169E-01 -.758E-01 -.267E-01
   -.498E+02 -.457E+01 0.104E+01   0.502E+02 0.580E+01 -.169E+01   -.401E+00 -.129E+01 0.715E+00   -.399E-01 -.892E-02 -.637E-01
   0.523E+02 -.282E+01 0.223E+02   -.515E+02 0.390E+01 -.221E+02   -.928E+00 -.116E+01 -.208E+00   0.637E-01 0.901E-01 0.350E-01
   -.309E+02 -.608E+02 0.837E+02   0.301E+02 0.591E+02 -.853E+02   0.104E+01 0.167E+01 0.155E+01   -.129E+00 0.495E-01 0.310E-01
   0.152E+02 0.767E+02 0.134E+03   -.155E+02 -.758E+02 -.136E+03   0.376E+00 -.856E+00 0.165E+01   0.342E-01 0.512E-01 0.232E-01
   0.195E+02 0.722E+02 -.135E+04   -.191E+02 -.718E+02 0.135E+04   -.296E+00 -.364E+00 0.146E+01   0.142E-02 -.452E-01 0.157E-02
   -.107E+03 0.152E+01 0.227E+02   0.106E+03 -.157E+01 -.239E+02   0.919E+00 0.803E-01 0.130E+01   0.460E-01 -.925E-01 -.758E-01
   -.839E+00 0.745E+02 0.220E+04   0.196E+01 -.740E+02 -.220E+04   -.121E+01 -.478E+00 -.365E+01   0.436E-01 0.371E-02 -.355E-01
   -.189E+02 -.162E+02 0.222E+04   0.172E+02 0.144E+02 -.222E+04   0.176E+01 0.197E+01 -.303E+01   0.248E-01 0.301E-01 -.389E-02
   0.122E+03 0.273E+02 0.224E+04   -.120E+03 -.261E+02 -.224E+04   -.202E+01 -.135E+01 -.397E+01   0.287E-01 0.151E-01 0.133E-02
   0.423E+02 0.106E+03 0.112E+04   -.418E+02 -.106E+03 -.112E+04   -.594E+00 -.246E+00 -.643E+00   0.909E-02 0.113E-01 -.155E-01
   0.937E+01 -.402E+02 0.114E+04   -.913E+01 0.400E+02 -.114E+04   -.213E+00 0.158E+00 -.541E+00   -.743E-01 0.405E-01 0.208E-01
   -.212E+03 0.624E+01 0.225E+04   0.209E+03 -.643E+01 -.224E+04   0.268E+01 0.180E+00 -.347E+01   0.978E-02 -.339E-01 0.647E-02
   -.617E+02 0.687E+02 0.112E+04   0.614E+02 -.677E+02 -.112E+04   0.344E+00 -.106E+01 -.682E+00   0.284E-01 -.230E-01 -.960E-02
   -.548E+02 -.989E+01 0.310E+02   0.541E+02 0.990E+01 -.304E+02   0.576E+00 -.110E-02 -.678E+00   0.305E-01 -.442E-01 -.322E-01
   0.237E+02 0.956E+01 -.114E+04   -.236E+02 -.982E+01 0.114E+04   -.190E-01 0.947E-01 -.217E+00   -.640E-01 0.922E-01 0.683E-02
   -.289E+02 -.104E+03 0.220E+04   0.282E+02 0.102E+03 -.220E+04   0.702E+00 0.259E+01 -.314E+01   -.187E-01 0.476E-02 0.184E-01
   0.105E+03 -.140E+03 0.252E+04   -.104E+03 0.139E+03 -.252E+04   -.126E+01 0.104E+01 -.310E+01   -.129E-01 -.354E-02 0.110E-01
   0.201E+03 0.809E+02 0.252E+04   -.200E+03 -.796E+02 -.252E+04   -.115E+01 -.137E+01 -.300E+01   -.149E-01 -.430E-01 -.567E-02
   -.504E+02 -.586E+02 0.131E+04   0.502E+02 0.580E+02 -.131E+04   0.214E+00 0.645E+00 -.554E+00   -.285E-01 0.334E-01 -.608E-01
   -.100E+03 -.173E+01 0.365E+02   0.100E+03 0.151E+01 -.367E+02   0.261E+00 0.242E+00 0.143E+00   -.331E-01 0.394E-02 0.193E-01
   -.170E+01 -.461E+02 0.122E+04   0.191E+01 0.455E+02 -.122E+04   -.231E+00 0.768E+00 -.436E+00   -.625E-02 -.427E-01 0.122E-01
   0.540E+02 0.177E+01 -.126E+04   -.538E+02 -.188E+01 0.126E+04   -.301E+00 0.935E-01 0.351E+00   0.228E-02 0.508E-01 -.247E-01
   0.710E+02 0.478E+02 0.255E+04   -.703E+02 -.459E+02 -.254E+04   -.707E+00 -.188E+01 -.408E+01   -.130E-01 0.493E-01 0.235E-01
   -.587E+01 -.354E+02 0.127E+04   0.611E+01 0.357E+02 -.127E+04   -.222E+00 -.371E+00 -.415E+00   -.593E-01 -.471E-03 -.243E-02
   0.259E+02 -.449E+02 0.238E+02   -.253E+02 0.444E+02 -.235E+02   -.584E+00 0.597E+00 -.382E+00   -.124E-01 -.252E-01 0.383E-01
   0.799E+02 0.128E+02 0.316E+04   -.797E+02 -.122E+02 -.316E+04   -.134E+00 -.628E+00 -.437E+01   -.582E-01 -.398E-01 -.250E-04
   0.658E+02 0.767E+02 0.155E+04   -.663E+02 -.761E+02 -.155E+04   0.494E+00 -.572E+00 0.229E+00   -.417E-01 0.179E-01 -.198E-01
   0.940E+02 -.724E+02 0.147E+04   -.942E+02 0.723E+02 -.147E+04   0.879E-01 0.128E+00 -.496E+00   0.480E-01 0.361E-01 -.107E-01
   -.463E+02 -.376E+02 -.152E+04   0.460E+02 0.366E+02 0.152E+04   0.577E+00 0.107E+01 0.106E+01   -.135E+00 0.712E-01 0.554E-01
   0.160E+02 0.140E+03 0.310E+04   -.159E+02 -.141E+03 -.310E+04   -.112E+00 0.261E+00 -.351E+01   0.282E-01 -.228E-01 -.678E-02
   -.383E+02 -.591E+02 0.312E+04   0.374E+02 0.595E+02 -.312E+04   0.984E+00 -.474E+00 -.478E+01   -.360E-01 0.589E-01 -.327E-01
   0.122E+03 -.508E+02 0.230E+02   -.122E+03 0.500E+02 -.224E+02   -.470E-01 0.785E+00 -.656E+00   0.282E-01 -.457E-02 -.264E-01
   0.394E+02 0.113E+03 0.157E+04   -.393E+02 -.113E+03 -.156E+04   -.286E+00 -.697E+00 -.129E+01   0.835E-01 0.962E-02 -.329E-01
   -.135E+02 0.410E+02 -.255E+02   0.142E+02 -.413E+02 0.255E+02   -.633E+00 0.418E+00 0.151E-01   -.102E-01 -.399E-01 -.683E-01
   0.504E+02 0.739E+02 -.396E+02   -.499E+02 -.734E+02 0.397E+02   -.494E+00 -.652E+00 -.479E-01   -.153E-01 0.144E-02 0.116E-02
   -.149E+03 -.637E+01 0.134E+04   0.148E+03 0.634E+01 -.134E+04   0.755E+00 0.127E+00 -.929E+00   0.154E-01 -.600E-01 -.143E-01
   -.219E+02 -.114E+02 0.146E+04   0.222E+02 0.113E+02 -.146E+04   -.480E+00 0.254E+00 -.764E+00   0.688E-03 -.492E-01 0.227E-01
   -.204E+03 -.115E+03 0.285E+04   0.204E+03 0.114E+03 -.285E+04   0.537E+00 0.134E+01 -.258E+01   0.431E-01 -.110E-01 -.514E-02
   -.194E+02 -.126E+03 0.282E+04   0.175E+02 0.126E+03 -.282E+04   0.198E+01 0.260E+00 -.165E+01   -.325E-01 -.268E-01 -.183E-02
   0.626E+02 -.392E+02 0.139E+04   -.617E+02 0.389E+02 -.139E+04   -.831E+00 0.307E+00 -.587E+00   -.427E-01 -.160E-01 -.191E-01
   -.533E+02 0.159E+02 -.141E+04   0.530E+02 -.156E+02 0.141E+04   0.401E+00 -.328E+00 -.154E-01   -.113E-01 -.245E-01 -.509E-02
   -.597E+02 0.503E+02 0.281E+04   0.600E+02 -.496E+02 -.281E+04   -.314E+00 -.608E+00 -.131E+01   0.276E-01 -.759E-01 0.655E-02
   -.112E+02 0.598E+02 0.141E+02   0.114E+02 -.595E+02 -.138E+02   -.374E+00 -.410E+00 -.294E+00   0.877E-01 -.186E-01 -.114E-01
   0.400E+02 0.659E+01 0.476E+01   -.396E+02 -.646E+01 -.467E+01   -.323E+00 -.306E+00 -.290E+00   -.126E+00 0.937E-01 0.433E-01
 -----------------------------------------------------------------------------------------------
   -.592E+00 0.600E+00 0.946E+00   -.313E-12 0.764E-13 -.131E-10   0.634E+00 -.521E+00 -.768E+00   -.589E-01 -.533E-01 -.159E+00
 
 
 POSITION                                       TOTAL-FORCE (eV/Angst)
 -----------------------------------------------------------------------------------
     13.58684      8.45851      6.92775        -0.005558     -0.000362     -0.006068
      5.27828      8.45164      6.93472         0.007238     -0.006916     -0.011906
      3.86169      5.98660      6.88065         0.003797      0.005019     -0.008267
      2.39495      3.60700      7.01137        -0.000085     -0.001223     -0.003053
      3.84755      1.03186      7.00781         0.002636      0.005205      0.002060
      5.28132      3.56910      6.98281        -0.002378      0.004322     -0.002447
     13.51950      6.69208      2.75694        -0.021106     -0.016054      0.008946
     15.08499      9.25423      9.16509        -0.002227      0.001591     -0.003803
      3.84545      4.43327      9.22917         0.008103      0.003412     -0.005923
      6.71545      9.21323      9.17332         0.000512     -0.006472      0.004911
     12.27433      4.36490      9.25926         0.001735     -0.000334      0.003414
      9.48265      9.19269      9.20741         0.001953      0.000063      0.003561
     10.87072      1.98380      9.14537        -0.003995      0.006143     -0.003852
      2.46359      1.95594      9.24355         0.006190      0.000496      0.004037
     12.25495      9.20353      9.19458         0.001589     -0.003263     -0.000832
     13.68478      6.84255      9.23228         0.003020      0.000428     -0.009782
      5.27549      1.90897      9.23582         0.003882      0.004152      0.005565
      8.13649      6.83704      9.19654        -0.000249     -0.001188     -0.004138
      9.53815      4.43700      9.22878        -0.000501     -0.003523     -0.002399
      5.24747      6.81341      9.20870        -0.001342      0.001586     -0.001422
      8.09373      1.99206      9.17529         0.001509      0.000243     -0.001108
      8.18161      3.65394      6.99055         0.006861      0.002315     -0.008036
      6.64520      1.17917      6.96384         0.004735     -0.000011     -0.008924
      6.78185      1.16816      1.10976        -0.016577      0.003956      0.000103
      3.74327      4.26289      2.71491         0.015774      0.003622      0.005679
      1.07848      1.10800      6.94857         0.005833      0.005640      0.002274
      1.01575      1.28649      0.81183         0.010102     -0.009255      0.011686
      6.67142      9.31568      2.85544         0.004657      0.012448     -0.019489
      6.65711      4.40508      9.23088         0.000285     -0.004652      0.000364
      8.14285      5.24496      4.86976        -0.001973      0.005566      0.001931
     10.86473      6.81369      9.25357         0.003001      0.000104     -0.001970
     14.99686      7.68362      4.79411        -0.004205      0.005867     -0.004458
     12.24299      6.05223      6.99963        -0.005865      0.001527     -0.000872
      6.72855      6.03109      6.99274        -0.000862      0.008662     -0.008286
      8.20780      6.89173      2.69128        -0.013579     -0.003349     -0.018200
      3.77766      2.69345      4.90572        -0.005240     -0.004029      0.001241
     10.86552      5.33036      4.88657        -0.003504     -0.002033     -0.002921
      6.80891      7.69639      4.91949        -0.003016     -0.003732      0.044922
      5.20720      0.16029      4.85410         0.004476      0.000607      0.005619
      7.96508      0.45571      4.72390        -0.002485      0.002645      0.002217
      9.47993      1.17947      6.89122         0.002620      0.003074     -0.010827
     12.19222      2.77766      4.87496         0.002980     -0.004364      0.014116
     13.78001      8.57392      1.07376        -0.002936     -0.017773     -0.009415
      5.17612      8.26819      1.02395         0.019341      0.011413     -0.003479
      4.07688      6.12594      0.96722         0.014460      0.004399      0.015951
      8.23477      2.19285      2.91186         0.004204     -0.000846      0.000563
      9.46232      9.17873      2.88867        -0.005105      0.005890     -0.011440
     13.23829      3.61532      0.98546         0.008071     -0.007591      0.007665
     10.87798      2.06279      2.87872        -0.005945     -0.002708     -0.000565
     13.60649      5.17210      4.92826         0.002008     -0.001563      0.002065
      9.49296      6.02050      7.10674         0.001919     -0.001777     -0.005562
      3.91652      1.06390      1.10530         0.010101      0.001348      0.039088
      9.69052      5.79723      1.02825        -0.016236     -0.005060      0.005267
      5.55996      3.72993      1.09992        -0.010088     -0.040199     -0.006209
     12.22782      8.97667      2.86865        -0.012790      0.000009      0.007049
     12.22062      7.58099      4.89646        -0.007854      0.000399      0.002244
      9.50033      4.35926      2.89266        -0.004149      0.001290     -0.010118
      8.10545      8.42161      7.03495        -0.005435      0.003521     -0.002922
      8.20297      8.78072      0.90411         0.011418      0.012925      0.003568
     10.87946      6.90186      2.86164        -0.025048     -0.001344     -0.004221
      2.55562      0.21789      4.96708        -0.002623      0.015301      0.009986
      8.12929      3.65853      0.88294        -0.005448      0.011459     -0.001353
      5.33633      2.04607      3.00455         0.014249     -0.008292     -0.007697
      5.35867      6.70303      3.02467         0.012871      0.009024     -0.005703
     10.81995      8.33843      7.01168        -0.000926      0.001516      0.000720
      9.50522      1.22179      0.88788         0.006573      0.003382     -0.004476
     10.84088      8.41789      0.89812        -0.016419      0.012249     -0.001034
      5.29878      5.08233      4.87221         0.007783      0.002814     -0.000884
     15.21969      9.46320      2.91158         0.012837      0.003416      0.010196
      9.54798      2.83243      4.93973         0.001534      0.002519     -0.001656
      6.74099      2.86414      4.91726         0.013326      0.001363      0.008999
     12.12718      4.37157      2.88927         0.007387     -0.006626     -0.003994
      2.50652      1.86558      2.87455        -0.004359      0.012368     -0.009657
     12.02738      5.81407      0.92547        -0.019088     -0.001747      0.007437
      6.52756      5.95530      1.01982        -0.004681     -0.038180     -0.000522
      6.84854      4.37406      2.90086        -0.017305     -0.014401      0.002918
     10.85337      3.69325      7.03853         0.004944      0.007576     -0.007946
     10.75754      3.55271      0.95995        -0.003711      0.001849     -0.000386
     10.94499      0.41654      4.90182         0.013477      0.001687      0.001743
      9.50574      7.61774      4.99769        -0.005101      0.002459      0.000120
 -----------------------------------------------------------------------------------
    total drift:                               -0.016469      0.025968      0.019137


--------------------------------------------------------------------------------------------------------



  FREE ENERGIE OF THE ION-ELECTRON SYSTEM (eV)
  ---------------------------------------------------
  free  energy   TOTEN  =      -503.97883479 eV

  energy  without entropy=     -503.98375422  energy(sigma->0) =     -503.98047460
 
 d Force = 0.9889738E-03[ 0.531E-03, 0.145E-02]  d Energy = 0.9762530E-03 0.127E-04
 d Force =-0.1266448E+02[-0.127E+02,-0.127E+02]  d Ewald  =-0.1266447E+02-0.880E-05


--------------------------------------------------------------------------------------------------------


    POTLOK:  cpu time    0.4912: real time    0.4924


--------------------------------------------------------------------------------------------------------


 Conjugate gradient step on ions:
 trial-energy change:   -0.000976  1 .order   -0.000989   -0.001447   -0.000531
  (g-gl).g = 0.158E-02      g.g   = 0.160E-02  gl.gl    = 0.253E-02
 g(Force)  = 0.160E-02   g(Stress)= 0.000E+00 ortho     = 0.147E-04
 gamma     =   0.62591
 trial     =   0.90201
 opt step  =   1.42431  (harmonic =   1.42431) maximal distance =0.00270800
 next E    =  -503.979001   (d E  =  -0.00114)


--------------------------------------------------------------------------------------------------------


  
 reached required accuracy - stopping structural energy minimisation
     LOOP+:  cpu time  716.1386: real time  717.8849
    4ORBIT:  cpu time    0.0000: real time    0.0000

 total amount of memory used by VASP MPI-rank0   281788. kBytes
=======================================================================

   base      :      30000. kBytes
   nonlr-proj:      35977. kBytes
   fftplans  :      20287. kBytes
   grid      :      59495. kBytes
   one-center:        622. kBytes
   wavefun   :     135407. kBytes
 
  
  
 General timing and accounting informations for this job:
 ========================================================
  
                  Total CPU time used (sec):     7641.806
                            User time (sec):     7634.579
                          System time (sec):        7.228
                         Elapsed time (sec):     7662.198
  
                   Maximum memory used (kb):      826644.
                   Average memory used (kb):           0.
  
                          Minor page faults:      2162047
                          Major page faults:            0
                 Voluntary context switches:         5366
