 vasp.5.4.4.18Apr17-6-g9f103f2a35 (build Oct 25 2019 11:13:22) complex          
  
 executed on             LinuxIFC date 2022.02.13  02:24:35
 running on   48 total cores
 distrk:  each k-point on   48 cores,    1 groups
 distr:  one band on NCORES_PER_BAND=   1 cores,   48 groups


--------------------------------------------------------------------------------------------------------


 INCAR:
 POTCAR:    PAW_PBE Pt 04Feb2005                  
 POTCAR:    PAW_PBE Co 02Aug2007                  
 POTCAR:    PAW_PBE Ni 02Aug2007                  
 POTCAR:    PAW_PBE H 15Jun2001                   

 ----------------------------------------------------------------------------- 
|                                                                             |
|           W    W    AA    RRRRR   N    N  II  N    N   GGGG   !!!           |
|           W    W   A  A   R    R  NN   N  II  NN   N  G    G  !!!           |
|           W    W  A    A  R    R  N N  N  II  N N  N  G       !!!           |
|           W WW W  AAAAAA  RRRRR   N  N N  II  N  N N  G  GGG   !            |
|           WW  WW  A    A  R   R   N   NN  II  N   NN  G    G                |
|           W    W  A    A  R    R  N    N  II  N    N   GGGG   !!!           |
|                                                                             |
|      For optimal performance we recommend to set                            |
|        NCORE= 4 - approx SQRT( number of cores)                             |
|      NCORE specifies how many cores store one orbital (NPAR=cpu/NCORE).     |
|      This setting can  greatly improve the performance of VASP for DFT.     |
|      The default,   NCORE=1            might be grossly inefficient         |
|      on modern multi-core architectures or massively parallel machines.     |
|      Do your own testing !!!!                                               |
|      Unfortunately you need to use the default for GW and RPA calculations. |
|      (for HF NCORE is supported but not extensively tested yet)             |
|                                                                             |
 ----------------------------------------------------------------------------- 

 POTCAR:    PAW_PBE Pt 04Feb2005                  
   VRHFIN =Pt: s1d9                                                             
   LEXCH  = PE                                                                  
   EATOM  =   729.1176 eV,   53.5886 Ry                                         
                                                                                
   TITEL  = PAW_PBE Pt 04Feb2005                                                
   LULTRA =        F    use ultrasoft PP ?                                      
   IUNSCR =        1    unscreen: 0-lin 1-nonlin 2-no                           
   RPACOR =    2.330    partial core radius                                     
   POMASS =  195.080; ZVAL   =   10.000    mass and valenz                      
   RCORE  =    2.600    outmost cutoff radius                                   
   RWIGS  =    2.750; RWIGS  =    1.455    wigner-seitz radius (au A)           
   ENMAX  =  230.283; ENMIN  =  172.712 eV                                      
   ICORE  =        3    local potential                                         
   LCOR   =        T    correct aug charges                                     
   LPAW   =        T    paw PP                                                  
   EAUG   =  358.966                                                            
   DEXC   =    0.000                                                            
   RMAX   =    2.658    core radius for proj-oper                               
   RAUG   =    1.300    factor for augmentation sphere                          
   RDEP   =    2.761    radius for radial grids                                 
   RDEPT  =    2.203    core radius for aug-charge                              
                                                                                
   Atomic configuration                                                         
   16 entries                                                                   
     n  l   j            E        occ.                                          
     1  0  0.50    -78401.1885   2.0000                                         
     2  0  0.50    -13770.7750   2.0000                                         
     2  1  1.50    -11931.0468   6.0000                                         
     3  0  0.50     -3234.7234   2.0000                                         
     3  1  1.50     -2699.2216   6.0000                                         
     3  2  2.50     -2119.5714  10.0000                                         
     4  0  0.50      -695.1528   2.0000                                         
     4  1  1.50      -519.6034   6.0000                                         
     4  2  2.50      -306.6786  10.0000                                         
     4  3  3.50       -70.1041  14.0000                                         
     5  0  0.50      -101.7747   2.0000                                         
     5  1  1.50       -55.9873   6.0000                                         
     5  2  2.50        -6.1423   9.0000                                         
     6  0  0.50        -5.6573   1.0000                                         
     6  1  1.50        -6.8029   0.0000                                         
     5  3  2.50        -1.3606   0.0000                                         
   Description                                                                  
     l       E           TYP  RCUT    TYP  RCUT                                 
     2     -6.1423404     23  2.500                                             
     2     -7.5029230     23  2.500                                             
     0     -5.6573207     23  2.500                                             
     0      0.7416693     23  2.500                                             
     1     -2.7211652     23  2.600                                             
     1     20.4087390     23  2.600                                             
     3     -1.3605826     23  2.500                                             
  local pseudopotential read in
  partial core-charges read in
  partial kinetic energy density read in
  atomic valenz-charges read in
  non local Contribution for L=           2  read in
    real space projection operators read in
  non local Contribution for L=           2  read in
    real space projection operators read in
  non local Contribution for L=           0  read in
    real space projection operators read in
  non local Contribution for L=           0  read in
    real space projection operators read in
  non local Contribution for L=           1  read in
    real space projection operators read in
  non local Contribution for L=           1  read in
    real space projection operators read in
    PAW grid and wavefunctions read in
 
   number of l-projection  operators is LMAX  =           6
   number of lm-projection operators is LMMAX =          18
 
 POTCAR:    PAW_PBE Co 02Aug2007                  
   VRHFIN =Co: d8 s1                                                            
   LEXCH  = PE                                                                  
   EATOM  =   813.3670 eV,   59.7808 Ry                                         
                                                                                
   TITEL  = PAW_PBE Co 02Aug2007                                                
   LULTRA =        F    use ultrasoft PP ?                                      
   IUNSCR =        1    unscreen: 0-lin 1-nonlin 2-no                           
   RPACOR =    2.000    partial core radius                                     
   POMASS =   58.933; ZVAL   =    9.000    mass and valenz                      
   RCORE  =    2.300    outmost cutoff radius                                   
   RWIGS  =    2.460; RWIGS  =    1.302    wigner-seitz radius (au A)           
   ENMAX  =  267.968; ENMIN  =  200.976 eV                                      
   RCLOC  =    1.203    cutoff for local pot                                    
   LCOR   =        T    correct aug charges                                     
   LPAW   =        T    paw PP                                                  
   EAUG   =  477.818                                                            
   DEXC   =    0.000                                                            
   RMAX   =    2.360    core radius for proj-oper                               
   RAUG   =    1.300    factor for augmentation sphere                          
   RDEP   =    2.393    radius for radial grids                                 
   RDEPT  =    1.864    core radius for aug-charge                              
                                                                                
   Atomic configuration                                                         
    9 entries                                                                   
     n  l   j            E        occ.                                          
     1  0  0.50     -7587.6674   2.0000                                         
     2  0  0.50      -893.6084   2.0000                                         
     2  1  1.50      -764.5805   6.0000                                         
     3  0  0.50       -97.5973   2.0000                                         
     3  1  1.50       -60.9648   6.0000                                         
     3  2  2.50        -4.2382   8.0000                                         
     4  0  0.50        -4.3746   1.0000                                         
     4  1  1.50        -4.0817   0.0000                                         
     4  3  2.50        -1.3606   0.0000                                         
   Description                                                                  
     l       E           TYP  RCUT    TYP  RCUT                                 
     2     -4.2382362     23  2.300                                             
     2     -5.5988188     23  2.300                                             
     0     -4.3745797     23  2.300                                             
     0      5.7660125     23  2.300                                             
     1     -2.7211652     23  2.300                                             
     1     16.9860234     23  2.300                                             
  local pseudopotential read in
  partial core-charges read in
  partial kinetic energy density read in
  atomic valenz-charges read in
  non local Contribution for L=           2  read in
    real space projection operators read in
  non local Contribution for L=           2  read in
    real space projection operators read in
  non local Contribution for L=           0  read in
    real space projection operators read in
  non local Contribution for L=           0  read in
    real space projection operators read in
  non local Contribution for L=           1  read in
    real space projection operators read in
  non local Contribution for L=           1  read in
    real space projection operators read in
    PAW grid and wavefunctions read in
 
   number of l-projection  operators is LMAX  =           6
   number of lm-projection operators is LMMAX =          18
 
 POTCAR:    PAW_PBE Ni 02Aug2007                  
   VRHFIN =Ni:                                                                  
   LEXCH  = PE                                                                  
   EATOM  =  1077.6739 eV,   79.2068 Ry                                         
                                                                                
   TITEL  = PAW_PBE Ni 02Aug2007                                                
   LULTRA =        F    use ultrasoft PP ?                                      
   IUNSCR =        1    unscreen: 0-lin 1-nonlin 2-no                           
   RPACOR =    2.000    partial core radius                                     
   POMASS =   58.690; ZVAL   =   10.000    mass and valenz                      
   RCORE  =    2.300    outmost cutoff radius                                   
   RWIGS  =    2.430; RWIGS  =    1.286    wigner-seitz radius (au A)           
   ENMAX  =  269.532; ENMIN  =  202.149 eV                                      
   RCLOC  =    1.201    cutoff for local pot                                    
   LCOR   =        T    correct aug charges                                     
   LPAW   =        T    paw PP                                                  
   EAUG   =  544.565                                                            
   DEXC   =    0.000                                                            
   RMAX   =    2.357    core radius for proj-oper                               
   RAUG   =    1.300    factor for augmentation sphere                          
   RDEP   =    2.390    radius for radial grids                                 
   RDEPT  =    1.838    core radius for aug-charge                              
                                                                                
   Atomic configuration                                                         
    9 entries                                                                   
     n  l   j            E        occ.                                          
     1  0  0.50     -8206.4253   2.0000                                         
     2  0  0.50      -976.1748   2.0000                                         
     2  1  1.50      -839.0571   6.0000                                         
     3  0  0.50      -105.9991   2.0000                                         
     3  1  1.50       -66.4603   6.0000                                         
     3  2  2.50        -4.6458   9.0000                                         
     4  0  0.50        -4.4926   1.0000                                         
     4  1  1.50        -4.0817   0.0000                                         
     4  3  2.50        -1.3606   0.0000                                         
   Description                                                                  
     l       E           TYP  RCUT    TYP  RCUT                                 
     2     -4.6457903     23  2.300                                             
     2     -6.0063729     23  2.300                                             
     0     -4.4925590     23  2.300                                             
     0      5.0102601     23  2.300                                             
     1     -2.7211652     23  2.300                                             
     1     16.5183231     23  2.300                                             
  local pseudopotential read in
  partial core-charges read in
  partial kinetic energy density read in
  atomic valenz-charges read in
  non local Contribution for L=           2  read in
    real space projection operators read in
  non local Contribution for L=           2  read in
    real space projection operators read in
  non local Contribution for L=           0  read in
    real space projection operators read in
  non local Contribution for L=           0  read in
    real space projection operators read in
  non local Contribution for L=           1  read in
    real space projection operators read in
  non local Contribution for L=           1  read in
    real space projection operators read in
    PAW grid and wavefunctions read in
 
   number of l-projection  operators is LMAX  =           6
   number of lm-projection operators is LMMAX =          18
 
 POTCAR:    PAW_PBE H 15Jun2001                   
   VRHFIN =H: ultrasoft test                                                    
   LEXCH  = PE                                                                  
   EATOM  =    12.4884 eV,    0.9179 Ry                                         
                                                                                
   TITEL  = PAW_PBE H 15Jun2001                                                 
   LULTRA =        F    use ultrasoft PP ?                                      
   IUNSCR =        0    unscreen: 0-lin 1-nonlin 2-no                           
   RPACOR =    0.000    partial core radius                                     
   POMASS =    1.000; ZVAL   =    1.000    mass and valenz                      
   RCORE  =    1.100    outmost cutoff radius                                   
   RWIGS  =    0.700; RWIGS  =    0.370    wigner-seitz radius (au A)           
   ENMAX  =  250.000; ENMIN  =  200.000 eV                                      
   RCLOC  =    0.701    cutoff for local pot                                    
   LCOR   =        T    correct aug charges                                     
   LPAW   =        T    paw PP                                                  
   EAUG   =  400.000                                                            
   RMAX   =    1.123    core radius for proj-oper                               
   RAUG   =    1.200    factor for augmentation sphere                          
   RDEP   =    1.112    radius for radial grids                                 
   RDEPT  =    0.926    core radius for aug-charge                              
                                                                                
   Atomic configuration                                                         
    2 entries                                                                   
     n  l   j            E        occ.                                          
     1  0  0.50        -6.4927   1.0000                                         
     2  1  0.50        -3.4015   0.0000                                         
   Description                                                                  
     l       E           TYP  RCUT    TYP  RCUT                                 
     0     -6.4927494     23  1.100                                             
     0      6.8029130     23  1.100                                             
     1     -4.0817478     23  1.100                                             
  local pseudopotential read in
  atomic valenz-charges read in
  non local Contribution for L=           0  read in
    real space projection operators read in
  non local Contribution for L=           0  read in
    real space projection operators read in
  non local Contribution for L=           1  read in
    real space projection operators read in
    PAW grid and wavefunctions read in
 
   number of l-projection  operators is LMAX  =           3
   number of lm-projection operators is LMMAX =           5
 
 Optimization of the real space projectors (new method)

 maximal supplied QI-value         = 14.36
 optimisation between [QCUT,QGAM] = [ 11.92, 23.98] = [ 39.79,161.09] Ry 
 Optimized for a Real-space Cutoff    1.49 Angstroem

   l    n(q)    QCUT    max X(q) W(low)/X(q) W(high)/X(q)  e(spline) 
   2     10    11.920    66.195    0.79E-04    0.18E-03    0.24E-06
   2     10    11.920    64.643    0.81E-04    0.19E-03    0.24E-06
   0     11    11.920    95.520    0.28E-04    0.54E-04    0.18E-06
   0     11    11.920    63.403    0.27E-04    0.52E-04    0.17E-06
   1     10    11.920    19.961    0.18E-04    0.11E-03    0.23E-06
   1     10    11.920    13.289    0.25E-04    0.87E-04    0.19E-06
 Optimization of the real space projectors (new method)

 maximal supplied QI-value         = 16.25
 optimisation between [QCUT,QGAM] = [ 11.86, 23.89] = [ 39.41,159.82] Ry 
 Optimized for a Real-space Cutoff    1.33 Angstroem

   l    n(q)    QCUT    max X(q) W(low)/X(q) W(high)/X(q)  e(spline) 
   2      9    11.864    65.824    0.22E-03    0.53E-03    0.26E-06
   2      9    11.864    61.429    0.22E-03    0.53E-03    0.26E-06
   0      9    11.864    56.174    0.21E-03    0.32E-04    0.15E-06
   0      9    11.864    31.263    0.19E-03    0.30E-04    0.14E-06
   1      9    11.864    19.828    0.63E-04    0.30E-03    0.16E-06
   1      9    11.864    15.139    0.49E-04    0.25E-03    0.13E-06
 Optimization of the real space projectors (new method)

 maximal supplied QI-value         = 16.25
 optimisation between [QCUT,QGAM] = [ 11.86, 23.89] = [ 39.41,159.82] Ry 
 Optimized for a Real-space Cutoff    1.33 Angstroem

   l    n(q)    QCUT    max X(q) W(low)/X(q) W(high)/X(q)  e(spline) 
   2      9    11.864    60.317    0.21E-03    0.51E-03    0.25E-06
   2      9    11.864    55.921    0.21E-03    0.51E-03    0.26E-06
   0      9    11.864    51.690    0.22E-03    0.30E-04    0.17E-06
   0      9    11.864    30.015    0.20E-03    0.28E-04    0.15E-06
   1      9    11.864    18.849    0.76E-04    0.33E-03    0.17E-06
   1      9    11.864    14.624    0.60E-04    0.28E-03    0.15E-06
 Optimization of the real space projectors (new method)

 maximal supplied QI-value         = 34.20
 optimisation between [QCUT,QGAM] = [ 11.97, 23.94] = [ 40.13,160.53] Ry 
 Optimized for a Real-space Cutoff    1.18 Angstroem

   l    n(q)    QCUT    max X(q) W(low)/X(q) W(high)/X(q)  e(spline) 
   0      8    11.971    19.460    0.15E-03    0.31E-03    0.25E-06
   0      8    11.971    12.209    0.13E-03    0.29E-03    0.25E-06
   1      8    11.971     4.655    0.22E-03    0.24E-03    0.21E-06
  PAW_PBE Pt 04Feb2005                  :
 energy of atom  1       EATOM= -729.1176
 kinetic energy error for atom=    0.0021 (will be added to EATOM!!)
  PAW_PBE Co 02Aug2007                  :
 energy of atom  2       EATOM= -813.3670
 kinetic energy error for atom=    0.0026 (will be added to EATOM!!)
  PAW_PBE Ni 02Aug2007                  :
 energy of atom  3       EATOM=-1077.6739
 kinetic energy error for atom=    0.0027 (will be added to EATOM!!)
  PAW_PBE H 15Jun2001                   :
 energy of atom  4       EATOM=  -12.4884
 kinetic energy error for atom=    0.0008 (will be added to EATOM!!)
 
 
 POSCAR: 11.26                                   
  positions in cartesian coordinates
  No initial velocities read in
 exchange correlation table for  LEXCH =        8
   RHO(1)=    0.500       N(1)  =     2000
   RHO(2)=  100.500       N(2)  =     4000
 


--------------------------------------------------------------------------------------------------------


 ion  position               nearest neighbor table
   1  0.790  0.878  0.302-  49 2.48  59 2.57  60 2.64  28 2.70   2 2.73  29 2.74   4 2.75  19 2.80
                            11 2.85  12 2.86  61 2.89  33 2.93
   2  0.032  0.880  0.293-  79 2.50  77 2.57  60 2.71   1 2.73  28 2.78   4 2.85   6 2.89  30 2.90
                            16 2.96  33 3.00  22 3.15  52 3.24
   3  0.276  0.362  0.311-  64 2.54  68 2.62  31 2.63  39 2.67   5 2.71  33 2.71  30 2.75  13 2.76
                            25 2.78  19 2.81  43 2.82  18 2.87
   4  0.872  0.966  0.402-  81 1.81  17 2.71  60 2.73   9 2.74   1 2.75  11 2.82  12 2.83   2 2.85
                             6 2.85  16 2.87
   5  0.114  0.466  0.410-  39 2.60  33 2.71   3 2.71  12 2.72  16 2.73  10 2.76   7 2.77  25 2.85
                            13 2.97
   6  0.131  0.956  0.400-  81 1.89  52 2.61  22 2.71   8 2.76  14 2.81   4 2.85  16 2.86   2 2.89
                            10 2.89   9 2.96
   7  0.873  0.455  0.412-  75 2.55  39 2.57   5 2.77   9 2.79  10 2.80  27 2.81  29 2.82  15 2.86
                            12 2.90
   8  0.376  0.954  0.415-  43 2.54  52 2.55  61 2.68   6 2.76  13 2.78  27 2.78  11 2.83  10 2.84
                            14 2.87
   9  0.862  0.214  0.396-  75 2.59  22 2.67  17 2.73  15 2.74   4 2.74  60 2.78   7 2.79   6 2.96
                            10 3.01
  10  0.129  0.213  0.413-  22 2.64  43 2.69  13 2.72   5 2.76  39 2.78   7 2.80   8 2.84   6 2.89
                             9 3.01
  11  0.628  0.952  0.410-  61 2.64  12 2.73  19 2.73  27 2.75  17 2.80  13 2.80   4 2.82   8 2.83
                             1 2.85
  12  0.875  0.712  0.409-  29 2.65   5 2.72  11 2.73  16 2.73  33 2.81  27 2.82   4 2.83   1 2.86
                             7 2.90
  13  0.378  0.200  0.413-  43 2.69  10 2.72  19 2.73   3 2.76   8 2.78  17 2.80  11 2.80  25 2.81
                             5 2.97
  14  0.376  0.700  0.401-  52 2.52  44 2.55  15 2.72  25 2.80   6 2.81  16 2.82  27 2.86  30 2.87
                             8 2.87
  15  0.619  0.458  0.399-  75 2.53  44 2.60  14 2.72   9 2.74  25 2.78  17 2.84  18 2.86   7 2.86
                            27 2.86
  16  0.122  0.705  0.404-  81 1.85  30 2.68   5 2.73  12 2.73  33 2.77  14 2.82  25 2.85   6 2.86
                             4 2.87   2 2.96
  17  0.626  0.202  0.404-  18 2.68   4 2.71   9 2.73  19 2.79  11 2.80  13 2.80  25 2.81  60 2.83
                            15 2.84
  18  0.538  0.347  0.301-  67 2.46  26 2.60  68 2.66  17 2.68  60 2.69  19 2.70  25 2.82  15 2.86
                             3 2.87  30 2.95  75 3.19
  19  0.528  0.113  0.308-  59 2.47  80 2.51  68 2.57  43 2.61  61 2.64  18 2.70  11 2.73  13 2.73
                            17 2.79   1 2.80   3 2.81  60 2.92
  20  0.546  0.126  0.067-  48 2.50  57 2.52  47 2.52  62 2.53  37 2.60  56 2.66  34 2.70  63 2.89

  21  0.118  0.408  0.119-  47 2.44  40 2.48  36 2.49  69 2.60  57 2.64  42 2.67  64 2.70  70 2.72
                            31 2.74  50 3.30
  22  0.054  0.148  0.311-  77 2.42  65 2.51  55 2.52  43 2.57  39 2.64  10 2.64   9 2.67   6 2.71
                            75 2.90  52 3.05  31 3.05   2 3.15  60 3.22
  23  0.009  0.102  0.049-  40 2.49  62 2.55  70 2.57  41 2.59  45 2.66  76 2.69  24 2.70  35 2.74
                            53 3.07
  24  0.138  0.927  0.142-  79 2.46  35 2.50  77 2.54  58 2.54  53 2.56  55 2.59  38 2.59  73 2.64
                            70 2.65  23 2.70  66 2.83
  25  0.375  0.451  0.406-  30 2.75  15 2.78   3 2.78  14 2.80  17 2.81  13 2.81  18 2.82   5 2.85
                            16 2.85
  26  0.480  0.554  0.230-  74 2.50  44 2.51  73 2.52  51 2.59  18 2.60  79 2.60  78 2.62  30 2.63
                            32 2.66  67 2.70
  27  0.626  0.708  0.414-  44 2.49  61 2.69  11 2.75   8 2.78   7 2.81  29 2.81  12 2.82  15 2.86
                            14 2.86
  28  0.953  0.759  0.204-  58 2.53  50 2.61  66 2.61  42 2.62  36 2.63  33 2.65   1 2.70   2 2.78
                            64 2.80  49 2.88  34 3.22  59 3.23  35 3.30
  29  0.797  0.631  0.311-  39 2.60  49 2.61  32 2.61  75 2.61  42 2.63  33 2.64  12 2.65  44 2.66
                             1 2.74  27 2.81   7 2.82  61 2.83
  30  0.273  0.608  0.303-  79 2.43  33 2.59  64 2.62  26 2.63  16 2.68  25 2.75   3 2.75  14 2.87
                             2 2.90  18 2.95  52 3.28
  31  0.187  0.262  0.225-  70 2.52  57 2.57  65 2.58  55 2.59  39 2.62   3 2.63  43 2.63  42 2.72
                            80 2.73  21 2.74  68 2.76  64 2.79  22 3.05
  32  0.711  0.561  0.214-  69 2.53  51 2.56  54 2.61  29 2.61  49 2.62  26 2.66  65 2.66  50 2.66
                            42 2.68  75 2.68  78 2.71  67 2.73  44 2.74
  33  0.042  0.609  0.305-  42 2.47  64 2.51  39 2.52  30 2.59  29 2.64  28 2.65   5 2.71   3 2.71
                            16 2.77  12 2.81   1 2.93   2 3.00
  34  0.782  0.884  0.080-  48 2.38  35 2.38  50 2.53  66 2.54  36 2.55  62 2.67  20 2.70  28 3.22

  35  0.002  0.866  0.072-  36 2.37  34 2.38  66 2.43  24 2.50  58 2.60  23 2.74  62 2.75  28 3.30

  36  0.006  0.657  0.094-  50 2.33  35 2.37  58 2.38  21 2.49  34 2.55  28 2.63
  37  0.628  0.234  0.150-  41 2.41  56 2.42  59 2.43  67 2.44  62 2.45  68 2.50  51 2.50  74 2.51
                            20 2.60  66 2.60
  38  0.361  0.942  0.135-  53 2.40  45 2.41  63 2.42  57 2.43  48 2.45  55 2.45  54 2.46  78 2.48
                            80 2.54  73 2.59  24 2.59  70 2.83
  39  0.024  0.396  0.316-  42 2.46  33 2.52   7 2.57  65 2.58  75 2.58   5 2.60  29 2.60  31 2.62
                            22 2.64   3 2.67  10 2.78
  40  0.013  0.321  0.044-  69 2.32  76 2.45  21 2.48  23 2.49  70 2.51  45 2.63  71 2.93
  41  0.844  0.228  0.139-  67 2.35  76 2.37  77 2.38  37 2.41  62 2.44  51 2.48  69 2.48  66 2.49
                            65 2.58  23 2.59  70 2.61
  42  0.967  0.520  0.219-  39 2.46  33 2.47  50 2.48  64 2.48  65 2.50  28 2.62  29 2.63  69 2.65
                            21 2.67  32 2.68  31 2.72
  43  0.303  0.099  0.319-  52 2.45  80 2.47  55 2.51   8 2.54  22 2.57  61 2.57  19 2.61  31 2.63
                            10 2.69  13 2.69   3 2.82
  44  0.552  0.648  0.317-  61 2.46  78 2.48  27 2.49  26 2.51  14 2.55  52 2.55  15 2.60  29 2.66
                            75 2.72  32 2.74
  45  0.251  0.091  0.049-  38 2.41  57 2.45  53 2.48  70 2.50  63 2.54  40 2.63  23 2.66
  46  0.529  0.612  0.047-  54 2.37  73 2.44  51 2.45  71 2.47  72 2.53  53 2.63  56 2.72  76 2.87
                            63 3.07
  47  0.334  0.361  0.072-  74 2.29  56 2.44  21 2.44  57 2.50  72 2.50  20 2.52
  48  0.581  0.937  0.137-  49 2.29  63 2.35  34 2.38  54 2.38  80 2.38  38 2.45  59 2.46  20 2.50
                            57 2.63  50 2.74
  49  0.677  0.809  0.223-  48 2.29  50 2.34  61 2.46  78 2.47   1 2.48  59 2.54  80 2.57  29 2.61
                            32 2.62  54 2.79  28 2.88
  50  0.810  0.679  0.140-  36 2.33  49 2.34  54 2.38  71 2.39  42 2.48  69 2.52  34 2.53  28 2.61
                            32 2.66  48 2.74  21 3.30
  51  0.629  0.454  0.133-  56 2.40  76 2.44  46 2.45  41 2.48  37 2.50  67 2.53  32 2.56  26 2.59
                            74 2.59  69 2.66  73 2.78  54 2.83
  52  0.322  0.872  0.316-  55 2.36  79 2.41  61 2.42  78 2.44  43 2.45  14 2.52   8 2.55  44 2.55
                             6 2.61  22 3.05   2 3.24  30 3.28
  53  0.299  0.850  0.050-  73 2.39  38 2.40  45 2.48  24 2.56  63 2.58  46 2.63  72 2.82  23 3.07

  54  0.581  0.726  0.124-  46 2.37  50 2.38  48 2.38  73 2.40  71 2.42  63 2.42  38 2.46  78 2.50
                            32 2.61  49 2.79  51 2.83
  55  0.229  0.013  0.230-  52 2.36  80 2.44  79 2.44  38 2.45  43 2.51  22 2.52  78 2.56  24 2.59
                            31 2.59  77 2.61  70 2.62
  56  0.549  0.361  0.055-  51 2.40  37 2.42  47 2.44  74 2.52  76 2.56  62 2.60  72 2.61  20 2.66
                            46 2.72
  57  0.344  0.167  0.132-  38 2.43  45 2.45  80 2.47  47 2.50  20 2.52  68 2.55  31 2.57  48 2.63
                            21 2.64  70 2.71
  58  0.176  0.684  0.148-  36 2.38  72 2.39  64 2.41  73 2.43  28 2.53  79 2.53  24 2.54  74 2.56
                            35 2.60
  59  0.661  0.042  0.213-  66 2.38  37 2.43  48 2.46  19 2.47  49 2.54  68 2.55   1 2.57  80 2.59
                            60 2.68  28 3.23
  60  0.785  0.116  0.297-  67 2.47  77 2.53   1 2.64  59 2.68  18 2.69   2 2.71   4 2.73   9 2.78
                            17 2.83  19 2.92  22 3.22
  61  0.536  0.874  0.316-  52 2.42  44 2.46  49 2.46  78 2.48  80 2.52  43 2.57  19 2.64  11 2.64
                             8 2.68  27 2.69  29 2.83   1 2.89
  62  0.773  0.123  0.060-  66 2.43  41 2.44  37 2.45  20 2.53  23 2.55  56 2.60  76 2.63  34 2.67
                            35 2.75
  63  0.500  0.898  0.045-  48 2.35  54 2.42  38 2.42  45 2.54  53 2.58  20 2.89  46 3.07
  64  0.196  0.505  0.214-  58 2.41  42 2.48  33 2.51  74 2.52   3 2.54  30 2.62  68 2.66  21 2.70
                            31 2.79  28 2.80
  65  0.935  0.315  0.226-  69 2.40  75 2.40  67 2.41  77 2.43  42 2.50  22 2.51  70 2.53  41 2.58
                            31 2.58  39 2.58  32 2.66
  66  0.858  0.002  0.156-  77 2.38  59 2.38  62 2.43  35 2.43  41 2.49  34 2.54  37 2.60  28 2.61
                            24 2.83
  67  0.721  0.315  0.230-  41 2.35  75 2.39  65 2.41  37 2.44  18 2.46  60 2.47  51 2.53  26 2.70
                            77 2.70  32 2.73
  68  0.430  0.266  0.214-  74 2.43  37 2.50  57 2.55  59 2.55  19 2.57   3 2.62  80 2.64  64 2.66
                            18 2.66  31 2.76
  69  0.877  0.430  0.129-  40 2.32  71 2.34  65 2.40  41 2.48  76 2.49  50 2.52  32 2.53  21 2.60
                            42 2.65  70 2.65  51 2.66
  70  0.096  0.181  0.140-  45 2.50  40 2.51  31 2.52  65 2.53  23 2.57  41 2.61  55 2.62  24 2.65
                            69 2.65  57 2.71  21 2.72  77 2.83  38 2.83
  71  0.760  0.589  0.052-  69 2.34  50 2.39  54 2.42  46 2.47  76 2.56  40 2.93
  72  0.315  0.592  0.059-  58 2.39  74 2.39  73 2.42  47 2.50  46 2.53  56 2.61  53 2.82
  73  0.382  0.701  0.136-  53 2.39  54 2.40  72 2.42  58 2.43  46 2.44  79 2.49  26 2.52  38 2.59
                            78 2.60  24 2.64  74 2.69  51 2.78
  74  0.400  0.454  0.149-  47 2.29  72 2.39  68 2.43  26 2.50  37 2.51  56 2.52  64 2.52  58 2.56
                            51 2.59  73 2.69
  75  0.791  0.402  0.314-  67 2.39  65 2.40  15 2.53   7 2.55  39 2.58   9 2.59  29 2.61  32 2.68
                            44 2.72  22 2.90  18 3.19
  76  0.781  0.351  0.046-  41 2.37  51 2.44  40 2.45  69 2.49  71 2.56  56 2.56  62 2.63  23 2.69
                            46 2.87
  77  0.970  0.084  0.222-  41 2.38  66 2.38  22 2.42  65 2.43  60 2.53  24 2.54   2 2.57  55 2.61
                            67 2.70  70 2.83
  78  0.465  0.795  0.225-  52 2.44  49 2.47  44 2.48  61 2.48  79 2.48  38 2.48  80 2.48  54 2.50
                            55 2.56  73 2.60  26 2.62  32 2.71
  79  0.249  0.786  0.233-  52 2.41  30 2.43  55 2.44  24 2.46  78 2.48  73 2.49   2 2.50  58 2.53
                            26 2.60
  80  0.439  0.028  0.225-  48 2.38  55 2.44  43 2.47  57 2.47  78 2.48  19 2.51  61 2.52  38 2.54
                            49 2.57  59 2.59  68 2.64  31 2.73
  81  0.037  0.878  0.440-   4 1.81  16 1.85   6 1.89
 
  LATTYP: Found a hexagonal cell.
 ALAT       =    11.2227001190
 C/A-ratio  =     1.9603125600
  
  Lattice vectors:
  
 A1 = (   5.6113500595,  -9.7191434021,   0.0000000000)
 A2 = ( -11.2227001190,   0.0000000000,   0.0000000000)
 A3 = (   0.0000000000,   0.0000000000, -22.0000000000)


Analysis of symmetry for initial positions (statically):
=====================================================================
 Subroutine PRICEL returns:
 Original cell was already a primitive cell.
 

 Routine SETGRP: Setting up the symmetry group for a 
 hexagonal supercell.


 Subroutine GETGRP returns: Found  1 space group operations
 (whereof  1 operations were pure point group operations)
 out of a pool of 24 trial point group operations.


The static configuration has the point symmetry C_1 .


Analysis of symmetry for dynamics (positions and initial velocities):
=====================================================================
 Subroutine PRICEL returns:
 Original cell was already a primitive cell.
 

 Routine SETGRP: Setting up the symmetry group for a 
 hexagonal supercell.


 Subroutine GETGRP returns: Found  1 space group operations
 (whereof  1 operations were pure point group operations)
 out of a pool of 24 trial point group operations.


The dynamic configuration has the point symmetry C_1 .


Analysis of constrained symmetry for selective dynamics:
=====================================================================
 Subroutine PRICEL returns:
 Original cell was already a primitive cell.
 

 Routine SETGRP: Setting up the symmetry group for a 
 hexagonal supercell.


 Subroutine GETGRP returns: Found  1 space group operations
 (whereof  1 operations were pure point group operations)
 out of a pool of 24 trial point group operations.


The constrained configuration has the point symmetry C_1 .


Analysis of structural, dynamic, and magnetic symmetry:
=====================================================================
 Subroutine PRICEL returns:
 Original cell was already a primitive cell.
 

 Routine SETGRP: Setting up the symmetry group for a 
 hexagonal supercell.


 Subroutine GETGRP returns: Found  1 space group operations
 (whereof  1 operations were pure point group operations)
 out of a pool of 24 trial point group operations.


The magnetic configuration has the point symmetry C_1 .


 Subroutine INISYM returns: Found  1 space group operations
 (whereof  1 operations are pure point group operations),
 and found     1 'primitive' translations

 
 
 KPOINTS: mesh auto                               

Automatic generation of k-mesh.
Space group operators:
 irot       det(A)        alpha          n_x          n_y          n_z        tau_x        tau_y        tau_z
    1     1.000000     0.000000     1.000000     0.000000     0.000000     0.000000     0.000000     0.000000
 
 Subroutine IBZKPT returns following result:
 ===========================================
 
 Found      4 irreducible k-points:
 
 Following reciprocal coordinates:
            Coordinates               Weight
  0.000000  0.000000  0.000000      1.000000
  0.500000  0.000000  0.000000      1.000000
  0.000000  0.500000  0.000000      1.000000
  0.500000  0.500000  0.000000      1.000000
 
 Following cartesian coordinates:
            Coordinates               Weight
  0.000000  0.000000  0.000000      1.000000
  0.044553 -0.025722  0.000000      1.000000
  0.000000  0.051445  0.000000      1.000000
  0.044553  0.025722  0.000000      1.000000
 
 TETIRR: Found     12 inequivalent tetrahedra from       24
 
 Subroutine IBZKPT_HF returns following result:
 ==============================================
 
 Found      4 k-points in 1st BZ
 the following      4 k-points will be used (e.g. in the exchange kernel)
 Following reciprocal coordinates:   # in IRBZ
  0.000000  0.000000  0.000000    0.25000000   1 t-inv F
  0.500000  0.000000  0.000000    0.25000000   2 t-inv F
  0.000000  0.500000  0.000000    0.25000000   3 t-inv F
  0.500000  0.500000  0.000000    0.25000000   4 t-inv F


--------------------------------------------------------------------------------------------------------




 Dimension of arrays:
   k-points           NKPTS =      4   k-points in BZ     NKDIM =      4   number of bands    NBANDS=    576
   number of dos      NEDOS =    301   number of ions     NIONS =     81
   non local maximal  LDIM  =      6   non local SUM 2l+1 LMDIM =     18
   total plane-waves  NPLWV = ******
   max r-space proj   IRMAX =   7929   max aug-charges    IRDMAX=  34542
   dimension x,y,z NGX =    90 NGY =   90 NGZ =  168
   dimension x,y,z NGXF=   180 NGYF=  180 NGZF=  336
   support grid    NGXF=   180 NGYF=  180 NGZF=  336
   ions per type =              32  23  25   1
   NGX,Y,Z   is equivalent  to a cutoff of  13.33, 13.33, 12.70 a.u.
   NGXF,Y,Z  is equivalent  to a cutoff of  26.66, 26.66, 25.39 a.u.

 SYSTEM =  Pt111                                   
 POSCAR =  11.26                                   

 Startparameter for this run:
   NWRITE =      2    write-flag & timer
   PREC   = accura    normal or accurate (medium, high low for compatibility)
   ISTART =      0    job   : 0-new  1-cont  2-samecut
   ICHARG =      2    charge: 1-file 2-atom 10-const
   ISPIN  =      2    spin polarized calculation?
   LNONCOLLINEAR =      F non collinear calculations
   LSORBIT =      F    spin-orbit coupling
   INIWAV =      1    electr: 0-lowe 1-rand  2-diag
   LASPH  =      F    aspherical Exc in radial PAW
   METAGGA=      F    non-selfconsistent MetaGGA calc.

 Electronic Relaxation 1
   ENCUT  =  550.0 eV  40.42 Ry    6.36 a.u.  21.46 21.46 42.07*2*pi/ulx,y,z
   ENINI  =  550.0     initial cutoff
   ENAUG  =  544.6 eV  augmentation charge cutoff
   NELM   =    200;   NELMIN=  2; NELMDL= -5     # of ELM steps 
   EDIFF  = 0.1E-04   stopping-criterion for ELM
   LREAL  =      T    real-space projection
   NLSPLINE    = F    spline interpolate recip. space projectors
   LCOMPAT=      F    compatible to vasp.4.4
   GGA_COMPAT  = T    GGA compatible to vasp.4.4-vasp.4.6
   LMAXPAW     = -100 max onsite density
   LMAXMIX     =    2 max onsite mixed and CHGCAR
   VOSKOWN=      0    Vosko Wilk Nusair interpolation
   ROPT   =   -0.00025  -0.00025  -0.00025  -0.00025
 Ionic relaxation
   EDIFFG = -.5E-01   stopping-criterion for IOM
   NSW    =   1009    number of steps for IOM
   NBLOCK =      1;   KBLOCK =   1009    inner block; outer block 
   IBRION =      5    ionic relax: 0-MD 1-quasi-New 2-CG
   NFREE  =      2    steps in history (QN), initial steepest desc. (CG)
   ISIF   =      2    stress and relaxation
   IWAVPR =     11    prediction:  0-non 1-charg 2-wave 3-comb
   ISYM   =      2    0-nonsym 1-usesym 2-fastsym
   LCORR  =      T    Harris-Foulkes like correction to forces

   POTIM  = 0.5000    time-step for ionic-motion
   TEIN   =    0.0    initial temperature
   TEBEG  =    0.0;   TEEND  =   0.0 temperature during run
   SMASS  =  -3.00    Nose mass-parameter (am)
   estimated Nose-frequenzy (Omega)   =  0.10E-29 period in steps =****** mass=  -0.288E-26a.u.
   SCALEE = 1.0000    scale energy and forces
   NPACO  =    256;   APACO  = 16.0  distance and # of slots for P.C.
   PSTRESS=    0.0 pullay stress

  Mass of Ions in am
   POMASS = 195.08 58.93 58.69  1.00
  Ionic Valenz
   ZVAL   =  10.00  9.00 10.00  1.00
  Atomic Wigner-Seitz radii
   RWIGS  =  -1.00 -1.00 -1.00 -1.00
  virtual crystal weights 
   VCA    =   1.00  1.00  1.00  1.00
   NELECT =     778.0000    total number of electrons
   NUPDOWN=      -1.0000    fix difference up-down

 DOS related values:
   EMIN   =  10.00;   EMAX   =-10.00  energy-range for DOS
   EFERMI =   0.00
   ISMEAR =    -5;   SIGMA  =   0.10  broadening in eV -4-tet -1-fermi 0-gaus

 Electronic relaxation 2 (details)
   IALGO  =     68    algorithm
   LDIAG  =      T    sub-space diagonalisation (order eigenvalues)
   LSUBROT=      F    optimize rotation matrix (better conditioning)
   TURBO    =      0    0=normal 1=particle mesh
   IRESTART =      0    0=no restart 2=restart with 2 vectors
   NREBOOT  =      0    no. of reboots
   NMIN     =      0    reboot dimension
   EREF     =   0.00    reference energy to select bands
   IMIX   =      4    mixing-type and parameters
     AMIX     =   0.40;   BMIX     =  1.00
     AMIX_MAG =   1.60;   BMIX_MAG =  1.00
     AMIN     =   0.10
     WC   =   100.;   INIMIX=   1;  MIXPRE=   1;  MAXMIX= -45

 Intra band minimization:
   WEIMIN = 0.0010     energy-eigenvalue tresh-hold
   EBREAK =  0.43E-08  absolut break condition
   DEPER  =   0.30     relativ break condition  

   TIME   =   0.40     timestep for ELM

  volume/ion in A,a.u.               =      29.63       199.92
  Fermi-wavevector in a.u.,A,eV,Ry     =   1.124653  2.125287 17.209264  1.264845
  Thomas-Fermi vector in A             =   2.261326
 
 Write flags
   LWAVE        =      F    write WAVECAR
   LDOWNSAMPLE  =      F    k-point downsampling of WAVECAR
   LCHARG       =      F    write CHGCAR
   LVTOT        =      F    write LOCPOT, total local potential
   LVHAR        =      F    write LOCPOT, Hartree potential only
   LELF         =      F    write electronic localiz. function (ELF)
   LORBIT       =      0    0 simple, 1 ext, 2 COOP (PROOUT), +10 PAW based schemes


 Dipole corrections
   LMONO  =      F    monopole corrections only (constant potential shift)
   LDIPOL =      F    correct potential (dipole corrections)
   IDIPOL =      0    1-x, 2-y, 3-z, 4-all directions 
   EPSILON=  1.0000000 bulk dielectric constant

 Exchange correlation treatment:
   GGA     =    --    GGA type
   LEXCH   =     8    internal setting for exchange type
   VOSKOWN=      0    Vosko Wilk Nusair interpolation
   LHFCALC =     F    Hartree Fock is set to
   LHFONE  =     F    Hartree Fock one center treatment
   AEXX    =    0.0000 exact exchange contribution

 Linear response parameters
   LEPSILON=     F    determine dielectric tensor
   LRPA    =     F    only Hartree local field effects (RPA)
   LNABLA  =     F    use nabla operator in PAW spheres
   LVEL    =     F    velocity operator in full k-point grid
   LINTERFAST=   F  fast interpolation
   KINTER  =     0    interpolate to denser k-point grid
   CSHIFT  =0.1000    complex shift for real part using Kramers Kronig
   OMEGAMAX=  -1.0    maximum frequency
   DEG_THRESHOLD= 0.2000000E-02 threshold for treating states as degnerate
   RTIME   =   -0.100 relaxation time in fs
  (WPLASMAI=    0.000 imaginary part of plasma frequency in eV, 0.658/RTIME)
   DFIELD  = 0.0000000 0.0000000 0.0000000 field for delta impulse in time
 
 Orbital magnetization related:
   ORBITALMAG=     F  switch on orbital magnetization
   LCHIMAG   =     F  perturbation theory with respect to B field
   DQ        =  0.001000  dq finite difference perturbation B field
   LLRAUG    =     F  two centre corrections for induced B field



--------------------------------------------------------------------------------------------------------


 finite differences
   using selective dynamics as specified on POSCAR
   WARNING: If single coordinates had been selected the selection of coordinates
            is made according to the corresponding   d i r e c t   coordinates!
            Don't support selection of single cartesian coordinates -- sorry ...
  !
 charge density and potential will be updated during run
 spin polarized calculation
 RMM-DIIS sequential band-by-band and
  variant of blocked Davidson during initial phase
 perform sub-space diagonalisation
    before iterative eigenvector-optimisation
 modified Broyden-mixing scheme, WC =      100.0
 initial mixing is a Kerker type mixing with AMIX =  0.4000 and BMIX =      1.0000
 Hartree-type preconditioning will be used
 using additional bands          187
 real space projection scheme for non local part
 use partial core corrections
 calculate Harris-corrections to forces 
   (improved forces if not selfconsistent)
 use gradient corrections 
 use of overlap-Matrix (Vanderbilt PP)
 Fermi weights with tetrahedron method with Bloechl corrections


--------------------------------------------------------------------------------------------------------


  energy-cutoff  :      550.00
  volume of cell :     2399.65
      direct lattice vectors                 reciprocal lattice vectors
    11.222700119  0.000000000  0.000000000     0.089105116 -0.051444863  0.000000000
     5.611350060  9.719143402  0.000000000     0.000000000  0.102889726  0.000000000
     0.000000000  0.000000000 22.000000000     0.000000000  0.000000000  0.045454545

  length of vectors
    11.222700119 11.222700119 22.000000000     0.102889726  0.102889726  0.045454545


 
 k-points in units of 2pi/SCALE and weight: mesh auto                               
   0.00000000  0.00000000  0.00000000       0.250
   0.04455256 -0.02572243  0.00000000       0.250
   0.00000000  0.05144486  0.00000000       0.250
   0.04455256  0.02572243  0.00000000       0.250
 
 k-points in reciprocal lattice and weights: mesh auto                               
   0.00000000  0.00000000  0.00000000       0.250
   0.50000000  0.00000000  0.00000000       0.250
   0.00000000  0.50000000  0.00000000       0.250
   0.50000000  0.50000000  0.00000000       0.250
 
 position of ions in fractional coordinates (direct lattice) 
   0.78988958  0.87847847  0.30162811
   0.03220391  0.88001013  0.29335408
   0.27640720  0.36174228  0.31087173
   0.87181284  0.96596542  0.40162407
   0.11423415  0.46620393  0.41030203
   0.13092036  0.95562667  0.39959063
   0.87344866  0.45526587  0.41229270
   0.37587931  0.95366690  0.41525445
   0.86249403  0.21433299  0.39644833
   0.12905775  0.21300579  0.41311193
   0.62846784  0.95168386  0.40967455
   0.87509158  0.71231700  0.40864687
   0.37760159  0.20033766  0.41330293
   0.37614361  0.69962584  0.40075409
   0.61866878  0.45836369  0.39898152
   0.12165282  0.70542566  0.40364929
   0.62554639  0.20235541  0.40422941
   0.53831900  0.34719329  0.30080710
   0.52759807  0.11281086  0.30846774
   0.54569241  0.12647739  0.06683304
   0.11791659  0.40792499  0.11908862
   0.05385713  0.14758875  0.31052719
   0.00892895  0.10176852  0.04917651
   0.13783207  0.92691145  0.14197368
   0.37477199  0.45140827  0.40629036
   0.47979716  0.55399880  0.22971747
   0.62594730  0.70777952  0.41363132
   0.95252345  0.75898977  0.20420405
   0.79665798  0.63132288  0.31072066
   0.27336675  0.60806868  0.30277717
   0.18749030  0.26198206  0.22539890
   0.71089206  0.56100734  0.21410215
   0.04197577  0.60915851  0.30478581
   0.78196837  0.88367072  0.08012597
   0.00167860  0.86570870  0.07172203
   0.00649475  0.65686199  0.09367822
   0.62789021  0.23379040  0.14972974
   0.36050112  0.94235243  0.13470415
   0.02371742  0.39574295  0.31627602
   0.01296097  0.32139498  0.04442433
   0.84423970  0.22761319  0.13891977
   0.96744603  0.52048649  0.21885007
   0.30297701  0.09878073  0.31920237
   0.55237416  0.64764141  0.31699592
   0.25085454  0.09128101  0.04878728
   0.52913784  0.61162204  0.04697948
   0.33389242  0.36126594  0.07221963
   0.58147332  0.93651314  0.13694302
   0.67732667  0.80921239  0.22305304
   0.80979447  0.67906481  0.14024348
   0.62937817  0.45366950  0.13325724
   0.32162349  0.87204202  0.31647512
   0.29919813  0.84983568  0.05000644
   0.58103448  0.72612545  0.12392179
   0.22907234  0.01294552  0.22967573
   0.54871865  0.36069037  0.05545242
   0.34411655  0.16690962  0.13164412
   0.17554400  0.68420617  0.14761894
   0.66082635  0.04249037  0.21304482
   0.78491193  0.11594854  0.29679094
   0.53647542  0.87409844  0.31602279
   0.77284397  0.12278263  0.06048458
   0.50030742  0.89844953  0.04455515
   0.19571508  0.50522867  0.21438636
   0.93546177  0.31542046  0.22552712
   0.85824468  0.00195101  0.15611973
   0.72104290  0.31497628  0.22969726
   0.43002289  0.26577701  0.21377066
   0.87703755  0.42955743  0.12878365
   0.09634819  0.18069822  0.13969274
   0.75988870  0.58867799  0.05155611
   0.31527374  0.59151669  0.05925234
   0.38179216  0.70126590  0.13646584
   0.40042658  0.45377032  0.14884727
   0.79068271  0.40150808  0.31370129
   0.78089926  0.35148021  0.04598080
   0.96954404  0.08430315  0.22196820
   0.46486898  0.79463888  0.22533144
   0.24890496  0.78598962  0.23267623
   0.43862206  0.02771317  0.22450195
   0.03699407  0.87777892  0.43952928
 
 position of ions in cartesian coordinates  (Angst):
  13.79414410  8.53805818  6.63581835
   5.29945968  8.55294461  6.45378976
   5.13189769  3.51582511  6.83917805
  15.20446417  9.38835646  8.83572944
   3.89804911  4.53110287  9.02664459
   6.83163569  9.28787264  8.79099383
  12.35710851  4.42479424  9.07043936
   9.56973962  9.26882539  9.13559794
  10.88220926  2.08313308  8.72186322
   2.64362643  2.07023378  9.08846256
  12.39333742  9.24955195  9.01284000
  13.81795040  6.92311104  8.99023120
   5.36187410  1.94711046  9.09266453
   8.14719241  6.79976385  8.81658995
   9.51517330  4.45490248  8.77759351
   5.32366348  6.85613318  8.88028430
   8.15580654  1.96672122  8.89304693
   7.98961583  3.37442141  6.61775620
   6.55409618  1.09642497  6.78629020
   6.83385120  1.22925189  1.47032698
   3.61235247  3.96468152  2.61994962
   1.43259456  1.43443624  6.83159824
   0.67126575  0.98910281  1.08188317
   6.74807265  9.00878530  3.12342105
   6.73896350  4.38730167  8.93838782
   8.49330084  5.38439383  5.05378437
  10.99641752  6.87901065  9.09988898
  14.94884239  7.37673046  4.49248916
  12.48322735  6.13591763  6.83585458
   6.47999926  5.90990667  6.66109781
   3.57422044  2.54624125  4.95877580
  11.12613698  5.45251083  4.71024739
   3.88928307  5.92049892  6.70528772
  13.73438227  8.58852246  1.76277137
   4.87663302  8.41394697  1.57788465
   3.75877116  6.38413590  2.06092090
   8.35850333  2.27224245  3.29405432
   9.33366537  9.15885838  2.96349132
   2.48682566  3.84628245  6.95807254
   1.94891684  3.12368389  0.97733531
  10.75186628  2.21220519  3.05623495
  13.77798860  5.05868282  4.81470165
   3.95451345  0.96006412  7.02245208
   9.83327224  6.29451974  6.97391015
   3.32747495  0.88717326  1.07332023
   9.37038068  5.94444230  1.03354859
   5.77436416  3.51119550  1.58883193
  11.78080373  9.10210551  3.01274644
  12.14220806  7.86485128  4.90716692
  12.89855082  6.59992829  3.08535659
   9.60902083  4.40927897  2.93165935
   8.50281708  8.47550148  6.96245263
   8.12653637  8.25967484  1.10014163
  10.59531978  7.05731733  2.72627938
   2.64345207  0.12581940  5.05286608
   8.18206475  3.50560142  1.21995326
   4.79850516  1.62221856  2.89617069
   5.80939796  6.64989784  3.24761674
   7.65468432  0.41297001  4.68698615
   9.45945909  1.12692048  6.52940070
  10.92557512  8.49548808  6.95250140
   9.36237240  1.19334199  1.33066085
  10.65631497  8.73215981  0.98021322
   5.03146660  4.91038993  4.71649990
  12.26834149  3.06561666  4.96159659
   9.64277050  0.01896212  3.43463404
   9.85949038  3.06129963  5.05333976
   6.31738572  2.58312482  4.70295446
  12.25312658  4.17493029  2.83324027
   2.09524784  1.75623189  3.07324021
  11.83128130  5.72144585  1.13423452
   6.85742987  5.74903551  1.30355140
   8.21978744  6.81570388  3.00224843
   7.04013147  4.41025877  3.27463986
  11.12659729  3.90231460  6.90142837
  10.73607676  3.41608656  1.01157751
  11.35395654  0.81935443  4.88330047
   9.67608211  7.72320924  4.95729164
   7.20384860  7.63914586  5.11887697
   5.07803210  0.26934830  4.93904295
   5.34069816  8.53125917  9.66964418
 


--------------------------------------------------------------------------------------------------------


 k-point  1 :   0.0000 0.0000 0.0000  plane waves:   70321
 k-point  2 :   0.5000 0.0000 0.0000  plane waves:   70264
 k-point  3 :   0.0000 0.5000 0.0000  plane waves:   70264
 k-point  4 :   0.5000 0.5000 0.0000  plane waves:   70264

 maximum and minimum number of plane-waves per node :     70321    70264

 maximum number of plane-waves:     70321
 maximum index in each direction: 
   IXMAX=   21   IYMAX=   21   IZMAX=   42
   IXMIN=  -21   IYMIN=  -21   IZMIN=  -42


 serial   3D FFT for wavefunctions
 parallel 3D FFT for charge:
    minimum data exchange during FFTs selected (reduces bandwidth)


 total amount of memory used by VASP MPI-rank0   379509. kBytes
=======================================================================

   base      :      30000. kBytes
   nonlr-proj:      90623. kBytes
   fftplans  :      13535. kBytes
   grid      :     132462. kBytes
   one-center:       2519. kBytes
   wavefun   :     110370. kBytes
 
     INWAV:  cpu time    0.0001: real time    0.0006
 Broyden mixing: mesh for mixing (old mesh)
   NGX = 43   NGY = 43   NGZ = 85
  (NGX  =180   NGY  =180   NGZ  =336)
  gives a total of 157165 points

 initial charge density was supplied:
 charge density of overlapping atoms calculated
 number of electron     778.0000000 magnetization     206.0000000
 keeping initial charge density in first step


--------------------------------------------------------------------------------------------------------


 Maximum index for non-local projection operator         7664
 Maximum index for augmentation-charges         1120 (set IRDMAX)


--------------------------------------------------------------------------------------------------------


 First call to EWALD:  gamma=   0.132
 Maximum number of real-space cells 4x 4x 2
 Maximum number of reciprocal cells 2x 2x 4

    FEWALD:  cpu time    0.0045: real time    0.0045


--------------------------------------- Iteration      1(   1)  ---------------------------------------


    POTLOK:  cpu time    0.4951: real time    0.4978
    SETDIJ:  cpu time    0.0314: real time    0.0314
     EDDAV:  cpu time   56.2064: real time   56.4545
 BZINTS: Fermi energy: 15.082643;778.000000 electrons
         Band energy:6664.685917;  BLOECHL correction: -0.014806
       DOS:  cpu time    0.0325: real time    0.0899
    --------------------------------------------
      LOOP:  cpu time   56.7654: real time   57.0736

 eigenvalue-minimisations  :  9216
 total energy-change (2. order) : 0.6703161E+04  (-0.3448948E+05)
 number of electron     778.0000000 magnetization     206.0000000
 augmentation part      778.0000000 magnetization     206.0000000

 Free energy of the ion-electron system (eV)
  ---------------------------------------------------
  alpha Z        PSCENC =      1751.32544349
  Ewald energy   TEWEN  =    237162.32433100
  -Hartree energ DENC   =   -307220.90138394
  -exchange      EXHF   =         0.00000000
  -V(xc)+E(xc)   XCENC  =      1334.58494300
  PAW double counting   =     62871.68470781   -64853.88848185
  entropy T*S    EENTRO =         0.00000000
  eigenvalues    EBANDS =      6664.68591670
  atomic energy  EATOM  =     68993.34587830
  Solvation  Ediel_sol  =         0.00000000
  ---------------------------------------------------
  free energy    TOTEN  =      6703.16135451 eV

  energy without entropy =     6703.16135451  energy(sigma->0) =     6703.16135451


--------------------------------------------------------------------------------------------------------




--------------------------------------- Iteration      1(   2)  ---------------------------------------


     EDDAV:  cpu time   56.1555: real time   56.3801
 BZINTS: Fermi energy:  4.443049;778.000000 electrons
         Band energy: 304.866465;  BLOECHL correction: -0.005163
       DOS:  cpu time    0.0226: real time    0.0256
    --------------------------------------------
      LOOP:  cpu time   56.1781: real time   56.4058

 eigenvalue-minimisations  :  9216
 total energy-change (2. order) :-0.6359819E+04  (-0.5775605E+04)
 number of electron     778.0000000 magnetization     206.0000000
 augmentation part      778.0000000 magnetization     206.0000000

 Free energy of the ion-electron system (eV)
  ---------------------------------------------------
  alpha Z        PSCENC =      1751.32544349
  Ewald energy   TEWEN  =    237162.32433100
  -Hartree energ DENC   =   -307220.90138394
  -exchange      EXHF   =         0.00000000
  -V(xc)+E(xc)   XCENC  =      1334.58494300
  PAW double counting   =     62871.68470781   -64853.88848185
  entropy T*S    EENTRO =         0.00000000
  eigenvalues    EBANDS =       304.86646469
  atomic energy  EATOM  =     68993.34587830
  Solvation  Ediel_sol  =         0.00000000
  ---------------------------------------------------
  free energy    TOTEN  =       343.34190250 eV

  energy without entropy =      343.34190250  energy(sigma->0) =      343.34190250


--------------------------------------------------------------------------------------------------------




--------------------------------------- Iteration      1(   3)  ---------------------------------------


     EDDAV:  cpu time   59.7000: real time   59.8928
 BZINTS: Fermi energy:  2.810949;778.000000 electrons
         Band energy:-504.253566;  BLOECHL correction: -0.019272
       DOS:  cpu time    0.0239: real time    0.0248
    --------------------------------------------
      LOOP:  cpu time   59.7239: real time   59.9176

 eigenvalue-minimisations  :  9984
 total energy-change (2. order) :-0.8091200E+03  (-0.6957347E+03)
 number of electron     778.0000000 magnetization     206.0000000
 augmentation part      778.0000000 magnetization     206.0000000

 Free energy of the ion-electron system (eV)
  ---------------------------------------------------
  alpha Z        PSCENC =      1751.32544349
  Ewald energy   TEWEN  =    237162.32433100
  -Hartree energ DENC   =   -307220.90138394
  -exchange      EXHF   =         0.00000000
  -V(xc)+E(xc)   XCENC  =      1334.58494300
  PAW double counting   =     62871.68470781   -64853.88848185
  entropy T*S    EENTRO =         0.00000000
  eigenvalues    EBANDS =      -504.25356556
  atomic energy  EATOM  =     68993.34587830
  Solvation  Ediel_sol  =         0.00000000
  ---------------------------------------------------
  free energy    TOTEN  =      -465.77812775 eV

  energy without entropy =     -465.77812775  energy(sigma->0) =     -465.77812775


--------------------------------------------------------------------------------------------------------




--------------------------------------- Iteration      1(   4)  ---------------------------------------


     EDDAV:  cpu time   61.6255: real time   62.9053
 BZINTS: Fermi energy:  2.733929;778.000000 electrons
         Band energy:-543.250123;  BLOECHL correction: -0.013346
       DOS:  cpu time    0.0232: real time    0.0242
    --------------------------------------------
      LOOP:  cpu time   61.6488: real time   62.9295

 eigenvalue-minimisations  : 10368
 total energy-change (2. order) :-0.3899656E+02  (-0.3808247E+02)
 number of electron     778.0000000 magnetization     206.0000000
 augmentation part      778.0000000 magnetization     206.0000000

 Free energy of the ion-electron system (eV)
  ---------------------------------------------------
  alpha Z        PSCENC =      1751.32544349
  Ewald energy   TEWEN  =    237162.32433100
  -Hartree energ DENC   =   -307220.90138394
  -exchange      EXHF   =         0.00000000
  -V(xc)+E(xc)   XCENC  =      1334.58494300
  PAW double counting   =     62871.68470781   -64853.88848185
  entropy T*S    EENTRO =         0.00000000
  eigenvalues    EBANDS =      -543.25012294
  atomic energy  EATOM  =     68993.34587830
  Solvation  Ediel_sol  =         0.00000000
  ---------------------------------------------------
  free energy    TOTEN  =      -504.77468514 eV

  energy without entropy =     -504.77468514  energy(sigma->0) =     -504.77468514


--------------------------------------------------------------------------------------------------------




--------------------------------------- Iteration      1(   5)  ---------------------------------------


     EDDAV:  cpu time   68.0231: real time   68.2697
 BZINTS: Fermi energy:  2.732640;778.000000 electrons
         Band energy:-543.938575;  BLOECHL correction: -0.013327
       DOS:  cpu time    0.0234: real time    0.0638
    CHARGE:  cpu time    3.0435: real time    3.0547
    MIXING:  cpu time    0.0117: real time    0.0118
    --------------------------------------------
      LOOP:  cpu time   71.1017: real time   71.4000

 eigenvalue-minimisations  : 11712
 total energy-change (2. order) :-0.6884525E+00  (-0.6880857E+00)
 number of electron     778.0000034 magnetization     194.1576447
 augmentation part      338.0591330 magnetization     164.4149770

 Broyden mixing:
  rms(total) = 0.10638E+02    rms(broyden)= 0.10638E+02
  rms(prec ) = 0.11009E+02
  weight for this iteration     100.00

 Free energy of the ion-electron system (eV)
  ---------------------------------------------------
  alpha Z        PSCENC =      1751.32544349
  Ewald energy   TEWEN  =    237162.32433100
  -Hartree energ DENC   =   -307220.90138394
  -exchange      EXHF   =         0.00000000
  -V(xc)+E(xc)   XCENC  =      1334.58494300
  PAW double counting   =     62871.68470781   -64853.88848185
  entropy T*S    EENTRO =         0.00000000
  eigenvalues    EBANDS =      -543.93857542
  atomic energy  EATOM  =     68993.34587830
  Solvation  Ediel_sol  =         0.00000000
  ---------------------------------------------------
  free energy    TOTEN  =      -505.46313761 eV

  energy without entropy =     -505.46313761  energy(sigma->0) =     -505.46313761


--------------------------------------------------------------------------------------------------------




--------------------------------------- Iteration      1(   6)  ---------------------------------------


    POTLOK:  cpu time    0.4857: real time    0.5015
    SETDIJ:  cpu time    0.0314: real time    0.0315
    EDDIAG:  cpu time    9.8330: real time    9.8719
  RMM-DIIS:  cpu time   37.6147: real time   37.7659
    ORTHCH:  cpu time    1.3934: real time    1.4027
 BZINTS: Fermi energy:  1.278455;778.000000 electrons
         Band energy:***********;  BLOECHL correction: -0.021716
       DOS:  cpu time    0.0271: real time    0.0272
    CHARGE:  cpu time    3.0150: real time    3.0464
    MIXING:  cpu time    0.0145: real time    0.0180
    --------------------------------------------
      LOOP:  cpu time   52.4149: real time   52.6650

 eigenvalue-minimisations  :  9412
 total energy-change (2. order) :-0.2513555E+03  (-0.9963530E+02)
 number of electron     778.0000047 magnetization     190.8504610
 augmentation part      408.6204986 magnetization     162.6926759

 Broyden mixing:
  rms(total) = 0.20814E+02    rms(broyden)= 0.20814E+02
  rms(prec ) = 0.25901E+02
  weight for this iteration     100.00

 eigenvalues of (default mixing * dielectric matrix)
  average eigenvalue GAMMA=   0.1752
  0.1752

 Free energy of the ion-electron system (eV)
  ---------------------------------------------------
  alpha Z        PSCENC =      1751.32544349
  Ewald energy   TEWEN  =    237162.32433100
  -Hartree energ DENC   =   -305938.87598527
  -exchange      EXHF   =         0.00000000
  -V(xc)+E(xc)   XCENC  =      1288.68132930
  PAW double counting   =     67903.56540188   -69656.03807065
  entropy T*S    EENTRO =         0.00000000
  eigenvalues    EBANDS =     -2261.14699223
  atomic energy  EATOM  =     68993.34587830
  Solvation  Ediel_sol  =         0.00000000
  ---------------------------------------------------
  free energy    TOTEN  =      -756.81866418 eV

  energy without entropy =     -756.81866418  energy(sigma->0) =     -756.81866418


--------------------------------------------------------------------------------------------------------




--------------------------------------- Iteration      1(   7)  ---------------------------------------


    POTLOK:  cpu time    0.4618: real time    0.4643
    SETDIJ:  cpu time    0.0314: real time    0.0315
    EDDIAG:  cpu time    9.8279: real time    9.8577
  RMM-DIIS:  cpu time   37.1564: real time   37.2877
    ORTHCH:  cpu time    1.4062: real time    1.4102
 BZINTS: Fermi energy:  2.041148;778.000000 electrons
         Band energy:***********;  BLOECHL correction: -0.010199
       DOS:  cpu time    0.0271: real time    0.0272
    CHARGE:  cpu time    3.0328: real time    3.0411
    MIXING:  cpu time    0.0122: real time    0.0123
    --------------------------------------------
      LOOP:  cpu time   51.9560: real time   52.1323

 eigenvalue-minimisations  :  9239
 total energy-change (2. order) : 0.2397860E+03  (-0.1705737E+02)
 number of electron     778.0000037 magnetization     187.9169563
 augmentation part      372.1385553 magnetization     153.0861912

 Broyden mixing:
  rms(total) = 0.14960E+02    rms(broyden)= 0.14960E+02
  rms(prec ) = 0.18155E+02
  weight for this iteration     100.00

 eigenvalues of (default mixing * dielectric matrix)
  average eigenvalue GAMMA=   0.2160
  0.2160  0.2160

 Free energy of the ion-electron system (eV)
  ---------------------------------------------------
  alpha Z        PSCENC =      1751.32544349
  Ewald energy   TEWEN  =    237162.32433100
  -Hartree energ DENC   =   -306542.07656343
  -exchange      EXHF   =         0.00000000
  -V(xc)+E(xc)   XCENC  =      1305.22801728
  PAW double counting   =     68943.12925280   -70859.80720480
  entropy T*S    EENTRO =         0.00000000
  eigenvalues    EBANDS =     -1270.50183934
  atomic energy  EATOM  =     68993.34587830
  Solvation  Ediel_sol  =         0.00000000
  ---------------------------------------------------
  free energy    TOTEN  =      -517.03268470 eV

  energy without entropy =     -517.03268470  energy(sigma->0) =     -517.03268470


--------------------------------------------------------------------------------------------------------




--------------------------------------- Iteration      1(   8)  ---------------------------------------


    POTLOK:  cpu time    0.4598: real time    0.4723
    SETDIJ:  cpu time    0.0313: real time    0.0314
    EDDIAG:  cpu time    9.8318: real time    9.8656
  RMM-DIIS:  cpu time   37.2715: real time   37.4233
    ORTHCH:  cpu time    1.3983: real time    1.4022
 BZINTS: Fermi energy:  1.452268;778.000000 electrons
         Band energy:***********;  BLOECHL correction: -0.030162
       DOS:  cpu time    0.0253: real time    0.0254
    CHARGE:  cpu time    3.0339: real time    3.0424
    MIXING:  cpu time    0.0123: real time    0.0125
    --------------------------------------------
      LOOP:  cpu time   52.0640: real time   52.2748

 eigenvalue-minimisations  :  9261
 total energy-change (2. order) : 0.8533662E+02  (-0.1323072E+02)
 number of electron     778.0000044 magnetization     180.9596125
 augmentation part      380.8062753 magnetization     142.6590939

 Broyden mixing:
  rms(total) = 0.11883E+02    rms(broyden)= 0.11883E+02
  rms(prec ) = 0.13925E+02
  weight for this iteration     100.00

 eigenvalues of (default mixing * dielectric matrix)
  average eigenvalue GAMMA=   0.3142
  0.5638  0.2869  0.0918

 Free energy of the ion-electron system (eV)
  ---------------------------------------------------
  alpha Z        PSCENC =      1751.32544349
  Ewald energy   TEWEN  =    237162.32433100
  -Hartree energ DENC   =   -306402.62348919
  -exchange      EXHF   =         0.00000000
  -V(xc)+E(xc)   XCENC  =      1309.82111910
  PAW double counting   =     69649.56207688   -71588.32953247
  entropy T*S    EENTRO =         0.00000000
  eigenvalues    EBANDS =     -1307.12188964
  atomic energy  EATOM  =     68993.34587830
  Solvation  Ediel_sol  =         0.00000000
  ---------------------------------------------------
  free energy    TOTEN  =      -431.69606253 eV

  energy without entropy =     -431.69606253  energy(sigma->0) =     -431.69606253


--------------------------------------------------------------------------------------------------------




--------------------------------------- Iteration      1(   9)  ---------------------------------------


    POTLOK:  cpu time    0.4721: real time    0.4972
    SETDIJ:  cpu time    0.0308: real time    0.0309
    EDDIAG:  cpu time    9.8665: real time    9.8972
  RMM-DIIS:  cpu time   37.0020: real time   37.1274
    ORTHCH:  cpu time    1.3959: real time    1.3997
 BZINTS: Fermi energy:  1.580134;778.000000 electrons
         Band energy:***********;  BLOECHL correction: -0.020290
       DOS:  cpu time    0.0250: real time    0.0250
    CHARGE:  cpu time    3.0335: real time    3.0443
    MIXING:  cpu time    0.0121: real time    0.0125
    --------------------------------------------
      LOOP:  cpu time   51.8379: real time   52.0342

 eigenvalue-minimisations  :  9232
 total energy-change (2. order) :-0.1000822E+03  (-0.1754445E+02)
 number of electron     778.0000034 magnetization     174.8233963
 augmentation part      380.6512978 magnetization     142.0695554

 Broyden mixing:
  rms(total) = 0.16703E+02    rms(broyden)= 0.16703E+02
  rms(prec ) = 0.19170E+02
  weight for this iteration     100.00

 eigenvalues of (default mixing * dielectric matrix)
  average eigenvalue GAMMA=   0.3435
  0.8404  0.3133  0.1102  0.1102

 Free energy of the ion-electron system (eV)
  ---------------------------------------------------
  alpha Z        PSCENC =      1751.32544349
  Ewald energy   TEWEN  =    237162.32433100
  -Hartree energ DENC   =   -306152.46161498
  -exchange      EXHF   =         0.00000000
  -V(xc)+E(xc)   XCENC  =      1327.02473409
  PAW double counting   =     71256.10419590   -73257.46628971
  entropy T*S    EENTRO =         0.00000000
  eigenvalues    EBANDS =     -1611.97498833
  atomic energy  EATOM  =     68993.34587830
  Solvation  Ediel_sol  =         0.00000000
  ---------------------------------------------------
  free energy    TOTEN  =      -531.77831024 eV

  energy without entropy =     -531.77831024  energy(sigma->0) =     -531.77831024


--------------------------------------------------------------------------------------------------------




--------------------------------------- Iteration      1(  10)  ---------------------------------------


    POTLOK:  cpu time    0.4573: real time    0.4788
    SETDIJ:  cpu time    0.0313: real time    0.0313
    EDDIAG:  cpu time    9.8367: real time    9.8661
  RMM-DIIS:  cpu time   36.8970: real time   37.0621
    ORTHCH:  cpu time    1.3955: real time    1.4058
 BZINTS: Fermi energy:  1.893701;778.000000 electrons
         Band energy:***********;  BLOECHL correction: -0.003409
       DOS:  cpu time    0.0257: real time    0.0258
    CHARGE:  cpu time    3.0216: real time    3.0299
    MIXING:  cpu time    0.0130: real time    0.0131
    --------------------------------------------
      LOOP:  cpu time   51.6780: real time   51.9129

 eigenvalue-minimisations  :  9237
 total energy-change (2. order) : 0.1130291E+03  (-0.1238945E+02)
 number of electron     778.0000043 magnetization     169.3940439
 augmentation part      381.7216930 magnetization     126.1077981

 Broyden mixing:
  rms(total) = 0.10534E+02    rms(broyden)= 0.10534E+02
  rms(prec ) = 0.13473E+02
  weight for this iteration     100.00

 eigenvalues of (default mixing * dielectric matrix)
  average eigenvalue GAMMA=   0.3485
  0.9311  0.4300  0.1460  0.1460  0.0896

 Free energy of the ion-electron system (eV)
  ---------------------------------------------------
  alpha Z        PSCENC =      1751.32544349
  Ewald energy   TEWEN  =    237162.32433100
  -Hartree energ DENC   =   -306546.45933370
  -exchange      EXHF   =         0.00000000
  -V(xc)+E(xc)   XCENC  =      1336.94707455
  PAW double counting   =     72559.38079716   -74620.94497558
  entropy T*S    EENTRO =         0.00000000
  eigenvalues    EBANDS =     -1054.66837574
  atomic energy  EATOM  =     68993.34587830
  Solvation  Ediel_sol  =         0.00000000
  ---------------------------------------------------
  free energy    TOTEN  =      -418.74916053 eV

  energy without entropy =     -418.74916053  energy(sigma->0) =     -418.74916053


--------------------------------------------------------------------------------------------------------




--------------------------------------- Iteration      1(  11)  ---------------------------------------


    POTLOK:  cpu time    0.4618: real time    0.4681
    SETDIJ:  cpu time    0.0315: real time    0.0316
    EDDIAG:  cpu time    9.8488: real time    9.8778
  RMM-DIIS:  cpu time   37.2610: real time   37.4256
    ORTHCH:  cpu time    1.4008: real time    1.4049
 BZINTS: Fermi energy:  1.938935;778.000000 electrons
         Band energy:-737.157373;  BLOECHL correction: -0.061208
       DOS:  cpu time    0.0246: real time    0.0247
    CHARGE:  cpu time    3.0409: real time    3.0495
    MIXING:  cpu time    0.0132: real time    0.0134
    --------------------------------------------
      LOOP:  cpu time   52.0826: real time   52.2956

 eigenvalue-minimisations  :  9262
 total energy-change (2. order) : 0.6121665E+02  (-0.8580887E+01)
 number of electron     778.0000040 magnetization     165.2342472
 augmentation part      373.8495300 magnetization     123.3079005

 Broyden mixing:
  rms(total) = 0.96283E+01    rms(broyden)= 0.96282E+01
  rms(prec ) = 0.10491E+02
  weight for this iteration     100.00

 eigenvalues of (default mixing * dielectric matrix)
  average eigenvalue GAMMA=   0.3526
  1.0586  0.4771  0.1687  0.1687  0.1498  0.0930

 Free energy of the ion-electron system (eV)
  ---------------------------------------------------
  alpha Z        PSCENC =      1751.32544349
  Ewald energy   TEWEN  =    237162.32433100
  -Hartree energ DENC   =   -306766.19346296
  -exchange      EXHF   =         0.00000000
  -V(xc)+E(xc)   XCENC  =      1336.87374197
  PAW double counting   =     73456.40946920   -75554.46053691
  entropy T*S    EENTRO =         0.00000000
  eigenvalues    EBANDS =      -737.15737275
  atomic energy  EATOM  =     68993.34587830
  Solvation  Ediel_sol  =         0.00000000
  ---------------------------------------------------
  free energy    TOTEN  =      -357.53250867 eV

  energy without entropy =     -357.53250867  energy(sigma->0) =     -357.53250867


--------------------------------------------------------------------------------------------------------




--------------------------------------- Iteration      1(  12)  ---------------------------------------


    POTLOK:  cpu time    0.4577: real time    0.4760
    SETDIJ:  cpu time    0.0313: real time    0.0313
    EDDIAG:  cpu time    9.8286: real time    9.8677
  RMM-DIIS:  cpu time   37.3502: real time   37.4979
    ORTHCH:  cpu time    1.4116: real time    1.4155
 BZINTS: Fermi energy:  2.027758;778.000000 electrons
         Band energy:-752.624354;  BLOECHL correction: -0.049524
       DOS:  cpu time    0.0253: real time    0.0253
    CHARGE:  cpu time    3.0341: real time    3.0423
    MIXING:  cpu time    0.0130: real time    0.0132
    --------------------------------------------
      LOOP:  cpu time   52.1516: real time   52.3693

 eigenvalue-minimisations  :  9266
 total energy-change (2. order) :-0.1279868E+02  (-0.5677906E+01)
 number of electron     778.0000035 magnetization     160.8099732
 augmentation part      372.0201679 magnetization     122.0803001

 Broyden mixing:
  rms(total) = 0.11701E+02    rms(broyden)= 0.11700E+02
  rms(prec ) = 0.13161E+02
  weight for this iteration     100.00

 eigenvalues of (default mixing * dielectric matrix)
  average eigenvalue GAMMA=   0.3507
  1.1886  0.3832  0.3832  0.1455  0.1455  0.0963  0.1121

 Free energy of the ion-electron system (eV)
  ---------------------------------------------------
  alpha Z        PSCENC =      1751.32544349
  Ewald energy   TEWEN  =    237162.32433100
  -Hartree energ DENC   =   -306746.49169739
  -exchange      EXHF   =         0.00000000
  -V(xc)+E(xc)   XCENC  =      1333.14391768
  PAW double counting   =     73968.70458523   -76080.05929366
  entropy T*S    EENTRO =         0.00000000
  eigenvalues    EBANDS =      -752.62435412
  atomic energy  EATOM  =     68993.34587830
  Solvation  Ediel_sol  =         0.00000000
  ---------------------------------------------------
  free energy    TOTEN  =      -370.33118947 eV

  energy without entropy =     -370.33118947  energy(sigma->0) =     -370.33118947


--------------------------------------------------------------------------------------------------------




--------------------------------------- Iteration      1(  13)  ---------------------------------------


    POTLOK:  cpu time    0.4746: real time    1.1433
    SETDIJ:  cpu time    0.0313: real time    0.0314
    EDDIAG:  cpu time    9.8465: real time    9.8895
  RMM-DIIS:  cpu time   37.4130: real time   37.5393
    ORTHCH:  cpu time    1.4038: real time    1.4077
 BZINTS: Fermi energy:  2.088017;778.000000 electrons
         Band energy:-642.540634;  BLOECHL correction: -0.052785
       DOS:  cpu time    0.0221: real time    0.0222
    CHARGE:  cpu time    3.0389: real time    3.0494
    MIXING:  cpu time    0.0135: real time    0.0136
    --------------------------------------------
      LOOP:  cpu time   52.2440: real time   53.0964

 eigenvalue-minimisations  :  9263
 total energy-change (2. order) : 0.4588660E+01  (-0.3668526E+01)
 number of electron     778.0000035 magnetization     156.5087879
 augmentation part      372.7478001 magnetization     117.4123164

 Broyden mixing:
  rms(total) = 0.99371E+01    rms(broyden)= 0.99370E+01
  rms(prec ) = 0.11064E+02
  weight for this iteration     100.00

 eigenvalues of (default mixing * dielectric matrix)
  average eigenvalue GAMMA=   0.3477
  1.2660  0.4533  0.4533  0.1490  0.1490  0.1299  0.0855  0.0955

 Free energy of the ion-electron system (eV)
  ---------------------------------------------------
  alpha Z        PSCENC =      1751.32544349
  Ewald energy   TEWEN  =    237162.32433100
  -Hartree energ DENC   =   -306837.09501524
  -exchange      EXHF   =         0.00000000
  -V(xc)+E(xc)   XCENC  =      1328.56766087
  PAW double counting   =     74504.38357959   -76626.05377346
  entropy T*S    EENTRO =         0.00000000
  eigenvalues    EBANDS =      -642.54063410
[...]
      9.833272  6.294520  6.973910            0           0           0  
      3.327475  0.887173  1.073320            0           0           0  
      9.370381  5.944442  1.033549            0           0           0  
      5.774364  3.511196  1.588832            0           0           0  
     11.780804  9.102106  3.012746            0           0           0  
     12.142208  7.864851  4.907167            0           0           0  
     12.898551  6.599928  3.085357            0           0           0  
      9.609021  4.409279  2.931659            0           0           0  
      8.502817  8.475501  6.962453            0           0           0  
      8.126536  8.259675  1.100142            0           0           0  
     10.595320  7.057317  2.726279            0           0           0  
      2.643452  0.125819  5.052866            0           0           0  
      8.182065  3.505601  1.219953            0           0           0  
      4.798505  1.622219  2.896171            0           0           0  
      5.809398  6.649898  3.247617            0           0           0  
      7.654684  0.412970  4.686986            0           0           0  
      9.459459  1.126920  6.529401            0           0           0  
     10.925575  8.495488  6.952501            0           0           0  
      9.362372  1.193342  1.330661            0           0           0  
     10.656315  8.732160  0.980213            0           0           0  
      5.031467  4.910390  4.716500            0           0           0  
     12.268341  3.065617  4.961597            0           0           0  
      9.642770  0.018962  3.434634            0           0           0  
      9.859490  3.061300  5.053340            0           0           0  
      6.317386  2.583125  4.702954            0           0           0  
     12.253127  4.174930  2.833240            0           0           0  
      2.095248  1.756232  3.073240            0           0           0  
     11.831281  5.721446  1.134235            0           0           0  
      6.857430  5.749036  1.303551            0           0           0  
      8.219787  6.815704  3.002248            0           0           0  
      7.040131  4.410259  3.274640            0           0           0  
     11.126597  3.902315  6.901428            0           0           0  
     10.736077  3.416087  1.011578            0           0           0  
     11.353957  0.819354  4.883300            0           0           0  
      9.676082  7.723209  4.957292            0           0           0  
      7.203849  7.639146  5.118877            0           0           0  
      5.078032  0.269348  4.939043            0           0           0  
      5.340698  8.531259  9.669644     0.312175   -0.039366    0.949209  
 
   2 f  =   22.176332 THz   139.338006 2PiTHz  739.722802 cm-1    91.713972 meV
             X         Y         Z           dx          dy          dz
     13.794144  8.538058  6.635818            0           0           0  
      5.299460  8.552945  6.453790            0           0           0  
      5.131898  3.515825  6.839178            0           0           0  
     15.204464  9.388356  8.835729            0           0           0  
      3.898049  4.531103  9.026645            0           0           0  
      6.831636  9.287873  8.790994            0           0           0  
     12.357109  4.424794  9.070439            0           0           0  
      9.569740  9.268825  9.135598            0           0           0  
     10.882209  2.083133  8.721863            0           0           0  
      2.643626  2.070234  9.088463            0           0           0  
     12.393337  9.249552  9.012840            0           0           0  
     13.817950  6.923111  8.990231            0           0           0  
      5.361874  1.947110  9.092665            0           0           0  
      8.147192  6.799764  8.816590            0           0           0  
      9.515173  4.454902  8.777594            0           0           0  
      5.323663  6.856133  8.880284            0           0           0  
      8.155807  1.966721  8.893047            0           0           0  
      7.989616  3.374421  6.617756            0           0           0  
      6.554096  1.096425  6.786290            0           0           0  
      6.833851  1.229252  1.470327            0           0           0  
      3.612352  3.964682  2.619950            0           0           0  
      1.432595  1.434436  6.831598            0           0           0  
      0.671266  0.989103  1.081883            0           0           0  
      6.748073  9.008785  3.123421            0           0           0  
      6.738964  4.387302  8.938388            0           0           0  
      8.493301  5.384394  5.053784            0           0           0  
     10.996418  6.879011  9.099889            0           0           0  
     14.948842  7.376730  4.492489            0           0           0  
     12.483227  6.135918  6.835855            0           0           0  
      6.479999  5.909907  6.661098            0           0           0  
      3.574220  2.546241  4.958776            0           0           0  
     11.126137  5.452511  4.710247            0           0           0  
      3.889283  5.920499  6.705288            0           0           0  
     13.734382  8.588522  1.762771            0           0           0  
      4.876633  8.413947  1.577885            0           0           0  
      3.758771  6.384136  2.060921            0           0           0  
      8.358503  2.272242  3.294054            0           0           0  
      9.333665  9.158858  2.963491            0           0           0  
      2.486826  3.846282  6.958073            0           0           0  
      1.948917  3.123684  0.977335            0           0           0  
     10.751866  2.212205  3.056235            0           0           0  
     13.777989  5.058683  4.814702            0           0           0  
      3.954513  0.960064  7.022452            0           0           0  
      9.833272  6.294520  6.973910            0           0           0  
      3.327475  0.887173  1.073320            0           0           0  
      9.370381  5.944442  1.033549            0           0           0  
      5.774364  3.511196  1.588832            0           0           0  
     11.780804  9.102106  3.012746            0           0           0  
     12.142208  7.864851  4.907167            0           0           0  
     12.898551  6.599928  3.085357            0           0           0  
      9.609021  4.409279  2.931659            0           0           0  
      8.502817  8.475501  6.962453            0           0           0  
      8.126536  8.259675  1.100142            0           0           0  
     10.595320  7.057317  2.726279            0           0           0  
      2.643452  0.125819  5.052866            0           0           0  
      8.182065  3.505601  1.219953            0           0           0  
      4.798505  1.622219  2.896171            0           0           0  
      5.809398  6.649898  3.247617            0           0           0  
      7.654684  0.412970  4.686986            0           0           0  
      9.459459  1.126920  6.529401            0           0           0  
     10.925575  8.495488  6.952501            0           0           0  
      9.362372  1.193342  1.330661            0           0           0  
     10.656315  8.732160  0.980213            0           0           0  
      5.031467  4.910390  4.716500            0           0           0  
     12.268341  3.065617  4.961597            0           0           0  
      9.642770  0.018962  3.434634            0           0           0  
      9.859490  3.061300  5.053340            0           0           0  
      6.317386  2.583125  4.702954            0           0           0  
     12.253127  4.174930  2.833240            0           0           0  
      2.095248  1.756232  3.073240            0           0           0  
     11.831281  5.721446  1.134235            0           0           0  
      6.857430  5.749036  1.303551            0           0           0  
      8.219787  6.815704  3.002248            0           0           0  
      7.040131  4.410259  3.274640            0           0           0  
     11.126597  3.902315  6.901428            0           0           0  
     10.736077  3.416087  1.011578            0           0           0  
     11.353957  0.819354  4.883300            0           0           0  
      9.676082  7.723209  4.957292            0           0           0  
      7.203849  7.639146  5.118877            0           0           0  
      5.078032  0.269348  4.939043            0           0           0  
      5.340698  8.531259  9.669644     0.551135   -0.806322   -0.214697  
 
   3 f  =   18.209140 THz   114.411399 2PiTHz  607.391503 cm-1    75.306976 meV
             X         Y         Z           dx          dy          dz
     13.794144  8.538058  6.635818            0           0           0  
      5.299460  8.552945  6.453790            0           0           0  
      5.131898  3.515825  6.839178            0           0           0  
     15.204464  9.388356  8.835729            0           0           0  
      3.898049  4.531103  9.026645            0           0           0  
      6.831636  9.287873  8.790994            0           0           0  
     12.357109  4.424794  9.070439            0           0           0  
      9.569740  9.268825  9.135598            0           0           0  
     10.882209  2.083133  8.721863            0           0           0  
      2.643626  2.070234  9.088463            0           0           0  
     12.393337  9.249552  9.012840            0           0           0  
     13.817950  6.923111  8.990231            0           0           0  
      5.361874  1.947110  9.092665            0           0           0  
      8.147192  6.799764  8.816590            0           0           0  
      9.515173  4.454902  8.777594            0           0           0  
      5.323663  6.856133  8.880284            0           0           0  
      8.155807  1.966721  8.893047            0           0           0  
      7.989616  3.374421  6.617756            0           0           0  
      6.554096  1.096425  6.786290            0           0           0  
      6.833851  1.229252  1.470327            0           0           0  
      3.612352  3.964682  2.619950            0           0           0  
      1.432595  1.434436  6.831598            0           0           0  
      0.671266  0.989103  1.081883            0           0           0  
      6.748073  9.008785  3.123421            0           0           0  
      6.738964  4.387302  8.938388            0           0           0  
      8.493301  5.384394  5.053784            0           0           0  
     10.996418  6.879011  9.099889            0           0           0  
     14.948842  7.376730  4.492489            0           0           0  
     12.483227  6.135918  6.835855            0           0           0  
      6.479999  5.909907  6.661098            0           0           0  
      3.574220  2.546241  4.958776            0           0           0  
     11.126137  5.452511  4.710247            0           0           0  
      3.889283  5.920499  6.705288            0           0           0  
     13.734382  8.588522  1.762771            0           0           0  
      4.876633  8.413947  1.577885            0           0           0  
      3.758771  6.384136  2.060921            0           0           0  
      8.358503  2.272242  3.294054            0           0           0  
      9.333665  9.158858  2.963491            0           0           0  
      2.486826  3.846282  6.958073            0           0           0  
      1.948917  3.123684  0.977335            0           0           0  
     10.751866  2.212205  3.056235            0           0           0  
     13.777989  5.058683  4.814702            0           0           0  
      3.954513  0.960064  7.022452            0           0           0  
      9.833272  6.294520  6.973910            0           0           0  
      3.327475  0.887173  1.073320            0           0           0  
      9.370381  5.944442  1.033549            0           0           0  
      5.774364  3.511196  1.588832            0           0           0  
     11.780804  9.102106  3.012746            0           0           0  
     12.142208  7.864851  4.907167            0           0           0  
     12.898551  6.599928  3.085357            0           0           0  
      9.609021  4.409279  2.931659            0           0           0  
      8.502817  8.475501  6.962453            0           0           0  
      8.126536  8.259675  1.100142            0           0           0  
     10.595320  7.057317  2.726279            0           0           0  
      2.643452  0.125819  5.052866            0           0           0  
      8.182065  3.505601  1.219953            0           0           0  
      4.798505  1.622219  2.896171            0           0           0  
      5.809398  6.649898  3.247617            0           0           0  
      7.654684  0.412970  4.686986            0           0           0  
      9.459459  1.126920  6.529401            0           0           0  
     10.925575  8.495488  6.952501            0           0           0  
      9.362372  1.193342  1.330661            0           0           0  
     10.656315  8.732160  0.980213            0           0           0  
      5.031467  4.910390  4.716500            0           0           0  
     12.268341  3.065617  4.961597            0           0           0  
      9.642770  0.018962  3.434634            0           0           0  
      9.859490  3.061300  5.053340            0           0           0  
      6.317386  2.583125  4.702954            0           0           0  
     12.253127  4.174930  2.833240            0           0           0  
      2.095248  1.756232  3.073240            0           0           0  
     11.831281  5.721446  1.134235            0           0           0  
      6.857430  5.749036  1.303551            0           0           0  
      8.219787  6.815704  3.002248            0           0           0  
      7.040131  4.410259  3.274640            0           0           0  
     11.126597  3.902315  6.901428            0           0           0  
     10.736077  3.416087  1.011578            0           0           0  
     11.353957  0.819354  4.883300            0           0           0  
      9.676082  7.723209  4.957292            0           0           0  
      7.203849  7.639146  5.118877            0           0           0  
      5.078032  0.269348  4.939043            0           0           0  
      5.340698  8.531259  9.669644    -0.773820   -0.590165    0.230018  
 
 Finite differences POTIM=  1.500000000000000E-002
  LATTYP: Found a hexagonal cell.
 ALAT       =    11.2227001190
 C/A-ratio  =     1.9603125600
  
  Lattice vectors:
  
 A1 = (   5.6113500595,  -9.7191434021,   0.0000000000)
 A2 = ( -11.2227001190,   0.0000000000,   0.0000000000)
 A3 = (   0.0000000000,   0.0000000000, -22.0000000000)


Analysis of symmetry for initial positions (statically):
=====================================================================
 Subroutine PRICEL returns:
 Original cell was already a primitive cell.
 

 Routine SETGRP: Setting up the symmetry group for a 
 hexagonal supercell.


 Subroutine GETGRP returns: Found  1 space group operations
 (whereof  1 operations were pure point group operations)
 out of a pool of 24 trial point group operations.


The static configuration has the point symmetry C_1 .


Analysis of symmetry for dynamics (positions and initial velocities):
=====================================================================
 Subroutine PRICEL returns:
 Original cell was already a primitive cell.
 

 Routine SETGRP: Setting up the symmetry group for a 
 hexagonal supercell.


 Subroutine GETGRP returns: Found  1 space group operations
 (whereof  1 operations were pure point group operations)
 out of a pool of 24 trial point group operations.


The dynamic configuration has the point symmetry C_1 .


Analysis of constrained symmetry for selective dynamics:
=====================================================================
 Subroutine PRICEL returns:
 Original cell was already a primitive cell.
 

 Routine SETGRP: Setting up the symmetry group for a 
 hexagonal supercell.


 Subroutine GETGRP returns: Found  1 space group operations
 (whereof  1 operations were pure point group operations)
 out of a pool of 24 trial point group operations.


The constrained configuration has the point symmetry C_1 .


Analysis of structural, dynamic, and magnetic symmetry:
=====================================================================
 Subroutine PRICEL returns:
 Original cell was already a primitive cell.
 

 Routine SETGRP: Setting up the symmetry group for a 
 hexagonal supercell.


 Subroutine GETGRP returns: Found  1 space group operations
 (whereof  1 operations were pure point group operations)
 out of a pool of 24 trial point group operations.


The magnetic configuration has the point symmetry C_1 .


 Subroutine INISYM returns: Found  1 space group operations
 (whereof  1 operations are pure point group operations),
 and found     1 'primitive' translations

 
 KPOINTS: mesh auto                               

Automatic generation of k-mesh.
Space group operators:
 irot       det(A)        alpha          n_x          n_y          n_z        tau_x        tau_y        tau_z
    1     1.000000     0.000000     1.000000     0.000000     0.000000     0.000000     0.000000     0.000000
 
 Subroutine IBZKPT returns following result:
 ===========================================
 
 Found      4 irreducible k-points:
 
 Following reciprocal coordinates:
            Coordinates               Weight
  0.000000  0.000000  0.000000      1.000000
  0.500000  0.000000  0.000000      1.000000
  0.000000  0.500000  0.000000      1.000000
  0.500000  0.500000  0.000000      1.000000
 
 Following cartesian coordinates:
            Coordinates               Weight
  0.000000  0.000000  0.000000      1.000000
  0.044553 -0.025722  0.000000      1.000000
  0.000000  0.051445  0.000000      1.000000
  0.044553  0.025722  0.000000      1.000000
 
 TETIRR: Found     12 inequivalent tetrahedra from       24
     LOOP+:  cpu time  542.0579: real time  544.1039
    4ORBIT:  cpu time    0.0000: real time    0.0000
 BZINTS: Fermi energy:  1.512480;778.000000 electrons
         Band energy:-901.651910;  BLOECHL correction: -0.215166

 total amount of memory used by VASP MPI-rank0   379509. kBytes
=======================================================================

   base      :      30000. kBytes
   nonlr-proj:      90623. kBytes
   fftplans  :      13535. kBytes
   grid      :     132462. kBytes
   one-center:       2519. kBytes
   wavefun   :     110370. kBytes
 
  
  
 General timing and accounting informations for this job:
 ========================================================
  
                  Total CPU time used (sec):     7897.230
                            User time (sec):     7833.662
                          System time (sec):       63.569
                         Elapsed time (sec):     7947.450
  
                   Maximum memory used (kb):      716160.
                   Average memory used (kb):           0.
  
                          Minor page faults:     18680949
                          Major page faults:          143
                 Voluntary context switches:         8106
