 vasp.5.4.4.18Apr17-6-g9f103f2a35 (build Oct 25 2019 11:13:22) complex          
  
 executed on             LinuxIFC date 2022.02.12  04:15:38
 running on   48 total cores
 distrk:  each k-point on   48 cores,    1 groups
 distr:  one band on NCORES_PER_BAND=   4 cores,   12 groups


--------------------------------------------------------------------------------------------------------


 INCAR:
 POTCAR:    PAW_PBE Pt 04Feb2005                  
 POTCAR:    PAW_PBE Co 02Aug2007                  
 POTCAR:    PAW_PBE Ni 02Aug2007                  
 POTCAR:    PAW_PBE H 15Jun2001                   
 POTCAR:    PAW_PBE Pt 04Feb2005                  
   VRHFIN =Pt: s1d9                                                             
   LEXCH  = PE                                                                  
   EATOM  =   729.1176 eV,   53.5886 Ry                                         
                                                                                
   TITEL  = PAW_PBE Pt 04Feb2005                                                
   LULTRA =        F    use ultrasoft PP ?                                      
   IUNSCR =        1    unscreen: 0-lin 1-nonlin 2-no                           
   RPACOR =    2.330    partial core radius                                     
   POMASS =  195.080; ZVAL   =   10.000    mass and valenz                      
   RCORE  =    2.600    outmost cutoff radius                                   
   RWIGS  =    2.750; RWIGS  =    1.455    wigner-seitz radius (au A)           
   ENMAX  =  230.283; ENMIN  =  172.712 eV                                      
   ICORE  =        3    local potential                                         
   LCOR   =        T    correct aug charges                                     
   LPAW   =        T    paw PP                                                  
   EAUG   =  358.966                                                            
   DEXC   =    0.000                                                            
   RMAX   =    2.658    core radius for proj-oper                               
   RAUG   =    1.300    factor for augmentation sphere                          
   RDEP   =    2.761    radius for radial grids                                 
   RDEPT  =    2.203    core radius for aug-charge                              
                                                                                
   Atomic configuration                                                         
   16 entries                                                                   
     n  l   j            E        occ.                                          
     1  0  0.50    -78401.1885   2.0000                                         
     2  0  0.50    -13770.7750   2.0000                                         
     2  1  1.50    -11931.0468   6.0000                                         
     3  0  0.50     -3234.7234   2.0000                                         
     3  1  1.50     -2699.2216   6.0000                                         
     3  2  2.50     -2119.5714  10.0000                                         
     4  0  0.50      -695.1528   2.0000                                         
     4  1  1.50      -519.6034   6.0000                                         
     4  2  2.50      -306.6786  10.0000                                         
     4  3  3.50       -70.1041  14.0000                                         
     5  0  0.50      -101.7747   2.0000                                         
     5  1  1.50       -55.9873   6.0000                                         
     5  2  2.50        -6.1423   9.0000                                         
     6  0  0.50        -5.6573   1.0000                                         
     6  1  1.50        -6.8029   0.0000                                         
     5  3  2.50        -1.3606   0.0000                                         
   Description                                                                  
     l       E           TYP  RCUT    TYP  RCUT                                 
     2     -6.1423404     23  2.500                                             
     2     -7.5029230     23  2.500                                             
     0     -5.6573207     23  2.500                                             
     0      0.7416693     23  2.500                                             
     1     -2.7211652     23  2.600                                             
     1     20.4087390     23  2.600                                             
     3     -1.3605826     23  2.500                                             
  local pseudopotential read in
  partial core-charges read in
  partial kinetic energy density read in
  atomic valenz-charges read in
  non local Contribution for L=           2  read in
    real space projection operators read in
  non local Contribution for L=           2  read in
    real space projection operators read in
  non local Contribution for L=           0  read in
    real space projection operators read in
  non local Contribution for L=           0  read in
    real space projection operators read in
  non local Contribution for L=           1  read in
    real space projection operators read in
  non local Contribution for L=           1  read in
    real space projection operators read in
    PAW grid and wavefunctions read in
 
   number of l-projection  operators is LMAX  =           6
   number of lm-projection operators is LMMAX =          18
 
 POTCAR:    PAW_PBE Co 02Aug2007                  
   VRHFIN =Co: d8 s1                                                            
   LEXCH  = PE                                                                  
   EATOM  =   813.3670 eV,   59.7808 Ry                                         
                                                                                
   TITEL  = PAW_PBE Co 02Aug2007                                                
   LULTRA =        F    use ultrasoft PP ?                                      
   IUNSCR =        1    unscreen: 0-lin 1-nonlin 2-no                           
   RPACOR =    2.000    partial core radius                                     
   POMASS =   58.933; ZVAL   =    9.000    mass and valenz                      
   RCORE  =    2.300    outmost cutoff radius                                   
   RWIGS  =    2.460; RWIGS  =    1.302    wigner-seitz radius (au A)           
   ENMAX  =  267.968; ENMIN  =  200.976 eV                                      
   RCLOC  =    1.203    cutoff for local pot                                    
   LCOR   =        T    correct aug charges                                     
   LPAW   =        T    paw PP                                                  
   EAUG   =  477.818                                                            
   DEXC   =    0.000                                                            
   RMAX   =    2.360    core radius for proj-oper                               
   RAUG   =    1.300    factor for augmentation sphere                          
   RDEP   =    2.393    radius for radial grids                                 
   RDEPT  =    1.864    core radius for aug-charge                              
                                                                                
   Atomic configuration                                                         
    9 entries                                                                   
     n  l   j            E        occ.                                          
     1  0  0.50     -7587.6674   2.0000                                         
     2  0  0.50      -893.6084   2.0000                                         
     2  1  1.50      -764.5805   6.0000                                         
     3  0  0.50       -97.5973   2.0000                                         
     3  1  1.50       -60.9648   6.0000                                         
     3  2  2.50        -4.2382   8.0000                                         
     4  0  0.50        -4.3746   1.0000                                         
     4  1  1.50        -4.0817   0.0000                                         
     4  3  2.50        -1.3606   0.0000                                         
   Description                                                                  
     l       E           TYP  RCUT    TYP  RCUT                                 
     2     -4.2382362     23  2.300                                             
     2     -5.5988188     23  2.300                                             
     0     -4.3745797     23  2.300                                             
     0      5.7660125     23  2.300                                             
     1     -2.7211652     23  2.300                                             
     1     16.9860234     23  2.300                                             
  local pseudopotential read in
  partial core-charges read in
  partial kinetic energy density read in
  atomic valenz-charges read in
  non local Contribution for L=           2  read in
    real space projection operators read in
  non local Contribution for L=           2  read in
    real space projection operators read in
  non local Contribution for L=           0  read in
    real space projection operators read in
  non local Contribution for L=           0  read in
    real space projection operators read in
  non local Contribution for L=           1  read in
    real space projection operators read in
  non local Contribution for L=           1  read in
    real space projection operators read in
    PAW grid and wavefunctions read in
 
   number of l-projection  operators is LMAX  =           6
   number of lm-projection operators is LMMAX =          18
 
 POTCAR:    PAW_PBE Ni 02Aug2007                  
   VRHFIN =Ni:                                                                  
   LEXCH  = PE                                                                  
   EATOM  =  1077.6739 eV,   79.2068 Ry                                         
                                                                                
   TITEL  = PAW_PBE Ni 02Aug2007                                                
   LULTRA =        F    use ultrasoft PP ?                                      
   IUNSCR =        1    unscreen: 0-lin 1-nonlin 2-no                           
   RPACOR =    2.000    partial core radius                                     
   POMASS =   58.690; ZVAL   =   10.000    mass and valenz                      
   RCORE  =    2.300    outmost cutoff radius                                   
   RWIGS  =    2.430; RWIGS  =    1.286    wigner-seitz radius (au A)           
   ENMAX  =  269.532; ENMIN  =  202.149 eV                                      
   RCLOC  =    1.201    cutoff for local pot                                    
   LCOR   =        T    correct aug charges                                     
   LPAW   =        T    paw PP                                                  
   EAUG   =  544.565                                                            
   DEXC   =    0.000                                                            
   RMAX   =    2.357    core radius for proj-oper                               
   RAUG   =    1.300    factor for augmentation sphere                          
   RDEP   =    2.390    radius for radial grids                                 
   RDEPT  =    1.838    core radius for aug-charge                              
                                                                                
   Atomic configuration                                                         
    9 entries                                                                   
     n  l   j            E        occ.                                          
     1  0  0.50     -8206.4253   2.0000                                         
     2  0  0.50      -976.1748   2.0000                                         
     2  1  1.50      -839.0571   6.0000                                         
     3  0  0.50      -105.9991   2.0000                                         
     3  1  1.50       -66.4603   6.0000                                         
     3  2  2.50        -4.6458   9.0000                                         
     4  0  0.50        -4.4926   1.0000                                         
     4  1  1.50        -4.0817   0.0000                                         
     4  3  2.50        -1.3606   0.0000                                         
   Description                                                                  
     l       E           TYP  RCUT    TYP  RCUT                                 
     2     -4.6457903     23  2.300                                             
     2     -6.0063729     23  2.300                                             
     0     -4.4925590     23  2.300                                             
     0      5.0102601     23  2.300                                             
     1     -2.7211652     23  2.300                                             
     1     16.5183231     23  2.300                                             
  local pseudopotential read in
  partial core-charges read in
  partial kinetic energy density read in
  atomic valenz-charges read in
  non local Contribution for L=           2  read in
    real space projection operators read in
  non local Contribution for L=           2  read in
    real space projection operators read in
  non local Contribution for L=           0  read in
    real space projection operators read in
  non local Contribution for L=           0  read in
    real space projection operators read in
  non local Contribution for L=           1  read in
    real space projection operators read in
  non local Contribution for L=           1  read in
    real space projection operators read in
    PAW grid and wavefunctions read in
 
   number of l-projection  operators is LMAX  =           6
   number of lm-projection operators is LMMAX =          18
 
 POTCAR:    PAW_PBE H 15Jun2001                   
   VRHFIN =H: ultrasoft test                                                    
   LEXCH  = PE                                                                  
   EATOM  =    12.4884 eV,    0.9179 Ry                                         
                                                                                
   TITEL  = PAW_PBE H 15Jun2001                                                 
   LULTRA =        F    use ultrasoft PP ?                                      
   IUNSCR =        0    unscreen: 0-lin 1-nonlin 2-no                           
   RPACOR =    0.000    partial core radius                                     
   POMASS =    1.000; ZVAL   =    1.000    mass and valenz                      
   RCORE  =    1.100    outmost cutoff radius                                   
   RWIGS  =    0.700; RWIGS  =    0.370    wigner-seitz radius (au A)           
   ENMAX  =  250.000; ENMIN  =  200.000 eV                                      
   RCLOC  =    0.701    cutoff for local pot                                    
   LCOR   =        T    correct aug charges                                     
   LPAW   =        T    paw PP                                                  
   EAUG   =  400.000                                                            
   RMAX   =    1.123    core radius for proj-oper                               
   RAUG   =    1.200    factor for augmentation sphere                          
   RDEP   =    1.112    radius for radial grids                                 
   RDEPT  =    0.926    core radius for aug-charge                              
                                                                                
   Atomic configuration                                                         
    2 entries                                                                   
     n  l   j            E        occ.                                          
     1  0  0.50        -6.4927   1.0000                                         
     2  1  0.50        -3.4015   0.0000                                         
   Description                                                                  
     l       E           TYP  RCUT    TYP  RCUT                                 
     0     -6.4927494     23  1.100                                             
     0      6.8029130     23  1.100                                             
     1     -4.0817478     23  1.100                                             
  local pseudopotential read in
  atomic valenz-charges read in
  non local Contribution for L=           0  read in
    real space projection operators read in
  non local Contribution for L=           0  read in
    real space projection operators read in
  non local Contribution for L=           1  read in
    real space projection operators read in
    PAW grid and wavefunctions read in
 
   number of l-projection  operators is LMAX  =           3
   number of lm-projection operators is LMMAX =           5
 
 Optimization of the real space projectors (new method)

 maximal supplied QI-value         = 14.36
 optimisation between [QCUT,QGAM] = [ 11.92, 23.98] = [ 39.79,161.09] Ry 
 Optimized for a Real-space Cutoff    1.49 Angstroem

   l    n(q)    QCUT    max X(q) W(low)/X(q) W(high)/X(q)  e(spline) 
   2     10    11.920    66.195    0.79E-04    0.18E-03    0.24E-06
   2     10    11.920    64.643    0.81E-04    0.19E-03    0.24E-06
   0     11    11.920    95.520    0.28E-04    0.54E-04    0.18E-06
   0     11    11.920    63.403    0.27E-04    0.52E-04    0.17E-06
   1     10    11.920    19.961    0.18E-04    0.11E-03    0.23E-06
   1     10    11.920    13.289    0.25E-04    0.87E-04    0.19E-06
 Optimization of the real space projectors (new method)

 maximal supplied QI-value         = 16.25
 optimisation between [QCUT,QGAM] = [ 11.86, 23.89] = [ 39.41,159.82] Ry 
 Optimized for a Real-space Cutoff    1.33 Angstroem

   l    n(q)    QCUT    max X(q) W(low)/X(q) W(high)/X(q)  e(spline) 
   2      9    11.864    65.824    0.22E-03    0.53E-03    0.26E-06
   2      9    11.864    61.429    0.22E-03    0.53E-03    0.26E-06
   0      9    11.864    56.174    0.21E-03    0.32E-04    0.15E-06
   0      9    11.864    31.263    0.19E-03    0.30E-04    0.14E-06
   1      9    11.864    19.828    0.63E-04    0.30E-03    0.16E-06
   1      9    11.864    15.139    0.49E-04    0.25E-03    0.13E-06
 Optimization of the real space projectors (new method)

 maximal supplied QI-value         = 16.25
 optimisation between [QCUT,QGAM] = [ 11.86, 23.89] = [ 39.41,159.82] Ry 
 Optimized for a Real-space Cutoff    1.33 Angstroem

   l    n(q)    QCUT    max X(q) W(low)/X(q) W(high)/X(q)  e(spline) 
   2      9    11.864    60.317    0.21E-03    0.51E-03    0.25E-06
   2      9    11.864    55.921    0.21E-03    0.51E-03    0.26E-06
   0      9    11.864    51.690    0.22E-03    0.30E-04    0.17E-06
   0      9    11.864    30.015    0.20E-03    0.28E-04    0.15E-06
   1      9    11.864    18.849    0.76E-04    0.33E-03    0.17E-06
   1      9    11.864    14.624    0.60E-04    0.28E-03    0.15E-06
 Optimization of the real space projectors (new method)

 maximal supplied QI-value         = 34.20
 optimisation between [QCUT,QGAM] = [ 11.97, 23.94] = [ 40.13,160.53] Ry 
 Optimized for a Real-space Cutoff    1.18 Angstroem

   l    n(q)    QCUT    max X(q) W(low)/X(q) W(high)/X(q)  e(spline) 
   0      8    11.971    19.460    0.15E-03    0.31E-03    0.25E-06
   0      8    11.971    12.209    0.13E-03    0.29E-03    0.25E-06
   1      8    11.971     4.655    0.22E-03    0.24E-03    0.21E-06
  PAW_PBE Pt 04Feb2005                  :
 energy of atom  1       EATOM= -729.1176
 kinetic energy error for atom=    0.0021 (will be added to EATOM!!)
  PAW_PBE Co 02Aug2007                  :
 energy of atom  2       EATOM= -813.3670
 kinetic energy error for atom=    0.0026 (will be added to EATOM!!)
  PAW_PBE Ni 02Aug2007                  :
 energy of atom  3       EATOM=-1077.6739
 kinetic energy error for atom=    0.0027 (will be added to EATOM!!)
  PAW_PBE H 15Jun2001                   :
 energy of atom  4       EATOM=  -12.4884
 kinetic energy error for atom=    0.0008 (will be added to EATOM!!)
 
 
 POSCAR: 11.26                                   
  positions in direct lattice
  velocities in cartesian coordinates
 exchange correlation table for  LEXCH =        8
   RHO(1)=    0.500       N(1)  =     2000
   RHO(2)=  100.500       N(2)  =     4000
 


--------------------------------------------------------------------------------------------------------


 ion  position               nearest neighbor table
   1  0.789  0.879  0.301-  49 2.47  59 2.56  60 2.64  28 2.69   4 2.73   2 2.74  29 2.75  19 2.80
                            11 2.85  12 2.85  61 2.89  33 2.94
   2  0.033  0.879  0.293-  79 2.49  77 2.57  60 2.72   1 2.74  28 2.76   4 2.81   6 2.89  30 2.90
                            16 2.94  33 2.99  22 3.17  52 3.23
   3  0.276  0.362  0.311-  64 2.54  68 2.62  31 2.63  39 2.67  33 2.70   5 2.71  30 2.76  13 2.76
                            25 2.78  19 2.81  43 2.82  18 2.87
   4  0.875  0.964  0.400-  60 2.71   9 2.72  17 2.72   1 2.73   6 2.79  16 2.79  12 2.81   2 2.81
                            11 2.83
   5  0.113  0.467  0.410-  81 1.56  39 2.60  33 2.70   3 2.71  12 2.72  16 2.73  10 2.76   7 2.77
                            25 2.85  13 2.98
   6  0.125  0.959  0.400-  52 2.62  22 2.70   4 2.79   8 2.83  16 2.86   9 2.88   2 2.89  10 2.90
                            14 2.91
   7  0.873  0.455  0.412-  81 1.67  75 2.54  39 2.58   5 2.77  10 2.79  27 2.80   9 2.80  29 2.82
                            15 2.84  12 2.93
   8  0.377  0.956  0.415-  43 2.53  52 2.56  61 2.68  13 2.75  27 2.80  11 2.81   6 2.83  10 2.84
                            14 2.90
   9  0.864  0.211  0.396-  75 2.60  22 2.67   4 2.72  17 2.73  15 2.74  60 2.77   7 2.80   6 2.88
                            10 3.01
  10  0.129  0.214  0.413-  22 2.64  43 2.69  13 2.72   5 2.76  39 2.77   7 2.79   8 2.84   6 2.90
                             9 3.01
  11  0.629  0.952  0.410-  61 2.65  12 2.71  19 2.73  27 2.76  17 2.79  13 2.81   8 2.81   4 2.83
                             1 2.85
  12  0.875  0.714  0.408-  81 2.00  29 2.66  16 2.68  11 2.71   5 2.72   4 2.81  33 2.81  27 2.83
                             1 2.85   7 2.93
  13  0.378  0.200  0.413-  43 2.70  10 2.72  19 2.73   8 2.75   3 2.76  25 2.78  17 2.80  11 2.81
                             5 2.98
  14  0.381  0.696  0.403-  52 2.55  44 2.56  15 2.69  25 2.81  27 2.84  30 2.88  16 2.90   8 2.90
                             6 2.91
  15  0.620  0.456  0.399-  75 2.53  44 2.61  14 2.69   9 2.74  25 2.79  17 2.83   7 2.84  18 2.85
                            27 2.87
  16  0.116  0.709  0.404-  12 2.68  30 2.69   5 2.73  33 2.76   4 2.79   6 2.86  14 2.90  25 2.92
                             2 2.94
  17  0.627  0.201  0.404-  18 2.69   4 2.72   9 2.73  19 2.79  11 2.79  25 2.79  13 2.80  60 2.82
                            15 2.83
  18  0.538  0.348  0.301-  67 2.46  26 2.59  68 2.67  17 2.69  60 2.69  19 2.70  25 2.82  15 2.85
                             3 2.87  30 2.95  75 3.20
  19  0.527  0.113  0.308-  59 2.47  80 2.51  68 2.57  43 2.61  61 2.63  18 2.70  13 2.73  11 2.73
                            17 2.79   1 2.80   3 2.81  60 2.92
  20  0.546  0.126  0.067-  48 2.50  57 2.52  47 2.52  62 2.53  37 2.60  56 2.66  34 2.70  63 2.89

  21  0.118  0.408  0.119-  47 2.44  40 2.48  36 2.49  69 2.60  57 2.64  42 2.67  64 2.70  70 2.72
                            31 2.74  50 3.30
  22  0.055  0.148  0.310-  77 2.43  65 2.51  55 2.51  43 2.57  39 2.62  10 2.64   9 2.67   6 2.70
                            75 2.90  31 3.04  52 3.05   2 3.17  60 3.23
  23  0.009  0.102  0.049-  40 2.49  62 2.55  70 2.57  41 2.59  45 2.66  76 2.69  24 2.70  35 2.74
                            53 3.07
  24  0.138  0.927  0.142-  79 2.46  35 2.50  77 2.54  58 2.54  53 2.56  55 2.59  38 2.59  73 2.64
                            70 2.65  23 2.70  66 2.83
  25  0.376  0.448  0.407-  30 2.76  13 2.78   3 2.78  15 2.79  17 2.79  14 2.81  18 2.82   5 2.85
                            16 2.92
  26  0.480  0.554  0.230-  74 2.50  73 2.52  44 2.52  51 2.59  18 2.59  79 2.60  78 2.62  30 2.63
                            32 2.66  67 2.70
  27  0.627  0.707  0.413-  44 2.49  61 2.70  11 2.76   7 2.80   8 2.80  29 2.80  12 2.83  14 2.84
                            15 2.87
  28  0.953  0.759  0.204-  58 2.53  50 2.61  66 2.61  42 2.62  36 2.63  33 2.66   1 2.69   2 2.76
                            64 2.80  49 2.88  34 3.22  59 3.23  35 3.30
  29  0.797  0.631  0.311-  39 2.59  32 2.61  49 2.62  75 2.62  42 2.63  33 2.64  44 2.65  12 2.66
                             1 2.75  27 2.80   7 2.82  61 2.84
  30  0.274  0.608  0.304-  79 2.43  33 2.60  26 2.63  64 2.65  16 2.69  25 2.76   3 2.76  14 2.88
                             2 2.90  18 2.95  52 3.26
  31  0.187  0.262  0.225-  70 2.52  57 2.57  65 2.58  55 2.59  39 2.62   3 2.63  43 2.63  42 2.72
                            80 2.73  21 2.74  68 2.76  64 2.79  22 3.04
  32  0.711  0.561  0.214-  69 2.53  51 2.56  54 2.61  29 2.61  49 2.62  26 2.66  65 2.66  50 2.66
                            42 2.68  75 2.69  78 2.71  67 2.73  44 2.73
  33  0.042  0.609  0.305-  42 2.47  64 2.50  39 2.51  30 2.60  29 2.64  28 2.66   5 2.70   3 2.70
                            16 2.76  12 2.81   1 2.94   2 2.99
  34  0.782  0.884  0.080-  48 2.38  35 2.38  50 2.53  66 2.54  36 2.55  62 2.67  20 2.70  28 3.22

  35  0.002  0.866  0.072-  36 2.37  34 2.38  66 2.43  24 2.50  58 2.60  23 2.74  62 2.75  28 3.30

  36  0.006  0.657  0.094-  50 2.33  35 2.37  58 2.38  21 2.49  34 2.55  28 2.63
  37  0.628  0.234  0.150-  41 2.41  56 2.42  59 2.43  67 2.44  62 2.45  68 2.50  51 2.50  74 2.51
                            20 2.60  66 2.60
  38  0.361  0.942  0.135-  53 2.40  45 2.41  63 2.42  57 2.43  48 2.45  55 2.45  54 2.46  78 2.48
                            80 2.54  73 2.59  24 2.59  70 2.83
  39  0.024  0.396  0.316-  42 2.46  33 2.51   7 2.58  75 2.58  65 2.58  29 2.59   5 2.60  31 2.62
                            22 2.62   3 2.67  10 2.77
  40  0.013  0.321  0.044-  69 2.32  76 2.45  21 2.48  23 2.49  70 2.51  45 2.63  71 2.93
  41  0.844  0.228  0.139-  67 2.35  76 2.37  77 2.38  37 2.41  62 2.44  51 2.48  69 2.48  66 2.49
                            65 2.58  23 2.59  70 2.61
  42  0.967  0.520  0.219-  39 2.46  33 2.47  50 2.48  64 2.48  65 2.50  28 2.62  29 2.63  69 2.65
                            21 2.67  32 2.68  31 2.72
  43  0.303  0.099  0.319-  52 2.45  80 2.46  55 2.51   8 2.53  61 2.56  22 2.57  19 2.61  31 2.63
                            10 2.69  13 2.70   3 2.82
  44  0.553  0.648  0.317-  61 2.45  78 2.47  27 2.49  26 2.52  14 2.56  52 2.57  15 2.61  29 2.65
                            75 2.73  32 2.73
  45  0.251  0.091  0.049-  38 2.41  57 2.45  53 2.48  70 2.50  63 2.54  40 2.63  23 2.66
  46  0.529  0.612  0.047-  54 2.37  73 2.44  51 2.45  71 2.47  72 2.53  53 2.63  56 2.72  76 2.87
                            63 3.07
  47  0.334  0.361  0.072-  74 2.29  56 2.44  21 2.44  57 2.50  72 2.50  20 2.52
  48  0.581  0.937  0.137-  49 2.29  63 2.35  34 2.38  54 2.38  80 2.38  38 2.45  59 2.46  20 2.50
                            57 2.63  50 2.74
  49  0.677  0.809  0.223-  48 2.29  50 2.34  61 2.46  78 2.47   1 2.47  59 2.54  80 2.57  29 2.62
                            32 2.62  54 2.79  28 2.88
  50  0.810  0.679  0.140-  36 2.33  49 2.34  54 2.38  71 2.39  42 2.48  69 2.52  34 2.53  28 2.61
                            32 2.66  48 2.74  21 3.30
  51  0.629  0.454  0.133-  56 2.40  76 2.44  46 2.45  41 2.48  37 2.50  67 2.53  32 2.56  26 2.59
                            74 2.59  69 2.66  73 2.78  54 2.83
  52  0.320  0.872  0.317-  55 2.38  79 2.41  61 2.43  43 2.45  78 2.46  14 2.55   8 2.56  44 2.57
                             6 2.62  22 3.05   2 3.23  30 3.26
  53  0.299  0.850  0.050-  73 2.39  38 2.40  45 2.48  24 2.56  63 2.58  46 2.63  72 2.82  23 3.07

  54  0.581  0.726  0.124-  46 2.37  50 2.38  48 2.38  73 2.40  71 2.42  63 2.42  38 2.46  78 2.50
                            32 2.61  49 2.79  51 2.83
  55  0.229  0.013  0.230-  52 2.38  80 2.44  79 2.44  38 2.45  43 2.51  22 2.51  78 2.56  24 2.59
                            31 2.59  77 2.61  70 2.62
  56  0.549  0.361  0.055-  51 2.40  37 2.42  47 2.44  74 2.52  76 2.56  62 2.60  72 2.61  20 2.66
                            46 2.72
  57  0.344  0.167  0.132-  38 2.43  45 2.45  80 2.47  47 2.50  20 2.52  68 2.55  31 2.57  48 2.63
                            21 2.64  70 2.71
  58  0.176  0.684  0.148-  36 2.38  72 2.39  64 2.41  73 2.43  28 2.53  79 2.53  24 2.54  74 2.56
                            35 2.60
  59  0.661  0.042  0.213-  66 2.38  37 2.43  48 2.46  19 2.47  49 2.54  68 2.55   1 2.56  80 2.59
                            60 2.68  28 3.23
  60  0.785  0.116  0.297-  67 2.47  77 2.53   1 2.64  59 2.68  18 2.69   4 2.71   2 2.72   9 2.77
                            17 2.82  19 2.92  22 3.23
  61  0.536  0.875  0.316-  52 2.43  44 2.45  49 2.46  78 2.48  80 2.51  43 2.56  19 2.63  11 2.65
                             8 2.68  27 2.70  29 2.84   1 2.89
  62  0.773  0.123  0.060-  66 2.43  41 2.44  37 2.45  20 2.53  23 2.55  56 2.60  76 2.63  34 2.67
                            35 2.75
  63  0.500  0.898  0.045-  48 2.35  54 2.42  38 2.42  45 2.54  53 2.58  20 2.89  46 3.07
  64  0.196  0.505  0.214-  58 2.41  42 2.48  33 2.50  74 2.52   3 2.54  30 2.65  68 2.66  21 2.70
                            31 2.79  28 2.80
  65  0.935  0.315  0.226-  75 2.39  69 2.40  67 2.41  77 2.43  42 2.50  22 2.51  70 2.53  41 2.58
                            31 2.58  39 2.58  32 2.66
  66  0.858  0.002  0.156-  77 2.38  59 2.38  62 2.43  35 2.43  41 2.49  34 2.54  37 2.60  28 2.61
                            24 2.83
  67  0.721  0.315  0.230-  41 2.35  75 2.39  65 2.41  37 2.44  18 2.46  60 2.47  51 2.53  26 2.70
                            77 2.70  32 2.73
  68  0.430  0.266  0.214-  74 2.43  37 2.50  57 2.55  59 2.55  19 2.57   3 2.62  80 2.64  64 2.66
                            18 2.67  31 2.76
  69  0.877  0.430  0.129-  40 2.32  71 2.34  65 2.40  41 2.48  76 2.49  50 2.52  32 2.53  21 2.60
                            42 2.65  70 2.65  51 2.66
  70  0.096  0.181  0.140-  45 2.50  40 2.51  31 2.52  65 2.53  23 2.57  41 2.61  55 2.62  24 2.65
                            69 2.65  57 2.71  21 2.72  77 2.83  38 2.83
  71  0.760  0.589  0.052-  69 2.34  50 2.39  54 2.42  46 2.47  76 2.56  40 2.93
  72  0.315  0.592  0.059-  58 2.39  74 2.39  73 2.42  47 2.50  46 2.53  56 2.61  53 2.82
  73  0.382  0.701  0.136-  53 2.39  54 2.40  72 2.42  58 2.43  46 2.44  79 2.49  26 2.52  38 2.59
                            78 2.60  24 2.64  74 2.69  51 2.78
  74  0.400  0.454  0.149-  47 2.29  72 2.39  68 2.43  26 2.50  37 2.51  56 2.52  64 2.52  58 2.56
                            51 2.59  73 2.69
  75  0.792  0.401  0.314-  67 2.39  65 2.39  15 2.53   7 2.54  39 2.58   9 2.60  29 2.62  32 2.69
                            44 2.73  22 2.90  18 3.20
  76  0.781  0.351  0.046-  41 2.37  51 2.44  40 2.45  69 2.49  71 2.56  56 2.56  62 2.63  23 2.69
                            46 2.87
  77  0.970  0.084  0.222-  41 2.38  66 2.38  65 2.43  22 2.43  60 2.53  24 2.54   2 2.57  55 2.61
                            67 2.70  70 2.83
  78  0.465  0.795  0.225-  52 2.46  49 2.47  44 2.47  61 2.48  79 2.48  38 2.48  80 2.48  54 2.50
                            55 2.56  73 2.60  26 2.62  32 2.71
  79  0.249  0.786  0.233-  52 2.41  30 2.43  55 2.44  24 2.46  78 2.48  73 2.49   2 2.49  58 2.53
                            26 2.60
  80  0.439  0.028  0.225-  48 2.38  55 2.44  43 2.46  57 2.47  78 2.48  19 2.51  61 2.51  38 2.54
                            49 2.57  59 2.59  68 2.64  31 2.73
  81  0.968  0.521  0.438-   5 1.56   7 1.67  12 2.00
 
  LATTYP: Found a hexagonal cell.
 ALAT       =    11.2227001190
 C/A-ratio  =     1.9603125600
  
  Lattice vectors:
  
 A1 = (   5.6113500595,  -9.7191434021,   0.0000000000)
 A2 = ( -11.2227001190,   0.0000000000,   0.0000000000)
 A3 = (   0.0000000000,   0.0000000000, -22.0000000000)


Analysis of symmetry for initial positions (statically):
=====================================================================
 Subroutine PRICEL returns:
 Original cell was already a primitive cell.
 

 Routine SETGRP: Setting up the symmetry group for a 
 hexagonal supercell.


 Subroutine GETGRP returns: Found  1 space group operations
 (whereof  1 operations were pure point group operations)
 out of a pool of 24 trial point group operations.


The static configuration has the point symmetry C_1 .


Analysis of symmetry for dynamics (positions and initial velocities):
=====================================================================
 Subroutine PRICEL returns:
 Original cell was already a primitive cell.
 

 Routine SETGRP: Setting up the symmetry group for a 
 hexagonal supercell.


 Subroutine GETGRP returns: Found  1 space group operations
 (whereof  1 operations were pure point group operations)
 out of a pool of 24 trial point group operations.


The dynamic configuration has the point symmetry C_1 .


Analysis of constrained symmetry for selective dynamics:
=====================================================================
 Subroutine PRICEL returns:
 Original cell was already a primitive cell.
 

 Routine SETGRP: Setting up the symmetry group for a 
 hexagonal supercell.


 Subroutine GETGRP returns: Found  1 space group operations
 (whereof  1 operations were pure point group operations)
 out of a pool of 24 trial point group operations.


The constrained configuration has the point symmetry C_1 .


Analysis of structural, dynamic, and magnetic symmetry:
=====================================================================
 Subroutine PRICEL returns:
 Original cell was already a primitive cell.
 

 Routine SETGRP: Setting up the symmetry group for a 
 hexagonal supercell.


 Subroutine GETGRP returns: Found  1 space group operations
 (whereof  1 operations were pure point group operations)
 out of a pool of 24 trial point group operations.


The magnetic configuration has the point symmetry C_1 .


 Subroutine INISYM returns: Found  1 space group operations
 (whereof  1 operations are pure point group operations),
 and found     1 'primitive' translations

 
 
 KPOINTS: mesh auto                               

Automatic generation of k-mesh.
Space group operators:
 irot       det(A)        alpha          n_x          n_y          n_z        tau_x        tau_y        tau_z
    1     1.000000     0.000000     1.000000     0.000000     0.000000     0.000000     0.000000     0.000000
 
 Subroutine IBZKPT returns following result:
 ===========================================
 
 Found      4 irreducible k-points:
 
 Following reciprocal coordinates:
            Coordinates               Weight
  0.000000  0.000000  0.000000      1.000000
  0.500000  0.000000  0.000000      1.000000
  0.000000  0.500000  0.000000      1.000000
  0.500000  0.500000  0.000000      1.000000
 
 Following cartesian coordinates:
            Coordinates               Weight
  0.000000  0.000000  0.000000      1.000000
  0.044553 -0.025722  0.000000      1.000000
  0.000000  0.051445  0.000000      1.000000
  0.044553  0.025722  0.000000      1.000000
 


--------------------------------------------------------------------------------------------------------




 Dimension of arrays:
   k-points           NKPTS =      4   k-points in BZ     NKDIM =      4   number of bands    NBANDS=    576
   number of dos      NEDOS =    301   number of ions     NIONS =     81
   non local maximal  LDIM  =      6   non local SUM 2l+1 LMDIM =     18
   total plane-waves  NPLWV = ******
   max r-space proj   IRMAX =   7929   max aug-charges    IRDMAX=  34542
   dimension x,y,z NGX =    90 NGY =   90 NGZ =  168
   dimension x,y,z NGXF=   180 NGYF=  180 NGZF=  336
   support grid    NGXF=   180 NGYF=  180 NGZF=  336
   ions per type =              32  23  25   1
   NGX,Y,Z   is equivalent  to a cutoff of  13.33, 13.33, 12.70 a.u.
   NGXF,Y,Z  is equivalent  to a cutoff of  26.66, 26.66, 25.39 a.u.

 SYSTEM =  Pt111                                   
 POSCAR =  11.26                                   

 Startparameter for this run:
   NWRITE =      2    write-flag & timer
   PREC   = accura    normal or accurate (medium, high low for compatibility)
   ISTART =      0    job   : 0-new  1-cont  2-samecut
   ICHARG =      2    charge: 1-file 2-atom 10-const
   ISPIN  =      2    spin polarized calculation?
   LNONCOLLINEAR =      F non collinear calculations
   LSORBIT =      F    spin-orbit coupling
   INIWAV =      1    electr: 0-lowe 1-rand  2-diag
   LASPH  =      F    aspherical Exc in radial PAW
   METAGGA=      F    non-selfconsistent MetaGGA calc.

 Electronic Relaxation 1
   ENCUT  =  550.0 eV  40.42 Ry    6.36 a.u.  21.46 21.46 42.07*2*pi/ulx,y,z
   ENINI  =  550.0     initial cutoff
   ENAUG  =  544.6 eV  augmentation charge cutoff
   NELM   =    200;   NELMIN=  2; NELMDL= -5     # of ELM steps 
   EDIFF  = 0.1E-04   stopping-criterion for ELM
   LREAL  =      T    real-space projection
   NLSPLINE    = F    spline interpolate recip. space projectors
   LCOMPAT=      F    compatible to vasp.4.4
   GGA_COMPAT  = T    GGA compatible to vasp.4.4-vasp.4.6
   LMAXPAW     = -100 max onsite density
   LMAXMIX     =    2 max onsite mixed and CHGCAR
   VOSKOWN=      0    Vosko Wilk Nusair interpolation
   ROPT   =   -0.00025  -0.00025  -0.00025  -0.00025
 Ionic relaxation
   EDIFFG = -.5E-01   stopping-criterion for IOM
   NSW    =    300    number of steps for IOM
   NBLOCK =      1;   KBLOCK =    300    inner block; outer block 
   IBRION =      2    ionic relax: 0-MD 1-quasi-New 2-CG
   NFREE  =      1    steps in history (QN), initial steepest desc. (CG)
   ISIF   =      2    stress and relaxation
   IWAVPR =     11    prediction:  0-non 1-charg 2-wave 3-comb
   ISYM   =      2    0-nonsym 1-usesym 2-fastsym
   LCORR  =      T    Harris-Foulkes like correction to forces

   POTIM  = 0.5000    time-step for ionic-motion
   TEIN   =    0.0    initial temperature
   TEBEG  =    0.0;   TEEND  =   0.0 temperature during run
   SMASS  =  -3.00    Nose mass-parameter (am)
   estimated Nose-frequenzy (Omega)   =  0.10E-29 period in steps =****** mass=  -0.288E-26a.u.
   SCALEE = 1.0000    scale energy and forces
   NPACO  =    256;   APACO  = 16.0  distance and # of slots for P.C.
   PSTRESS=    0.0 pullay stress

  Mass of Ions in am
   POMASS = 195.08 58.93 58.69  1.00
  Ionic Valenz
   ZVAL   =  10.00  9.00 10.00  1.00
  Atomic Wigner-Seitz radii
   RWIGS  =  -1.00 -1.00 -1.00 -1.00
  virtual crystal weights 
   VCA    =   1.00  1.00  1.00  1.00
   NELECT =     778.0000    total number of electrons
   NUPDOWN=      -1.0000    fix difference up-down

 DOS related values:
   EMIN   =  10.00;   EMAX   =-10.00  energy-range for DOS
   EFERMI =   0.00
   ISMEAR =     1;   SIGMA  =   0.10  broadening in eV -4-tet -1-fermi 0-gaus

 Electronic relaxation 2 (details)
   IALGO  =     68    algorithm
   LDIAG  =      T    sub-space diagonalisation (order eigenvalues)
   LSUBROT=      F    optimize rotation matrix (better conditioning)
   TURBO    =      0    0=normal 1=particle mesh
   IRESTART =      0    0=no restart 2=restart with 2 vectors
   NREBOOT  =      0    no. of reboots
   NMIN     =      0    reboot dimension
   EREF     =   0.00    reference energy to select bands
   IMIX   =      4    mixing-type and parameters
     AMIX     =   0.40;   BMIX     =  1.00
     AMIX_MAG =   1.60;   BMIX_MAG =  1.00
     AMIN     =   0.10
     WC   =   100.;   INIMIX=   1;  MIXPRE=   1;  MAXMIX= -45

 Intra band minimization:
   WEIMIN = 0.0010     energy-eigenvalue tresh-hold
   EBREAK =  0.43E-08  absolut break condition
   DEPER  =   0.30     relativ break condition  

   TIME   =   0.40     timestep for ELM

  volume/ion in A,a.u.               =      29.63       199.92
  Fermi-wavevector in a.u.,A,eV,Ry     =   1.124653  2.125287 17.209264  1.264845
  Thomas-Fermi vector in A             =   2.261326
 
 Write flags
   LWAVE        =      F    write WAVECAR
   LDOWNSAMPLE  =      F    k-point downsampling of WAVECAR
   LCHARG       =      F    write CHGCAR
   LVTOT        =      F    write LOCPOT, total local potential
   LVHAR        =      F    write LOCPOT, Hartree potential only
   LELF         =      F    write electronic localiz. function (ELF)
   LORBIT       =      0    0 simple, 1 ext, 2 COOP (PROOUT), +10 PAW based schemes


 Dipole corrections
   LMONO  =      F    monopole corrections only (constant potential shift)
   LDIPOL =      F    correct potential (dipole corrections)
   IDIPOL =      0    1-x, 2-y, 3-z, 4-all directions 
   EPSILON=  1.0000000 bulk dielectric constant

 Exchange correlation treatment:
   GGA     =    --    GGA type
   LEXCH   =     8    internal setting for exchange type
   VOSKOWN=      0    Vosko Wilk Nusair interpolation
   LHFCALC =     F    Hartree Fock is set to
   LHFONE  =     F    Hartree Fock one center treatment
   AEXX    =    0.0000 exact exchange contribution

 Linear response parameters
   LEPSILON=     F    determine dielectric tensor
   LRPA    =     F    only Hartree local field effects (RPA)
   LNABLA  =     F    use nabla operator in PAW spheres
   LVEL    =     F    velocity operator in full k-point grid
   LINTERFAST=   F  fast interpolation
   KINTER  =     0    interpolate to denser k-point grid
   CSHIFT  =0.1000    complex shift for real part using Kramers Kronig
   OMEGAMAX=  -1.0    maximum frequency
   DEG_THRESHOLD= 0.2000000E-02 threshold for treating states as degnerate
   RTIME   =   -0.100 relaxation time in fs
  (WPLASMAI=    0.000 imaginary part of plasma frequency in eV, 0.658/RTIME)
   DFIELD  = 0.0000000 0.0000000 0.0000000 field for delta impulse in time
 
 Orbital magnetization related:
   ORBITALMAG=     F  switch on orbital magnetization
   LCHIMAG   =     F  perturbation theory with respect to B field
   DQ        =  0.001000  dq finite difference perturbation B field
   LLRAUG    =     F  two centre corrections for induced B field



--------------------------------------------------------------------------------------------------------


 conjugate gradient relaxation of ions
   using selective dynamics as specified on POSCAR
 charge density and potential will be updated during run
 spin polarized calculation
 RMM-DIIS sequential band-by-band and
  variant of blocked Davidson during initial phase
 perform sub-space diagonalisation
    before iterative eigenvector-optimisation
 modified Broyden-mixing scheme, WC =      100.0
 initial mixing is a Kerker type mixing with AMIX =  0.4000 and BMIX =      1.0000
 Hartree-type preconditioning will be used
 using additional bands          187
 real space projection scheme for non local part
 use partial core corrections
 calculate Harris-corrections to forces 
   (improved forces if not selfconsistent)
 use gradient corrections 
 use of overlap-Matrix (Vanderbilt PP)
 Methfessel and Paxton  Order N= 1 SIGMA  =   0.10


--------------------------------------------------------------------------------------------------------


  energy-cutoff  :      550.00
  volume of cell :     2399.65
      direct lattice vectors                 reciprocal lattice vectors
    11.222700119  0.000000000  0.000000000     0.089105116 -0.051444863  0.000000000
     5.611350060  9.719143402  0.000000000     0.000000000  0.102889726  0.000000000
     0.000000000  0.000000000 22.000000000     0.000000000  0.000000000  0.045454545

  length of vectors
    11.222700119 11.222700119 22.000000000     0.102889726  0.102889726  0.045454545


 
 k-points in units of 2pi/SCALE and weight: mesh auto                               
   0.00000000  0.00000000  0.00000000       0.250
   0.04455256 -0.02572243  0.00000000       0.250
   0.00000000  0.05144486  0.00000000       0.250
   0.04455256  0.02572243  0.00000000       0.250
 
 k-points in reciprocal lattice and weights: mesh auto                               
   0.00000000  0.00000000  0.00000000       0.250
   0.50000000  0.00000000  0.00000000       0.250
   0.00000000  0.50000000  0.00000000       0.250
   0.50000000  0.50000000  0.00000000       0.250
 
 position of ions in fractional coordinates (direct lattice) 
   0.78925998  0.87878802  0.30121222
   0.03270259  0.87918048  0.29281978
   0.27595481  0.36227641  0.31085980
   0.87452803  0.96417189  0.39986541
   0.11347695  0.46739997  0.41031125
   0.12514630  0.95929033  0.39950627
   0.87301284  0.45480225  0.41217167
   0.37701318  0.95585584  0.41523770
   0.86441231  0.21135176  0.39649291
   0.12938104  0.21430742  0.41300922
   0.62945289  0.95163036  0.40962071
   0.87531965  0.71431373  0.40848710
   0.37811308  0.20035718  0.41347329
   0.38084327  0.69648099  0.40256170
   0.62040281  0.45628506  0.39873021
   0.11607802  0.70916439  0.40358339
   0.62681720  0.20137626  0.40429930
   0.53828593  0.34754319  0.30086371
   0.52741195  0.11320966  0.30844004
   0.54569241  0.12647739  0.06683304
   0.11791659  0.40792499  0.11908862
   0.05457374  0.14826096  0.31034432
   0.00892895  0.10176852  0.04917651
   0.13783207  0.92691145  0.14197368
   0.37604756  0.44835740  0.40652188
   0.47979716  0.55399880  0.22971747
   0.62713798  0.70737237  0.41347945
   0.95252345  0.75898977  0.20420405
   0.79731901  0.63088403  0.31069021
   0.27421233  0.60849866  0.30376107
   0.18749030  0.26198206  0.22539890
   0.71089206  0.56100734  0.21410215
   0.04247202  0.60866576  0.30471865
   0.78196837  0.88367072  0.08012597
   0.00167860  0.86570870  0.07172203
   0.00649475  0.65686199  0.09367822
   0.62789021  0.23379040  0.14972974
   0.36050112  0.94235243  0.13470415
   0.02367156  0.39570538  0.31624423
   0.01296097  0.32139498  0.04442433
   0.84423970  0.22761319  0.13891977
   0.96744603  0.52048649  0.21885007
   0.30318925  0.09874004  0.31911861
   0.55336689  0.64796514  0.31680171
   0.25085454  0.09128101  0.04878728
   0.52913784  0.61162204  0.04697948
   0.33389242  0.36126594  0.07221963
   0.58147332  0.93651314  0.13694302
   0.67732667  0.80921239  0.22305304
   0.80979447  0.67906481  0.14024348
   0.62937817  0.45366950  0.13325724
   0.32036889  0.87194096  0.31726179
   0.29919813  0.84983568  0.05000644
   0.58103448  0.72612545  0.12392179
   0.22907234  0.01294552  0.22967573
   0.54871865  0.36069037  0.05545242
   0.34411655  0.16690962  0.13164412
   0.17554400  0.68420617  0.14761894
   0.66082635  0.04249037  0.21304482
   0.78516879  0.11592854  0.29690217
   0.53581451  0.87478900  0.31589053
   0.77284397  0.12278263  0.06048458
   0.50030742  0.89844953  0.04455515
   0.19571508  0.50522867  0.21438636
   0.93546177  0.31542046  0.22552712
   0.85824468  0.00195101  0.15611973
   0.72104290  0.31497628  0.22969726
   0.43002289  0.26577701  0.21377066
   0.87703755  0.42955743  0.12878365
   0.09634819  0.18069822  0.13969274
   0.75988870  0.58867799  0.05155611
   0.31527374  0.59151669  0.05925234
   0.38179216  0.70126590  0.13646584
   0.40042658  0.45377032  0.14884727
   0.79153862  0.40082537  0.31361618
   0.78089926  0.35148021  0.04598080
   0.96954404  0.08430315  0.22196820
   0.46486898  0.79463888  0.22533144
   0.24890496  0.78598962  0.23267623
   0.43862206  0.02771317  0.22450195
   0.96798802  0.52051968  0.43844976
 
 position of ions in cartesian coordinates  (Angst):
  13.78881523  8.54106679  6.62666878
   5.30040079  8.54488114  6.44203507
   5.12981781  3.52101637  6.83891552
  15.22487182  9.37092486  8.79703905
   3.89626264  4.54272733  9.02684743
   6.78739321  9.32348026  8.78913801
  12.34961596  4.42028825  9.06777677
   9.59474762  9.29009995  9.13522950
  10.88700891  2.05415809  8.72284412
   2.65455856  2.08288452  9.08620280
  12.40409210  9.24903192  9.01165573
  13.83171432  6.94251760  8.98671616
   5.36772404  1.94730018  9.09641244
   8.18228845  6.76919863  8.85635749
   9.52296988  4.43469994  8.77206466
   5.28207851  6.89247041  8.87883451
   8.16457415  1.95720479  8.89458451
   7.99120805  3.37782207  6.61900172
   6.55424518  1.10030096  6.78568086
   6.83385120  1.22925189  1.47032698
   3.61235247  3.96468152  2.61994962
   1.44440888  1.44096951  6.82757507
   0.67126575  0.98910281  1.08188317
   6.74807265  9.00878530  3.12342105
   6.73615930  4.35764984  8.94348133
   8.49330084  5.38439383  5.05378437
  11.00749549  6.87505349  9.09654801
  14.94884239  7.37673046  4.49248916
  12.48818327  6.13165233  6.83518465
   6.49190180  5.91408578  6.68274363
   3.57422044  2.54624125  4.95877580
  11.12613698  5.45251083  4.71024739
   3.89208734  5.91570976  6.70381020
  13.73438227  8.58852246  1.76277137
   4.87663302  8.41394697  1.57788465
   3.75877116  6.38413590  2.06092090
   8.35850333  2.27224245  3.29405432
   9.33366537  9.15885838  2.96349132
   2.48610016  3.84591731  6.95737300
   1.94891684  3.12368389  0.97733531
  10.75186628  2.21220519  3.05623495
  13.77798860  5.05868282  4.81470165
   3.95666700  0.95966865  7.02060946
   9.84622993  6.29766610  6.96963760
   3.32747495  0.88717326  1.07332023
   9.37038068  5.94444230  1.03354859
   5.77436416  3.51119550  1.58883193
  11.78080373  9.10210551  3.01274644
  12.14220806  7.86485128  4.90716692
  12.89855082  6.59992829  3.08535659
   9.60902083  4.40927897  2.93165935
   8.48817002  8.47451927  6.97975946
   8.12653637  8.25967484  1.10014163
  10.59531978  7.05731733  2.72627938
   2.64345207  0.12581940  5.05286608
   8.18206475  3.50560142  1.21995326
   4.79850516  1.62221856  2.89617069
   5.80939796  6.64989784  3.24761674
   7.65468432  0.41297001  4.68698615
   9.46222948  1.12672610  6.53184779
  10.92203289  8.50219970  6.94959171
   9.36237240  1.19334199  1.33066085
  10.65631497  8.73215981  0.98021322
   5.03146660  4.91038993  4.71649990
  12.26834149  3.06561666  4.96159659
   9.64277050  0.01896212  3.43463404
   9.85949038  3.06129963  5.05333976
   6.31738572  2.58312482  4.70295446
  12.25312658  4.17493029  2.83324027
   2.09524784  1.75623189  3.07324021
  11.83128130  5.72144585  1.13423452
   6.85742987  5.74903551  1.30355140
   8.21978744  6.81570388  3.00224843
   7.04013147  4.41025877  3.27463986
  11.13237201  3.89567921  6.89955600
  10.73607676  3.41608656  1.01157751
  11.35395654  0.81935443  4.88330047
   9.67608211  7.72320924  4.95729164
   7.20384860  7.63914586  5.11887697
   5.07803210  0.26934830  4.93904295
  13.78425745  5.05900541  9.64589479
 


--------------------------------------------------------------------------------------------------------


 k-point  1 :   0.0000 0.0000 0.0000  plane waves:   70321
 k-point  2 :   0.5000 0.0000 0.0000  plane waves:   70264
 k-point  3 :   0.0000 0.5000 0.0000  plane waves:   70264
 k-point  4 :   0.5000 0.5000 0.0000  plane waves:   70264

 maximum and minimum number of plane-waves per node :     17611    17530

 maximum number of plane-waves:     70321
 maximum index in each direction: 
   IXMAX=   21   IYMAX=   21   IZMAX=   42
   IXMIN=  -21   IYMIN=  -21   IZMIN=  -42


 real space projection operators:
  total allocation   :      70752.54 KBytes
  max/ min on nodes  :      18094.41      17290.91


 parallel 3D FFT for wavefunctions:
    minimum data exchange during FFTs selected (reduces bandwidth)
 parallel 3D FFT for charge:
    minimum data exchange during FFTs selected (reduces bandwidth)


 total amount of memory used by VASP MPI-rank0   243562. kBytes
=======================================================================

   base      :      30000. kBytes
   nonlr-proj:      33163. kBytes
   fftplans  :      18297. kBytes
   grid      :      51226. kBytes
   one-center:        653. kBytes
   wavefun   :     110223. kBytes
 
     INWAV:  cpu time    0.0001: real time    0.0004
 Broyden mixing: mesh for mixing (old mesh)
   NGX = 43   NGY = 43   NGZ = 85
  (NGX  =180   NGY  =180   NGZ  =336)
  gives a total of 157165 points

 initial charge density was supplied:
 charge density of overlapping atoms calculated
 number of electron     778.0000000 magnetization     206.0000000
 keeping initial charge density in first step


--------------------------------------------------------------------------------------------------------


 Maximum index for non-local projection operator         2137
 Maximum index for augmentation-charges         1121 (set IRDMAX)


--------------------------------------------------------------------------------------------------------


 First call to EWALD:  gamma=   0.132
 Maximum number of real-space cells 4x 4x 2
 Maximum number of reciprocal cells 2x 2x 4

    FEWALD:  cpu time    0.0044: real time    0.0044


--------------------------------------- Iteration      1(   1)  ---------------------------------------


    POTLOK:  cpu time    0.4728: real time    0.4817
    SETDIJ:  cpu time    0.0363: real time    0.0364
     EDDAV:  cpu time   66.8904: real time   67.2527
       DOS:  cpu time    0.0025: real time    0.0148
    --------------------------------------------
      LOOP:  cpu time   67.4023: real time   67.7859

 eigenvalue-minimisations  :  9216
 total energy-change (2. order) : 0.6871715E+04  (-0.3404515E+05)
 number of electron     778.0000000 magnetization     206.0000000
 augmentation part      778.0000000 magnetization     206.0000000

 Free energy of the ion-electron system (eV)
  ---------------------------------------------------
  alpha Z        PSCENC =      1751.32544349
  Ewald energy   TEWEN  =    237219.68716735
  -Hartree energ DENC   =   -307273.64194199
  -exchange      EXHF   =         0.00000000
  -V(xc)+E(xc)   XCENC  =      1334.88727028
  PAW double counting   =     62871.68470781   -64853.88848185
  entropy T*S    EENTRO =         0.00359158
  eigenvalues    EBANDS =      6828.31107934
  atomic energy  EATOM  =     68993.34587830
  Solvation  Ediel_sol  =         0.00000000
  ---------------------------------------------------
  free energy    TOTEN  =      6871.71471431 eV

  energy without entropy =     6871.71112273  energy(sigma->0) =     6871.71351712


--------------------------------------------------------------------------------------------------------




--------------------------------------- Iteration      1(   2)  ---------------------------------------


     EDDAV:  cpu time   67.3899: real time   67.6123
       DOS:  cpu time    0.0027: real time    0.0036
    --------------------------------------------
      LOOP:  cpu time   67.3927: real time   67.6159

 eigenvalue-minimisations  :  9216
 total energy-change (2. order) :-0.6438614E+04  (-0.5814619E+04)
 number of electron     778.0000000 magnetization     206.0000000
 augmentation part      778.0000000 magnetization     206.0000000

 Free energy of the ion-electron system (eV)
  ---------------------------------------------------
  alpha Z        PSCENC =      1751.32544349
  Ewald energy   TEWEN  =    237219.68716735
  -Hartree energ DENC   =   -307273.64194199
  -exchange      EXHF   =         0.00000000
  -V(xc)+E(xc)   XCENC  =      1334.88727028
  PAW double counting   =     62871.68470781   -64853.88848185
  entropy T*S    EENTRO =        -0.00370936
  eigenvalues    EBANDS =       389.70468308
  atomic energy  EATOM  =     68993.34587830
  Solvation  Ediel_sol  =         0.00000000
  ---------------------------------------------------
  free energy    TOTEN  =       433.10101711 eV

  energy without entropy =      433.10472646  energy(sigma->0) =      433.10225356


--------------------------------------------------------------------------------------------------------




--------------------------------------- Iteration      1(   3)  ---------------------------------------


     EDDAV:  cpu time   69.6086: real time   69.8023
       DOS:  cpu time    0.0029: real time    0.0036
    --------------------------------------------
      LOOP:  cpu time   69.6115: real time   69.8059

 eigenvalue-minimisations  :  9756
 total energy-change (2. order) :-0.8801968E+03  (-0.7317686E+03)
 number of electron     778.0000000 magnetization     206.0000000
 augmentation part      778.0000000 magnetization     206.0000000

 Free energy of the ion-electron system (eV)
  ---------------------------------------------------
  alpha Z        PSCENC =      1751.32544349
  Ewald energy   TEWEN  =    237219.68716735
  -Hartree energ DENC   =   -307273.64194199
  -exchange      EXHF   =         0.00000000
  -V(xc)+E(xc)   XCENC  =      1334.88727028
  PAW double counting   =     62871.68470781   -64853.88848185
  entropy T*S    EENTRO =        -0.00222718
  eigenvalues    EBANDS =      -490.49358317
  atomic energy  EATOM  =     68993.34587830
  Solvation  Ediel_sol  =         0.00000000
  ---------------------------------------------------
  free energy    TOTEN  =      -447.09576696 eV

  energy without entropy =     -447.09353978  energy(sigma->0) =     -447.09502457


--------------------------------------------------------------------------------------------------------




--------------------------------------- Iteration      1(   4)  ---------------------------------------


     EDDAV:  cpu time   72.1560: real time   72.4118
       DOS:  cpu time    0.0029: real time    0.0036
    --------------------------------------------
      LOOP:  cpu time   72.1589: real time   72.4153

 eigenvalue-minimisations  : 10224
 total energy-change (2. order) :-0.5682119E+02  (-0.5469490E+02)
 number of electron     778.0000000 magnetization     206.0000000
 augmentation part      778.0000000 magnetization     206.0000000

 Free energy of the ion-electron system (eV)
  ---------------------------------------------------
  alpha Z        PSCENC =      1751.32544349
  Ewald energy   TEWEN  =    237219.68716735
  -Hartree energ DENC   =   -307273.64194199
  -exchange      EXHF   =         0.00000000
  -V(xc)+E(xc)   XCENC  =      1334.88727028
  PAW double counting   =     62871.68470781   -64853.88848185
  entropy T*S    EENTRO =        -0.00121495
  eigenvalues    EBANDS =      -547.31578076
  atomic energy  EATOM  =     68993.34587830
  Solvation  Ediel_sol  =         0.00000000
  ---------------------------------------------------
  free energy    TOTEN  =      -503.91695232 eV

  energy without entropy =     -503.91573737  energy(sigma->0) =     -503.91654734


--------------------------------------------------------------------------------------------------------




--------------------------------------- Iteration      1(   5)  ---------------------------------------


     EDDAV:  cpu time   75.8778: real time   76.1927
       DOS:  cpu time    0.0031: real time    0.0249
    CHARGE:  cpu time    4.5536: real time    4.5683
    MIXING:  cpu time    0.0117: real time    0.0119
    --------------------------------------------
      LOOP:  cpu time   80.4463: real time   80.7979

 eigenvalue-minimisations  : 10860
 total energy-change (2. order) :-0.1106281E+01  (-0.1104275E+01)
 number of electron     778.0000030 magnetization     194.1360717
 augmentation part      338.1087427 magnetization     164.4796965

 Broyden mixing:
  rms(total) = 0.10683E+02    rms(broyden)= 0.10683E+02
  rms(prec ) = 0.11052E+02
  weight for this iteration     100.00

 Free energy of the ion-electron system (eV)
  ---------------------------------------------------
  alpha Z        PSCENC =      1751.32544349
  Ewald energy   TEWEN  =    237219.68716735
  -Hartree energ DENC   =   -307273.64194199
  -exchange      EXHF   =         0.00000000
  -V(xc)+E(xc)   XCENC  =      1334.88727028
  PAW double counting   =     62871.68470781   -64853.88848185
  entropy T*S    EENTRO =        -0.00136700
  eigenvalues    EBANDS =      -548.42191012
  atomic energy  EATOM  =     68993.34587830
  Solvation  Ediel_sol  =         0.00000000
  ---------------------------------------------------
  free energy    TOTEN  =      -505.02323373 eV

  energy without entropy =     -505.02186673  energy(sigma->0) =     -505.02277806


--------------------------------------------------------------------------------------------------------




--------------------------------------- Iteration      1(   6)  ---------------------------------------


    POTLOK:  cpu time    0.4565: real time    0.4588
    SETDIJ:  cpu time    0.0356: real time    0.0357
    EDDIAG:  cpu time   12.3082: real time   12.3414
  RMM-DIIS:  cpu time   41.8904: real time   42.0326
    ORTHCH:  cpu time    1.4237: real time    1.4276
       DOS:  cpu time    0.0028: real time    0.0028
    CHARGE:  cpu time    4.4667: real time    4.4786
    MIXING:  cpu time    0.0124: real time    0.0129
    --------------------------------------------
      LOOP:  cpu time   60.5961: real time   60.7905

 eigenvalue-minimisations  :  9410
 total energy-change (2. order) :-0.2506126E+03  (-0.9961434E+02)
 number of electron     778.0000040 magnetization     190.8245174
 augmentation part      408.7440477 magnetization     162.4522161

 Broyden mixing:
  rms(total) = 0.20829E+02    rms(broyden)= 0.20829E+02
  rms(prec ) = 0.25916E+02
  weight for this iteration     100.00

 eigenvalues of (default mixing * dielectric matrix)
  average eigenvalue GAMMA=   0.1759
  0.1759

 Free energy of the ion-electron system (eV)
  ---------------------------------------------------
  alpha Z        PSCENC =      1751.32544349
  Ewald energy   TEWEN  =    237219.68716735
  -Hartree energ DENC   =   -305991.23533113
  -exchange      EXHF   =         0.00000000
  -V(xc)+E(xc)   XCENC  =      1289.55954123
  PAW double counting   =     67989.88986272   -69742.41422898
  entropy T*S    EENTRO =         0.00872753
  eigenvalues    EBANDS =     -2265.80285643
  atomic energy  EATOM  =     68993.34587830
  Solvation  Ediel_sol  =         0.00000000
  ---------------------------------------------------
  free energy    TOTEN  =      -755.63579591 eV

  energy without entropy =     -755.64452344  energy(sigma->0) =     -755.63870509


--------------------------------------------------------------------------------------------------------




--------------------------------------- Iteration      1(   7)  ---------------------------------------


    POTLOK:  cpu time    0.4614: real time    0.4638
    SETDIJ:  cpu time    0.0358: real time    0.0359
    EDDIAG:  cpu time   12.3578: real time   12.3911
  RMM-DIIS:  cpu time   41.2583: real time   41.3691
    ORTHCH:  cpu time    1.3223: real time    1.3258
       DOS:  cpu time    0.0027: real time    0.0027
    CHARGE:  cpu time    4.5232: real time    4.5354
    MIXING:  cpu time    0.0127: real time    0.0129
    --------------------------------------------
      LOOP:  cpu time   59.9742: real time   60.1366

 eigenvalue-minimisations  :  9234
 total energy-change (2. order) : 0.2389281E+03  (-0.1721207E+02)
 number of electron     778.0000031 magnetization     187.8849466
 augmentation part      372.0334685 magnetization     152.9855271

 Broyden mixing:
  rms(total) = 0.14970E+02    rms(broyden)= 0.14970E+02
  rms(prec ) = 0.18177E+02
  weight for this iteration     100.00

 eigenvalues of (default mixing * dielectric matrix)
  average eigenvalue GAMMA=   0.2163
  0.2163  0.2163

 Free energy of the ion-electron system (eV)
  ---------------------------------------------------
  alpha Z        PSCENC =      1751.32544349
  Ewald energy   TEWEN  =    237219.68716735
  -Hartree energ DENC   =   -306597.69238834
  -exchange      EXHF   =         0.00000000
  -V(xc)+E(xc)   XCENC  =      1306.05480264
  PAW double counting   =     69039.31953565   -70956.61353510
  entropy T*S    EENTRO =        -0.00069760
  eigenvalues    EBANDS =     -1272.13389900
  atomic energy  EATOM  =     68993.34587830
  Solvation  Ediel_sol  =         0.00000000
  ---------------------------------------------------
  free energy    TOTEN  =      -516.70769259 eV

  energy without entropy =     -516.70699499  energy(sigma->0) =     -516.70746006


--------------------------------------------------------------------------------------------------------




--------------------------------------- Iteration      1(   8)  ---------------------------------------


    POTLOK:  cpu time    0.4536: real time    0.4560
    SETDIJ:  cpu time    0.0355: real time    0.0356
    EDDIAG:  cpu time   12.3132: real time   12.3461
  RMM-DIIS:  cpu time   41.3632: real time   41.4894
    ORTHCH:  cpu time    1.4068: real time    1.4105
       DOS:  cpu time    0.0031: real time    0.0031
    CHARGE:  cpu time    4.4881: real time    4.5001
    MIXING:  cpu time    0.0130: real time    0.0133
    --------------------------------------------
      LOOP:  cpu time   60.0766: real time   60.2541

 eigenvalue-minimisations  :  9264
 total energy-change (2. order) : 0.8587839E+02  (-0.1328522E+02)
 number of electron     778.0000040 magnetization     180.8435143
 augmentation part      380.5729233 magnetization     142.5239217

 Broyden mixing:
  rms(total) = 0.11878E+02    rms(broyden)= 0.11878E+02
  rms(prec ) = 0.13891E+02
  weight for this iteration     100.00

 eigenvalues of (default mixing * dielectric matrix)
  average eigenvalue GAMMA=   0.3167
  0.5755  0.2822  0.0923

 Free energy of the ion-electron system (eV)
  ---------------------------------------------------
  alpha Z        PSCENC =      1751.32544349
  Ewald energy   TEWEN  =    237219.68716735
  -Hartree energ DENC   =   -306459.70196786
  -exchange      EXHF   =         0.00000000
  -V(xc)+E(xc)   XCENC  =      1310.55082918
  PAW double counting   =     69751.84059690   -71691.35744237
  entropy T*S    EENTRO =         0.00126062
  eigenvalues    EBANDS =     -1306.52106707
  atomic energy  EATOM  =     68993.34587830
  Solvation  Ediel_sol  =         0.00000000
  ---------------------------------------------------
  free energy    TOTEN  =      -430.82930145 eV

  energy without entropy =     -430.83056207  energy(sigma->0) =     -430.82972166


--------------------------------------------------------------------------------------------------------




--------------------------------------- Iteration      1(   9)  ---------------------------------------


    POTLOK:  cpu time    0.4573: real time    0.4595
    SETDIJ:  cpu time    0.0357: real time    0.0358
    EDDIAG:  cpu time   12.4154: real time   12.4481
  RMM-DIIS:  cpu time   41.2509: real time   41.3833
    ORTHCH:  cpu time    1.3778: real time    1.3815
       DOS:  cpu time    0.0026: real time    0.0026
    CHARGE:  cpu time    4.3547: real time    4.3664
    MIXING:  cpu time    0.0131: real time    0.0132
    --------------------------------------------
      LOOP:  cpu time   59.9071: real time   60.0902

 eigenvalue-minimisations  :  9225
 total energy-change (2. order) :-0.1000809E+03  (-0.1735928E+02)
 number of electron     778.0000028 magnetization     174.6653953
 augmentation part      380.6734375 magnetization     141.3967723

 Broyden mixing:
  rms(total) = 0.16573E+02    rms(broyden)= 0.16573E+02
  rms(prec ) = 0.19034E+02
  weight for this iteration     100.00

 eigenvalues of (default mixing * dielectric matrix)
  average eigenvalue GAMMA=   0.3455
  0.8508  0.3096  0.1107  0.1107

 Free energy of the ion-electron system (eV)
  ---------------------------------------------------
  alpha Z        PSCENC =      1751.32544349
  Ewald energy   TEWEN  =    237219.68716735
  -Hartree energ DENC   =   -306206.06647983
  -exchange      EXHF   =         0.00000000
  -V(xc)+E(xc)   XCENC  =      1327.94333026
  PAW double counting   =     71389.59937925   -73392.66237866
  entropy T*S    EENTRO =         0.00174662
  eigenvalues    EBANDS =     -1614.08433262
  atomic energy  EATOM  =     68993.34587830
  Solvation  Ediel_sol  =         0.00000000
  ---------------------------------------------------
  free energy    TOTEN  =      -530.91024584 eV

  energy without entropy =     -530.91199246  energy(sigma->0) =     -530.91082804


--------------------------------------------------------------------------------------------------------




--------------------------------------- Iteration      1(  10)  ---------------------------------------


    POTLOK:  cpu time    0.4557: real time    0.4582
    SETDIJ:  cpu time    0.0353: real time    0.0354
    EDDIAG:  cpu time   12.4520: real time   12.4856
  RMM-DIIS:  cpu time   41.3185: real time   41.4296
    ORTHCH:  cpu time    1.3309: real time    1.3345
       DOS:  cpu time    0.0027: real time    0.0027
    CHARGE:  cpu time    4.4047: real time    4.4164
    MIXING:  cpu time    0.0136: real time    0.0136
    --------------------------------------------
      LOOP:  cpu time   60.0134: real time   60.1760

 eigenvalue-minimisations  :  9243
 total energy-change (2. order) : 0.1136540E+03  (-0.1248855E+02)
 number of electron     778.0000036 magnetization     169.1842971
 augmentation part      381.5621453 magnetization     126.1266738

 Broyden mixing:
  rms(total) = 0.10568E+02    rms(broyden)= 0.10567E+02
  rms(prec ) = 0.13503E+02
  weight for this iteration     100.00

 eigenvalues of (default mixing * dielectric matrix)
  average eigenvalue GAMMA=   0.3519
  0.9503  0.4258  0.1466  0.1466  0.0902

 Free energy of the ion-electron system (eV)
  ---------------------------------------------------
  alpha Z        PSCENC =      1751.32544349
  Ewald energy   TEWEN  =    237219.68716735
  -Hartree energ DENC   =   -306613.71229868
  -exchange      EXHF   =         0.00000000
  -V(xc)+E(xc)   XCENC  =      1337.29546068
  PAW double counting   =     72714.15075485   -74778.60328069
  entropy T*S    EENTRO =        -0.00016537
  eigenvalues    EBANDS =     -1040.74520493
  atomic energy  EATOM  =     68993.34587830
  Solvation  Ediel_sol  =         0.00000000
  ---------------------------------------------------
  free energy    TOTEN  =      -417.25624500 eV

  energy without entropy =     -417.25607963  energy(sigma->0) =     -417.25618987


--------------------------------------------------------------------------------------------------------




--------------------------------------- Iteration      1(  11)  ---------------------------------------


    POTLOK:  cpu time    0.4565: real time    0.4588
    SETDIJ:  cpu time    0.0354: real time    0.0355
    EDDIAG:  cpu time   12.3679: real time   12.4008
  RMM-DIIS:  cpu time   41.3766: real time   41.4881
    ORTHCH:  cpu time    1.3411: real time    1.3447
       DOS:  cpu time    0.0027: real time    0.0027
    CHARGE:  cpu time    4.4113: real time    4.4228
    MIXING:  cpu time    0.0133: real time    0.0135
    --------------------------------------------
      LOOP:  cpu time   60.0048: real time   60.1668

 eigenvalue-minimisations  :  9263
 total energy-change (2. order) : 0.6015504E+02  (-0.8883560E+01)
 number of electron     778.0000033 magnetization     165.0534912
 augmentation part      373.5514732 magnetization     122.7105650

 Broyden mixing:
  rms(total) = 0.95641E+01    rms(broyden)= 0.95640E+01
  rms(prec ) = 0.10381E+02
  weight for this iteration     100.00

 eigenvalues of (default mixing * dielectric matrix)
  average eigenvalue GAMMA=   0.3542
  1.0700  0.4732  0.1669  0.1669  0.1550  0.0934

 Free energy of the ion-electron system (eV)
  ---------------------------------------------------
  alpha Z        PSCENC =      1751.32544349
  Ewald energy   TEWEN  =    237219.68716735
  -Hartree energ DENC   =   -306825.13426183
  -exchange      EXHF   =         0.00000000
  -V(xc)+E(xc)   XCENC  =      1337.53466828
  PAW double counting   =     73610.51216493   -75710.83945703
  entropy T*S    EENTRO =        -0.01055145
  eigenvalues    EBANDS =      -733.52225695
  atomic energy  EATOM  =     68993.34587830
  Solvation  Ediel_sol  =         0.00000000
  ---------------------------------------------------
  free energy    TOTEN  =      -357.10120491 eV

  energy without entropy =     -357.09065346  energy(sigma->0) =     -357.09768776


--------------------------------------------------------------------------------------------------------




--------------------------------------- Iteration      1(  12)  ---------------------------------------


    POTLOK:  cpu time    0.4559: real time    0.4582
    SETDIJ:  cpu time    0.0355: real time    0.0356
    EDDIAG:  cpu time   12.3309: real time   12.3640
  RMM-DIIS:  cpu time   41.4350: real time   41.5460
    ORTHCH:  cpu time    1.3288: real time    1.3325
       DOS:  cpu time    0.0028: real time    0.0028
    CHARGE:  cpu time    4.3897: real time    4.4018
    MIXING:  cpu time    0.0144: real time    0.0146
    --------------------------------------------
      LOOP:  cpu time   59.9931: real time   60.1555

 eigenvalue-minimisations  :  9269
 total energy-change (2. order) :-0.1106758E+02  (-0.5413346E+01)
 number of electron     778.0000033 magnetization     160.5530830
 augmentation part      372.5354556 magnetization     122.0915248

 Broyden mixing:
  rms(total) = 0.11417E+02    rms(broyden)= 0.11417E+02
  rms(prec ) = 0.12809E+02
  weight for this iteration     100.00

 eigenvalues of (default mixing * dielectric matrix)
  average eigenvalue GAMMA=   0.3539
  1.1940  0.4442  0.3386  0.1460  0.1460  0.0967  0.1114

 Free energy of the ion-electron system (eV)
  ---------------------------------------------------
  alpha Z        PSCENC =      1751.32544349
  Ewald energy   TEWEN  =    237219.68716735
  -Hartree energ DENC   =   -306810.68315483
  -exchange      EXHF   =         0.00000000
  -V(xc)+E(xc)   XCENC  =      1333.23658394
  PAW double counting   =     74124.12566046   -76237.78773517
  entropy T*S    EENTRO =        -0.00309151
  eigenvalues    EBANDS =      -741.41553981
  atomic energy  EATOM  =     68993.34587830
  Solvation  Ediel_sol  =         0.00000000
  ---------------------------------------------------
  free energy    TOTEN  =      -368.16878778 eV

  energy without entropy =     -368.16569627  energy(sigma->0) =     -368.16775728


--------------------------------------------------------------------------------------------------------




--------------------------------------- Iteration      1(  13)  ---------------------------------------


    POTLOK:  cpu time    0.4563: real time    0.4587
    SETDIJ:  cpu time    0.0354: real time    0.0355
    EDDIAG:  cpu time   12.3187: real time   12.3515
  RMM-DIIS:  cpu time   41.3767: real time   41.4970
    ORTHCH:  cpu time    1.3387: real time    1.3423
       DOS:  cpu time    0.0026: real time    0.0026
    CHARGE:  cpu time    4.4029: real time    4.4148
    MIXING:  cpu time    0.0143: real time    0.0144
    --------------------------------------------
      LOOP:  cpu time   59.9457: real time   60.1168

 eigenvalue-minimisations  :  9264
 total energy-change (2. order) : 0.2953720E+01  (-0.3897608E+01)
 number of electron     778.0000029 magnetization     156.0640329
 augmentation part      372.7030489 magnetization     117.2614434

 Broyden mixing:
  rms(total) = 0.99556E+01    rms(broyden)= 0.99555E+01
  rms(prec ) = 0.11104E+02
  weight for this iteration     100.00

 eigenvalues of (default mixing * dielectric matrix)
  average eigenvalue GAMMA=   0.3549
  1.2852  0.4707  0.4707  0.1490  0.1490  0.1308  0.0863  0.0974

 Free energy of the ion-electron system (eV)
  ---------------------------------------------------
  alpha Z        PSCENC =      1751.32544349
  Ewald energy   TEWEN  =    237219.68716735
  -Hartree energ DENC   =   -306910.10170645
  -exchange      EXHF   =         0.00000000
  -V(xc)+E(xc)   XCENC  =      1329.12949753
  PAW double counting   =     74651.00331071   -76774.36193290
  entropy T*S    EENTRO =         0.00605446
  eigenvalues    EBANDS =      -625.24877982
  atomic energy  EATOM  =     68993.34587830
  Solvation  Ediel_sol  =         0.00000000
  ---------------------------------------------------
  free energy    TOTEN  =      -365.21506732 eV

  energy without entropy =     -365.22112179  energy(sigma->0) =     -365.21708548


--------------------------------------------------------------------------------------------------------




--------------------------------------- Iteration      1(  14)  ---------------------------------------


    POTLOK:  cpu time    0.4569: real time    0.4591
    SETDIJ:  cpu time    0.0356: real time    0.0357
    EDDIAG:  cpu time   12.4176: real time   12.4707
  RMM-DIIS:  cpu time   41.4257: real time   41.5372
    ORTHCH:  cpu time    1.3528: real time    1.3564
       DOS:  cpu time    0.0026: real time    0.0026
    CHARGE:  cpu time    4.4012: real time    4.4131
    MIXING:  cpu time    0.0145: real time    0.0147
    --------------------------------------------
      LOOP:  cpu time   60.1069: real time   60.2895

 eigenvalue-minimisations  :  9264
 total energy-change (2. order) : 0.2639350E+02  (-0.2745684E+01)
 number of electron     778.0000034 magnetization     153.5720431
 augmentation part      371.3060037 magnetization     113.1620633

 Broyden mixing:
  rms(total) = 0.63184E+01    rms(broyden)= 0.63183E+01
  rms(prec ) = 0.68364E+01
  weight for this iteration     100.00

 eigenvalues of (default mixing * dielectric matrix)
  average eigenvalue GAMMA=   0.3399
  1.2972  0.5067  0.5067  0.1635  0.1635  0.1218  0.1218  0.0889  0.0889

 Free energy of the ion-electron system (eV)
  ---------------------------------------------------
  alpha Z        PSCENC =      1751.32544349
  Ewald energy   TEWEN  =    237219.68716735
  -Hartree energ DENC   =   -306984.31272946
  -exchange      EXHF   =         0.00000000
  -V(xc)+E(xc)   XCENC  =      1327.85264942
  PAW double counting   =     75154.64525920   -77288.06917550
  entropy T*S    EENTRO =        -0.00986343
  eigenvalues    EBANDS =      -513.28619513
  atomic energy  EATOM  =     68993.34587830
  Solvation  Ediel_sol  =         0.00000000
  ---------------------------------------------------
  free energy    TOTEN  =      -338.82156576 eV

  energy without entropy =     -338.81170232  energy(sigma->0) =     -338.81827794


--------------------------------------------------------------------------------------------------------




--------------------------------------- Iteration      1(  15)  ---------------------------------------


    POTLOK:  cpu time    0.4431: real time    0.4586
    SETDIJ:  cpu time    0.0357: real time    0.0358
    EDDIAG:  cpu time   12.3339: real time   12.3669
  RMM-DIIS:  cpu time   41.3690: real time   41.4805
    ORTHCH:  cpu time    1.3797: real time    1.3834
       DOS:  cpu time    0.0031: real time    0.0031
    CHARGE:  cpu time    4.3873: real time    4.3989
    MIXING:  cpu time    0.0163: real time    0.0164
    --------------------------------------------
      LOOP:  cpu time   59.9682: real time   60.1437

 eigenvalue-minimisations  :  9261
 total energy-change (2. order) : 0.3605657E+01  (-0.1176787E+01)
 number of electron     778.0000034 magnetization     150.7290337
 augmentation part      371.1518588 magnetization     111.7473759

 Broyden mixing:
  rms(total) = 0.52308E+01    rms(broyden)= 0.52307E+01
  rms(prec ) = 0.56437E+01
  weight for this iteration     100.00

 eigenvalues of (default mixing * dielectric matrix)
  average eigenvalue GAMMA=   0.3438
  1.3215  0.5803  0.5803  0.2066  0.2066  0.1328  0.1328  0.0988  0.0988  0.0795

 Free energy of the ion-electron system (eV)
  ---------------------------------------------------
[...]
   -.431E+02 0.145E+02 -.271E+04   0.434E+02 -.138E+02 0.270E+04   -.375E+00 -.593E+00 0.164E+01   0.110E-01 -.650E-02 -.599E-02
   -.723E+02 -.293E+02 -.282E+04   0.721E+02 0.295E+02 0.282E+04   0.240E+00 -.213E+00 0.173E+01   0.253E-04 0.114E-01 0.187E-01
   0.102E+03 0.107E+02 -.270E+04   -.102E+03 -.115E+02 0.270E+04   -.482E+00 0.827E+00 0.204E+01   -.218E-02 0.906E-02 0.113E-01
   0.180E+02 0.128E+02 -.290E+04   -.187E+02 -.142E+02 0.290E+04   0.750E+00 0.133E+01 0.254E+01   -.373E-02 0.728E-02 0.114E-01
   0.515E+02 0.108E+02 -.297E+04   -.518E+02 -.103E+02 0.297E+04   0.283E+00 -.486E+00 0.331E+01   0.480E-02 -.520E-02 0.902E-02
   0.227E+02 0.785E+02 -.272E+04   -.234E+02 -.777E+02 0.271E+04   0.735E+00 -.747E+00 0.193E+01   -.151E-01 -.230E-01 -.910E-02
   0.636E+02 0.241E+01 -.288E+04   -.626E+02 -.251E+01 0.288E+04   -.102E+01 0.136E+00 0.277E+01   -.189E-02 -.200E-01 0.249E-02
   -.991E+02 -.215E+02 -.284E+04   0.987E+02 0.210E+02 0.284E+04   0.413E+00 0.539E+00 0.167E+01   0.371E-02 -.205E-01 -.716E-03
   -.660E+02 -.443E+02 -.278E+04   0.660E+02 0.449E+02 0.278E+04   -.581E-01 -.568E+00 0.133E+01   0.101E-01 0.849E-03 -.173E-02
   -.525E+02 -.641E+02 -.286E+04   0.523E+02 0.638E+02 0.286E+04   0.185E+00 0.409E+00 0.207E+01   0.413E-02 -.906E-02 0.480E-02
   0.111E+03 0.534E+02 -.275E+04   -.110E+03 -.536E+02 0.275E+04   -.677E+00 0.113E+00 0.244E+01   0.317E-01 0.256E-01 0.846E-02
   0.887E+02 0.412E+02 -.274E+04   -.881E+02 -.404E+02 0.274E+04   -.560E+00 -.865E+00 0.204E+01   0.894E-02 0.254E-01 0.151E-01
   -.219E+02 -.278E+02 -.269E+04   0.217E+02 0.277E+02 0.269E+04   0.172E+00 0.895E-01 0.185E+01   0.438E-02 0.202E-01 0.967E-02
   -.358E+02 -.221E+02 -.277E+04   0.357E+02 0.218E+02 0.277E+04   0.355E-01 0.324E+00 0.187E+01   0.854E-02 -.358E-01 -.567E-03
   0.457E+02 -.593E+02 -.133E+04   -.446E+02 0.584E+02 0.133E+04   -.106E+01 0.933E+00 0.199E+01   0.284E-01 -.208E-01 -.624E-02
   -.109E+03 -.812E+02 -.148E+04   0.108E+03 0.807E+02 0.147E+04   0.118E+01 0.456E+00 0.233E+01   0.110E-01 -.214E-01 0.198E-01
   0.595E+02 0.541E+02 0.278E+04   -.588E+02 -.538E+02 -.278E+04   -.651E+00 -.433E+00 -.195E+01   0.200E-01 0.383E-01 -.198E-01
   -.118E+03 -.145E+03 0.197E+04   0.118E+03 0.145E+03 -.197E+04   -.146E+00 -.371E+00 0.135E+01   0.130E-01 0.889E-02 -.299E-01
   0.755E+02 0.665E+02 -.154E+04   -.748E+02 -.661E+02 0.154E+04   -.810E+00 -.477E+00 0.173E+01   -.174E-01 -.196E-01 0.288E-01
   0.780E+01 0.189E+03 0.297E+04   -.748E+01 -.187E+03 -.296E+04   -.201E+00 -.164E+01 -.200E+01   -.155E-01 0.144E-01 -.143E-01
   0.159E+03 0.253E+02 0.147E+04   -.158E+03 -.262E+02 -.147E+04   -.780E+00 0.949E+00 -.378E+00   -.271E-01 -.415E-03 -.157E-01
   -.251E+02 -.356E+02 -.276E+04   0.250E+02 0.351E+02 0.276E+04   0.286E-01 0.456E+00 0.185E+01   0.103E-01 0.129E-01 0.189E-02
   0.110E+03 0.904E+02 -.231E+03   -.110E+03 -.901E+02 0.230E+03   0.271E-01 -.318E+00 0.132E+00   -.147E-02 -.119E-01 -.235E-02
   -.118E+02 0.457E+02 -.292E+04   0.115E+02 -.450E+02 0.292E+04   0.367E+00 -.667E+00 0.282E+01   -.115E-01 0.810E-02 -.558E-02
   -.443E+02 -.441E+02 0.331E+03   0.440E+02 0.429E+02 -.332E+03   0.192E+00 0.119E+01 -.703E-01   0.921E-02 0.502E-02 -.139E-02
   -.899E+02 -.515E+02 -.146E+04   0.904E+02 0.508E+02 0.146E+04   -.487E+00 0.730E+00 0.205E+01   -.962E-02 0.122E-01 0.247E-01
   0.139E+02 0.715E+01 -.133E+04   -.147E+02 -.660E+01 0.133E+04   0.755E+00 -.511E+00 0.193E+01   0.121E-01 0.737E-02 -.144E-01
   -.646E+02 -.103E+03 -.268E+02   0.643E+02 0.103E+03 0.265E+02   0.324E+00 0.551E+00 0.308E+00   0.597E-02 0.103E-01 -.119E-01
   -.254E+02 -.302E+02 0.126E+03   0.259E+02 0.302E+02 -.127E+03   -.438E+00 -.165E-01 0.891E+00   -.857E-02 -.600E-02 -.415E-02
   -.619E+02 -.120E+03 -.122E+04   0.619E+02 0.119E+03 0.122E+04   0.775E-01 0.881E+00 0.789E+00   -.381E-02 0.173E-01 0.375E-02
   -.216E+01 0.110E+03 0.236E+04   0.342E+01 -.110E+03 -.236E+04   -.112E+01 -.352E+00 -.153E+01   0.151E-01 0.740E-02 -.136E-01
   0.793E+01 0.138E+03 0.248E+04   -.904E+01 -.137E+03 -.248E+04   0.105E+01 -.766E+00 -.241E+01   0.181E-02 0.132E-02 -.842E-02
   -.715E+01 0.876E+02 0.223E+04   0.703E+01 -.860E+02 -.223E+04   0.538E-01 -.139E+01 -.215E+01   0.135E-01 -.961E-02 -.122E-01
   0.126E+03 0.695E+02 0.108E+04   -.126E+03 -.696E+02 -.108E+04   -.298E+00 0.149E-01 0.312E-01   0.609E-02 0.160E-01 -.276E-01
   0.492E+02 -.604E+02 0.143E+04   -.488E+02 0.603E+02 -.143E+04   -.525E+00 0.190E-01 -.346E+00   -.454E-02 0.272E-02 -.205E-01
   -.717E+02 0.616E+01 -.141E+04   0.716E+02 -.589E+01 0.141E+04   0.154E+00 -.362E+00 0.372E+00   0.909E-02 0.644E-02 0.139E-01
   -.256E+03 -.128E+03 0.278E+04   0.255E+03 0.126E+03 -.277E+04   0.150E+01 0.155E+01 -.399E+01   -.738E-02 0.676E-02 -.132E-01
   -.169E+02 0.989E+02 0.132E+04   0.165E+02 -.988E+02 -.132E+04   0.430E+00 -.259E+00 -.685E+00   -.215E-01 0.704E-03 -.207E-01
   -.975E+02 -.863E+02 0.132E+03   0.974E+02 0.865E+02 -.132E+03   0.498E-01 -.174E+00 -.306E+00   0.924E-02 0.114E-01 -.147E-01
   0.139E+02 -.133E+03 -.147E+04   -.141E+02 0.132E+03 0.147E+04   0.190E+00 0.522E+00 0.331E+00   0.356E-02 -.100E-01 0.205E-01
   0.816E+02 0.132E+03 -.141E+04   -.816E+02 -.131E+03 0.141E+04   -.602E-01 -.640E+00 -.665E+00   -.553E-02 0.647E-02 0.207E-01
   -.797E+02 -.138E+03 0.273E+04   0.779E+02 0.137E+03 -.272E+04   0.155E+01 0.162E+01 -.329E+01   -.433E-02 0.161E-01 -.222E-01
   0.167E+02 -.253E+02 0.276E+04   -.172E+02 0.254E+02 -.276E+04   0.405E+00 -.129E+00 -.331E+01   -.137E-01 -.305E-01 -.179E-01
   0.228E+03 -.398E+02 0.247E+04   -.226E+03 0.396E+02 -.247E+04   -.130E+01 0.255E+00 -.199E+01   0.259E-01 0.186E-01 -.159E-01
   -.186E+03 -.295E+02 0.146E+04   0.186E+03 0.295E+02 -.146E+04   0.259E+00 -.198E-01 0.202E+00   0.123E-01 0.780E-02 -.151E-01
   -.194E+03 0.617E+02 0.581E+01   0.193E+03 -.613E+02 -.542E+01   0.353E+00 -.436E+00 -.453E+00   0.144E-01 -.324E-02 0.115E-01
   -.188E+03 -.401E+02 0.139E+04   0.189E+03 0.406E+02 -.139E+04   -.843E-01 -.435E+00 0.485E+00   0.113E-01 -.130E-01 -.128E-01
   0.264E+02 -.682E+02 0.135E+04   -.263E+02 0.679E+02 -.135E+04   -.564E-01 0.498E+00 -.478E-01   -.201E-01 -.177E-01 -.327E-01
   0.194E+03 0.443E+02 -.147E+04   -.193E+03 -.444E+02 0.147E+04   -.684E+00 0.118E+00 0.237E-01   0.475E-02 -.125E-01 0.324E-01
   0.180E+03 0.558E+01 0.274E+04   -.178E+03 -.568E+01 -.273E+04   -.187E+01 0.105E+00 -.326E+01   -.874E-02 -.154E-01 -.190E-01
   -.979E+02 0.354E+02 0.159E+04   0.980E+02 -.351E+02 -.159E+04   -.191E+00 -.427E+00 0.298E+00   -.118E-02 -.230E-01 -.283E-01
   0.114E+03 -.582E+02 -.100E+03   -.113E+03 0.581E+02 0.100E+03   -.412E+00 0.979E-01 -.137E+00   -.108E-01 0.757E-03 0.714E-02
   0.134E+03 0.310E+02 0.297E+04   -.134E+03 -.305E+02 -.297E+04   -.146E+00 -.306E+00 -.150E+01   -.942E-02 0.740E-02 -.456E-02
   -.526E+02 -.163E+03 0.172E+04   0.526E+02 0.163E+03 -.172E+04   -.746E-01 0.346E+00 0.154E+00   0.137E-01 0.273E-01 -.283E-01
   0.193E+03 -.965E+01 0.134E+04   -.193E+03 0.977E+01 -.134E+04   0.411E+00 -.487E-01 0.490E+00   -.156E-02 -.182E-01 -.242E-01
   -.125E+03 0.298E+02 0.200E+03   0.124E+03 -.297E+02 -.200E+03   0.403E+00 -.135E+00 -.314E+00   0.326E-01 0.121E-01 0.350E-02
   0.266E+01 0.567E+02 -.127E+04   -.251E+01 -.569E+02 0.127E+04   -.160E+00 0.171E+00 0.502E+00   0.780E-02 -.966E-02 0.310E-02
   -.133E+03 0.166E+02 -.161E+04   0.133E+03 -.163E+02 0.161E+04   0.305E+00 -.270E+00 0.508E+00   -.137E-02 -.132E-01 0.329E-01
   0.828E+02 0.199E+03 0.290E+04   -.828E+02 -.199E+03 -.290E+04   -.362E-01 -.546E-01 -.121E+01   -.357E-02 0.243E-01 -.826E-02
   -.194E+03 -.245E+02 0.312E+04   0.192E+03 0.250E+02 -.312E+04   0.215E+01 -.412E+00 -.411E+01   0.417E-02 -.231E-02 -.294E-01
   -.257E+01 -.420E+02 0.205E+03   0.287E+01 0.420E+02 -.205E+03   -.389E+00 -.458E-01 -.316E+00   0.757E-02 0.939E-02 -.239E-01
   -.855E+02 -.132E+02 -.770E+02   0.852E+02 0.128E+02 0.770E+02   0.309E+00 0.460E+00 -.148E-01   -.149E-01 -.527E-02 -.220E-01
   0.314E+02 0.204E+03 0.111E+04   -.317E+02 -.204E+03 -.111E+04   0.283E+00 -.428E+00 0.689E-02   0.545E-02 0.128E-01 -.481E-02
   0.145E+03 0.181E+02 -.216E+03   -.145E+03 -.188E+02 0.217E+03   0.269E+00 0.751E+00 -.434E+00   -.219E-01 -.237E-01 -.119E-01
   -.115E+02 -.956E+02 0.170E+03   0.119E+02 0.955E+02 -.170E+03   -.462E+00 0.101E-01 -.285E+00   0.190E-01 0.147E-01 -.261E-01
   -.171E+03 -.110E+03 0.165E+04   0.171E+03 0.110E+03 -.165E+04   0.308E-01 -.190E+00 -.328E+00   -.497E-02 -.345E-02 -.346E-01
   -.702E+02 0.618E+01 0.148E+04   0.706E+02 -.614E+01 -.148E+04   -.245E+00 -.125E+00 -.682E+00   -.143E-01 0.128E-01 -.295E-01
   -.272E+03 -.156E+03 0.302E+04   0.270E+03 0.155E+03 -.302E+04   0.226E+01 0.134E+01 -.367E+01   -.818E-02 -.211E-01 -.193E-01
   0.296E+03 -.678E+02 0.296E+04   -.294E+03 0.671E+02 -.296E+04   -.221E+01 0.764E+00 -.282E+01   0.188E-02 -.359E-01 -.975E-02
   0.875E+02 0.279E+02 0.151E+04   -.875E+02 -.281E+02 -.151E+04   0.114E+00 0.197E+00 0.190E-01   -.203E-01 -.366E-01 -.316E-01
   0.141E+03 0.123E+02 0.120E+04   -.141E+03 -.122E+02 -.120E+04   0.115E+00 -.378E-01 -.316E+00   0.256E-02 -.785E-02 -.493E-01
   0.842E+02 0.212E+02 -.156E+04   -.840E+02 -.211E+02 0.156E+04   -.242E+00 -.956E-01 -.274E+00   -.256E-01 0.675E-02 0.762E-02
   -.915E+00 -.100E+02 0.308E+04   0.931E+00 0.105E+02 -.308E+04   -.785E-01 -.418E+00 -.174E+01   -.170E-01 0.539E-03 -.122E-01
   0.636E+02 0.177E+03 -.524E+02   -.640E+02 -.177E+03 0.531E+02   0.447E+00 0.239E+00 -.845E+00   -.388E-01 -.784E-02 0.536E-02
   0.659E+01 0.966E+02 -.272E+02   -.682E+01 -.960E+02 0.272E+02   0.268E+00 -.672E+00 -.157E+00   0.110E-02 -.188E-01 0.265E-01
   0.229E+03 0.518E+02 -.243E+03   -.229E+03 -.514E+02 0.243E+03   0.358E+00 -.376E+00 -.575E+00   -.177E-01 -.119E-01 0.512E-02
   -.615E+02 -.117E+03 -.729E+01   0.616E+02 0.117E+03 0.705E+01   -.127E+00 0.280E+00 0.132E+00   0.119E-01 0.595E-02 0.111E-01
   0.598E+00 -.304E+01 -.328E+03   -.865E+00 0.308E+01 0.329E+03   0.292E+00 -.865E-02 -.132E+01   0.639E-03 0.167E-02 0.492E-03
 -----------------------------------------------------------------------------------------------
   -.335E+01 -.130E+01 -.676E+01   -.598E-12 0.531E-12 -.206E-10   0.332E+01 0.138E+01 0.717E+01   0.837E-02 -.316E-01 -.421E+00
 
 
 POSITION                                       TOTAL-FORCE (eV/Angst)
 -----------------------------------------------------------------------------------
     13.78339      8.52644      6.63766         0.006357      0.004617      0.005568
      5.29199      8.55139      6.41807        -0.001785     -0.004715     -0.008758
      5.12992      3.50962      6.83762        -0.013730     -0.006630     -0.008760
     15.25877      9.35853      8.78522        -0.017265      0.013869      0.010856
      3.95138      4.48683      9.05886        -0.009830      0.011215     -0.024567
      6.78902      9.24680      8.74011         0.009207     -0.004711      0.004798
     12.30719      4.38525      9.09805        -0.008430      0.001625     -0.013029
      9.56409      9.27316      9.13865        -0.022277     -0.012657      0.004299
     10.87405      2.06333      8.71930         0.023973     -0.017912      0.000284
      2.63231      2.01588      9.10124        -0.007587     -0.007069     -0.017903
     12.38731      9.24989      9.01123        -0.005863      0.004726     -0.004677
     13.83971      6.96171      9.01460        -0.007212      0.032237     -0.006181
      5.35951      1.94743      9.09685        -0.002764      0.001435     -0.010685
      8.12421      6.79751      8.80293        -0.005090     -0.007131     -0.005571
      9.51143      4.45114      8.78201        -0.022532     -0.003391     -0.013113
      5.33752      6.92445      8.80953        -0.019371     -0.004949      0.003194
      8.16113      1.93180      8.89029         0.001401      0.012213      0.002010
      7.99570      3.36968      6.62190         0.002394     -0.002587     -0.005071
      6.55417      1.09563      6.78598        -0.010677      0.006272      0.017211
      6.83385      1.22925      1.47033        -0.003351      0.035333     -0.006232
      3.61235      3.96468      2.61995        -0.006713      0.004585      0.003885
      1.43310      1.44233      6.82853        -0.004497     -0.001164      0.026164
      0.67127      0.98910      1.08188        -0.017703     -0.019491     -0.004275
      6.74807      9.00879      3.12342        -0.019695      0.008249     -0.015934
      6.74787      4.37268      8.92746         0.005010      0.000777      0.016431
      8.49330      5.38439      5.05378        -0.015183     -0.012244      0.006220
     10.97009      6.88483      9.09942         0.000449      0.017874     -0.000648
     14.94884      7.37673      4.49249         0.012562     -0.011587     -0.000056
     12.48045      6.12416      6.85132        -0.005750      0.021404      0.001679
      6.47784      5.89357      6.64610        -0.002197      0.002101      0.017112
      3.57422      2.54624      4.95878        -0.015871      0.009488      0.005987
     11.12614      5.45251      4.71025         0.070476      0.035349      0.043796
      3.88158      5.90539      6.71274         0.019235     -0.000953      0.006080
     13.73438      8.58852      1.76277        -0.008843     -0.015222     -0.033366
      4.87663      8.41395      1.57788         0.011755      0.006509      0.021994
      3.75877      6.38414      2.06092         0.024000     -0.002799      0.025069
      8.35850      2.27224      3.29405        -0.005068     -0.003506      0.018712
      9.33367      9.15886      2.96349        -0.002529     -0.007415      0.016907
      2.47708      3.84116      6.96993         0.007655     -0.001334      0.007812
      1.94892      3.12368      0.97734        -0.003625      0.008891      0.008095
     10.75187      2.21221      3.05623         0.002775      0.008838     -0.004607
     13.77799      5.05868      4.81470        -0.013251      0.011105      0.047934
      3.95377      0.96505      7.02309         0.006421     -0.004447      0.001100
      9.83120      6.29622      6.97224        -0.002672     -0.005544     -0.005304
      3.32747      0.88717      1.07332        -0.005339     -0.000285     -0.007900
      9.37038      5.94444      1.03355         0.022341      0.006793     -0.038439
      5.77436      3.51120      1.58883         0.007450      0.002972      0.001361
     11.78080      9.10211      3.01275        -0.001766     -0.018750      0.031917
     12.14221      7.86485      4.90717         0.001582     -0.042479      0.007584
     12.89855      6.59993      3.08536        -0.013168     -0.008600      0.025561
      9.60902      4.40928      2.93166         0.003866     -0.007883      0.009069
      8.50706      8.48387      6.96169         0.002800     -0.010158     -0.002919
      8.12654      8.25967      1.10014        -0.020548      0.008913     -0.002620
     10.59532      7.05732      2.72628        -0.007613     -0.009665      0.011057
      2.64345      0.12582      5.05287         0.010256     -0.022152     -0.022644
      8.18206      3.50560      1.21995        -0.015338     -0.025598      0.007906
      4.79851      1.62222      2.89617        -0.012934      0.002207      0.024135
      5.80940      6.64990      3.24762        -0.005769      0.006601     -0.027401
      7.65468      0.41297      4.68699        -0.028429     -0.018812     -0.008504
      9.45458      1.12247      6.52518         0.002468      0.010793     -0.005769
     10.93227      8.49208      6.94898         0.000330      0.004911      0.006957
      9.36237      1.19334      1.33066         0.026901      0.007866      0.001208
     10.65631      8.73216      0.98021        -0.001622     -0.006711     -0.007659
      5.03147      4.91039      4.71650        -0.020309      0.023009     -0.030700
     12.26834      3.06562      4.96160         0.000109      0.044820     -0.024248
      9.64277      0.01896      3.43463         0.022884     -0.001988      0.021307
      9.85949      3.06130      5.05334        -0.016442     -0.031052     -0.021613
      6.31739      2.58312      4.70295         0.028568     -0.044681     -0.062173
     12.25313      4.17493      2.83324        -0.002645     -0.004858     -0.002764
      2.09525      1.75623      3.07324         0.005586     -0.002906      0.027371
     11.83128      5.72145      1.13423         0.030866      0.006278      0.002738
      6.85743      5.74904      1.30355        -0.002474     -0.005586      0.011068
      8.21979      6.81570      3.00225         0.007658      0.012511     -0.001331
      7.04013      4.41026      3.27464        -0.007329     -0.006536      0.013048
     11.11732      3.90410      6.89673         0.000479     -0.004507      0.005951
     10.73608      3.41609      1.01158         0.008007     -0.013259      0.007076
     11.35396      0.81935      4.88330        -0.007037      0.004473     -0.013085
      9.67608      7.72321      4.95729         0.012064     -0.007158     -0.016770
      7.20385      7.63915      5.11888         0.027067      0.022764     -0.013591
      5.07803      0.26935      4.93904        -0.001093      0.001857     -0.026930
     13.78869      5.33032      9.89098         0.026262      0.025600     -0.012714
 -----------------------------------------------------------------------------------
    total drift:                               -0.017418      0.046328     -0.010783


--------------------------------------------------------------------------------------------------------



  FREE ENERGIE OF THE ION-ELECTRON SYSTEM (eV)
  ---------------------------------------------------
  free  energy   TOTEN  =      -503.50285722 eV

  energy  without entropy=     -503.53575555  energy(sigma->0) =     -503.51382333
 
 d Force = 0.1880760E-02[ 0.974E-03, 0.279E-02]  d Energy = 0.1869682E-02 0.111E-04
 d Force = 0.1083358E+02[ 0.108E+02, 0.109E+02]  d Ewald  = 0.1083359E+02-0.554E-05


--------------------------------------------------------------------------------------------------------


    POTLOK:  cpu time    0.4900: real time    0.4920


--------------------------------------------------------------------------------------------------------


 Conjugate gradient step on ions:
 trial-energy change:   -0.001870  1 .order   -0.001881   -0.002788   -0.000974
  (g-gl).g = 0.154E-02      g.g   = 0.141E-02  gl.gl    = 0.324E-02
 g(Force)  = 0.141E-02   g(Stress)= 0.000E+00 ortho     =-0.780E-04
 gamma     =   0.47519
 trial     =   2.03512
 opt step  =   3.12719  (harmonic =   3.12719) maximal distance =0.02015874
 next E    =  -503.503130   (d E  =  -0.00214)


--------------------------------------------------------------------------------------------------------


  
 reached required accuracy - stopping structural energy minimisation
     LOOP+:  cpu time  841.5113: real time  844.4919
    4ORBIT:  cpu time    0.0000: real time    0.0000

 total amount of memory used by VASP MPI-rank0   243562. kBytes
=======================================================================

   base      :      30000. kBytes
   nonlr-proj:      33163. kBytes
   fftplans  :      18297. kBytes
   grid      :      51226. kBytes
   one-center:        653. kBytes
   wavefun   :     110223. kBytes
 
  
  
 General timing and accounting informations for this job:
 ========================================================
  
                  Total CPU time used (sec):    18523.674
                            User time (sec):    18002.558
                          System time (sec):      521.117
                         Elapsed time (sec):    18615.649
  
                   Maximum memory used (kb):      405400.
                   Average memory used (kb):           0.
  
                          Minor page faults:     19565561
                          Major page faults:          270
                 Voluntary context switches:        10276
