 vasp.5.4.4.18Apr17-6-g9f103f2a35 (build Nov 30 2020 22:55:02) complex          
  
 executed on             LinuxIFC date 2021.10.21  21:00:48
 running on   40 total cores
 distrk:  each k-point on   40 cores,    1 groups
 distr:  one band on NCORES_PER_BAND=   4 cores,   10 groups


--------------------------------------------------------------------------------------------------------


 INCAR:
 POTCAR:    PAW_PBE Pt 04Feb2005                  
 POTCAR:    PAW_PBE H 15Jun2001                   
 POTCAR:    PAW_PBE Pt 04Feb2005                  
   VRHFIN =Pt: s1d9                                                             
   LEXCH  = PE                                                                  
   EATOM  =   729.1176 eV,   53.5886 Ry                                         
                                                                                
   TITEL  = PAW_PBE Pt 04Feb2005                                                
   LULTRA =        F    use ultrasoft PP ?                                      
   IUNSCR =        1    unscreen: 0-lin 1-nonlin 2-no                           
   RPACOR =    2.330    partial core radius                                     
   POMASS =  195.080; ZVAL   =   10.000    mass and valenz                      
   RCORE  =    2.600    outmost cutoff radius                                   
   RWIGS  =    2.750; RWIGS  =    1.455    wigner-seitz radius (au A)           
   ENMAX  =  230.283; ENMIN  =  172.712 eV                                      
   ICORE  =        3    local potential                                         
   LCOR   =        T    correct aug charges                                     
   LPAW   =        T    paw PP                                                  
   EAUG   =  358.966                                                            
   DEXC   =    0.000                                                            
   RMAX   =    2.658    core radius for proj-oper                               
   RAUG   =    1.300    factor for augmentation sphere                          
   RDEP   =    2.761    radius for radial grids                                 
   RDEPT  =    2.203    core radius for aug-charge                              
                                                                                
   Atomic configuration                                                         
   16 entries                                                                   
     n  l   j            E        occ.                                          
     1  0  0.50    -78401.1885   2.0000                                         
     2  0  0.50    -13770.7750   2.0000                                         
     2  1  1.50    -11931.0468   6.0000                                         
     3  0  0.50     -3234.7234   2.0000                                         
     3  1  1.50     -2699.2216   6.0000                                         
     3  2  2.50     -2119.5714  10.0000                                         
     4  0  0.50      -695.1528   2.0000                                         
     4  1  1.50      -519.6034   6.0000                                         
     4  2  2.50      -306.6786  10.0000                                         
     4  3  3.50       -70.1041  14.0000                                         
     5  0  0.50      -101.7747   2.0000                                         
     5  1  1.50       -55.9873   6.0000                                         
     5  2  2.50        -6.1423   9.0000                                         
     6  0  0.50        -5.6573   1.0000                                         
     6  1  1.50        -6.8029   0.0000                                         
     5  3  2.50        -1.3606   0.0000                                         
   Description                                                                  
     l       E           TYP  RCUT    TYP  RCUT                                 
     2     -6.1423404     23  2.500                                             
     2     -7.5029230     23  2.500                                             
     0     -5.6573207     23  2.500                                             
     0      0.7416693     23  2.500                                             
     1     -2.7211652     23  2.600                                             
     1     20.4087390     23  2.600                                             
     3     -1.3605826     23  2.500                                             
  local pseudopotential read in
  partial core-charges read in
  partial kinetic energy density read in
  atomic valenz-charges read in
  non local Contribution for L=           2  read in
    real space projection operators read in
  non local Contribution for L=           2  read in
    real space projection operators read in
  non local Contribution for L=           0  read in
    real space projection operators read in
  non local Contribution for L=           0  read in
    real space projection operators read in
  non local Contribution for L=           1  read in
    real space projection operators read in
  non local Contribution for L=           1  read in
    real space projection operators read in
    PAW grid and wavefunctions read in
 
   number of l-projection  operators is LMAX  =           6
   number of lm-projection operators is LMMAX =          18
 
 POTCAR:    PAW_PBE H 15Jun2001                   
   VRHFIN =H: ultrasoft test                                                    
   LEXCH  = PE                                                                  
   EATOM  =    12.4884 eV,    0.9179 Ry                                         
                                                                                
   TITEL  = PAW_PBE H 15Jun2001                                                 
   LULTRA =        F    use ultrasoft PP ?                                      
   IUNSCR =        0    unscreen: 0-lin 1-nonlin 2-no                           
   RPACOR =    0.000    partial core radius                                     
   POMASS =    1.000; ZVAL   =    1.000    mass and valenz                      
   RCORE  =    1.100    outmost cutoff radius                                   
   RWIGS  =    0.700; RWIGS  =    0.370    wigner-seitz radius (au A)           
   ENMAX  =  250.000; ENMIN  =  200.000 eV                                      
   RCLOC  =    0.701    cutoff for local pot                                    
   LCOR   =        T    correct aug charges                                     
   LPAW   =        T    paw PP                                                  
   EAUG   =  400.000                                                            
   RMAX   =    1.123    core radius for proj-oper                               
   RAUG   =    1.200    factor for augmentation sphere                          
   RDEP   =    1.112    radius for radial grids                                 
   RDEPT  =    0.926    core radius for aug-charge                              
                                                                                
   Atomic configuration                                                         
    2 entries                                                                   
     n  l   j            E        occ.                                          
     1  0  0.50        -6.4927   1.0000                                         
     2  1  0.50        -3.4015   0.0000                                         
   Description                                                                  
     l       E           TYP  RCUT    TYP  RCUT                                 
     0     -6.4927494     23  1.100                                             
     0      6.8029130     23  1.100                                             
     1     -4.0817478     23  1.100                                             
  local pseudopotential read in
  atomic valenz-charges read in
  non local Contribution for L=           0  read in
    real space projection operators read in
  non local Contribution for L=           0  read in
    real space projection operators read in
  non local Contribution for L=           1  read in
    real space projection operators read in
    PAW grid and wavefunctions read in
 
   number of l-projection  operators is LMAX  =           3
   number of lm-projection operators is LMMAX =           5
 
 Optimization of the real space projectors (new method)

 maximal supplied QI-value         = 14.36
 optimisation between [QCUT,QGAM] = [ 11.92, 23.98] = [ 39.79,161.09] Ry 
 Optimized for a Real-space Cutoff    1.49 Angstroem

   l    n(q)    QCUT    max X(q) W(low)/X(q) W(high)/X(q)  e(spline) 
   2     10    11.920    66.195    0.79E-04    0.18E-03    0.24E-06
   2     10    11.920    64.643    0.81E-04    0.19E-03    0.24E-06
   0     11    11.920    95.520    0.28E-04    0.54E-04    0.18E-06
   0     11    11.920    63.403    0.27E-04    0.52E-04    0.17E-06
   1     10    11.920    19.961    0.18E-04    0.11E-03    0.23E-06
   1     10    11.920    13.289    0.25E-04    0.87E-04    0.19E-06
 Optimization of the real space projectors (new method)

 maximal supplied QI-value         = 34.20
 optimisation between [QCUT,QGAM] = [ 11.97, 23.94] = [ 40.13,160.53] Ry 
 Optimized for a Real-space Cutoff    1.18 Angstroem

   l    n(q)    QCUT    max X(q) W(low)/X(q) W(high)/X(q)  e(spline) 
   0      8    11.971    19.460    0.15E-03    0.31E-03    0.25E-06
   0      8    11.971    12.209    0.13E-03    0.29E-03    0.25E-06
   1      8    11.971     4.655    0.22E-03    0.24E-03    0.21E-06
  PAW_PBE Pt 04Feb2005                  :
 energy of atom  1       EATOM= -729.1176
 kinetic energy error for atom=    0.0021 (will be added to EATOM!!)
  PAW_PBE H 15Jun2001                   :
 energy of atom  2       EATOM=  -12.4884
 kinetic energy error for atom=    0.0008 (will be added to EATOM!!)
 
 
 POSCAR: Pt111                                   
  positions in direct lattice
  velocities in cartesian coordinates
  No initial velocities read in
 exchange correlation table for  LEXCH =        8
   RHO(1)=    0.500       N(1)  =     2000
   RHO(2)=  100.500       N(2)  =     4000
 


--------------------------------------------------------------------------------------------------------


 ion  position               nearest neighbor table
   1  0.783  0.870  0.326-  20 2.73  71 2.73  55 2.73  27 2.78  35 2.79  34 2.79  43 2.79  56 2.80
                            73 2.80   3 2.81  72 2.81   2 2.81
   2  0.033  0.871  0.327-  65 2.73  55 2.73  68 2.74  27 2.78  39 2.78  29 2.79  72 2.79   3 2.81
                            47 2.81  23 2.81   1 2.81  57 2.82
   3  0.034  0.620  0.327-  76 2.73  12 2.73  55 2.73  35 2.78  28 2.78  39 2.78   9 2.80  57 2.80
                             2 2.81   1 2.81  56 2.81  15 2.82
   4  0.788  0.867  0.024-  21 2.78  78 2.78  19 2.78  44 2.80   6 2.80  74 2.81  75 2.81  58 2.82
                             5 2.82
   5  0.039  0.866  0.024-  70 2.78  49 2.78  59 2.78  78 2.79  24 2.80   6 2.81  74 2.81   4 2.82
                            48 2.82
   6  0.037  0.617  0.024-  70 2.78  46 2.78  21 2.78  10 2.79   4 2.80   5 2.81  59 2.81  58 2.81
                            18 2.81
   7  0.620  0.202  0.126-  71 2.72  79 2.73  80 2.74  42 2.78  44 2.78  74 2.79  22 2.80  53 2.80
                            11 2.81  78 2.81  61 2.81  19 2.82
   8  0.370  0.952  0.126-  69 2.73  66 2.73  26 2.74  16 2.78  24 2.78  75 2.79  25 2.80  49 2.80
                            19 2.80  54 2.81  53 2.81  60 2.81
   9  0.035  0.370  0.327-  12 2.73  77 2.73  62 2.74  28 2.77  33 2.78  30 2.78   3 2.80  47 2.81
                            63 2.81  13 2.81  15 2.81  56 2.81
  10  0.038  0.368  0.024-  54 2.78  46 2.78  45 2.79   6 2.79  18 2.80  58 2.80  48 2.80  16 2.80
                            64 2.82
  11  0.870  0.202  0.127-  65 2.72  77 2.73  79 2.74  64 2.77  74 2.78  48 2.78  45 2.80  49 2.81
                             7 2.81  54 2.81  78 2.81  22 2.82
  12  0.951  0.536  0.227-   9 2.73  21 2.73   3 2.73  56 2.73  45 2.73  46 2.74  77 2.80  55 2.80
                            20 2.80  67 2.81  76 2.81  62 2.82
  13  0.285  0.119  0.327-  62 2.73  26 2.73  69 2.74  36 2.78  33 2.78  31 2.78  73 2.80  43 2.80
                            47 2.81   9 2.81  23 2.81  15 2.81
  14  0.534  0.619  0.327-  51 2.73  66 2.73  67 2.74  38 2.78  52 2.78  37 2.79  41 2.80  57 2.80
                            73 2.80  56 2.81  23 2.81  63 2.81
  15  0.285  0.370  0.327-  76 2.73  62 2.73  80 2.74  36 2.77  50 2.78  28 2.78  57 2.80  41 2.80
                            43 2.81   9 2.81  13 2.81   3 2.82
  16  0.288  0.118  0.024-   8 2.78  53 2.78  54 2.79  18 2.79  48 2.80  10 2.80  24 2.81  44 2.81
                            75 2.81
  17  0.537  0.617  0.023-  25 2.78  22 2.78  60 2.80  42 2.80  58 2.80  75 2.80  64 2.80  59 2.81
                            24 2.81
  18  0.288  0.367  0.024-  53 2.77  61 2.78  42 2.79  16 2.79  46 2.79  10 2.80  59 2.81  44 2.81
                             6 2.81
  19  0.620  0.951  0.126-  71 2.73  20 2.73  69 2.74  44 2.77  75 2.78   4 2.78  21 2.80  53 2.80
                             8 2.80  25 2.81  78 2.81   7 2.82
  20  0.700  0.786  0.226-   1 2.73  19 2.73  25 2.73  56 2.73  73 2.74  21 2.74  69 2.79  67 2.80
                            66 2.80  12 2.80  55 2.81  71 2.81
  21  0.869  0.701  0.127-  12 2.73  55 2.73  20 2.74   4 2.78  58 2.78   6 2.78  19 2.80  45 2.80
                            46 2.81  25 2.81  70 2.81  78 2.81
  22  0.619  0.452  0.126-  79 2.73  67 2.73  51 2.74  42 2.78  17 2.78  64 2.79   7 2.80  25 2.80
                            61 2.80  60 2.80  45 2.81  11 2.82
  23  0.283  0.870  0.327-  26 2.73  68 2.73  66 2.74  29 2.78  31 2.79  37 2.79  47 2.80  57 2.80
                            73 2.80   2 2.81  14 2.81  13 2.81
  24  0.288  0.868  0.023-   8 2.78  60 2.78  49 2.79  75 2.80   5 2.80  48 2.80  16 2.81  17 2.81
                            59 2.82
  25  0.618  0.702  0.126-  67 2.73  20 2.73  66 2.75  75 2.77  17 2.78  58 2.79   8 2.80  60 2.80
                            22 2.80  45 2.81  21 2.81  19 2.81
  26  0.203  0.036  0.227-  54 2.72  23 2.73  49 2.73  47 2.73  13 2.73   8 2.74  66 2.80  69 2.80
                            65 2.81  68 2.81  77 2.81  62 2.81
  27  0.865  0.953  0.429-   1 2.78   2 2.78  72 2.78  40 2.79  35 2.79  39 2.80  34 2.80  32 2.81
                            29 2.83
  28  0.117  0.453  0.429-   9 2.77   3 2.78  15 2.78  36 2.80  35 2.80  33 2.81  30 2.81  39 2.81
                            50 2.82
  29  0.117  0.954  0.429-  23 2.78  47 2.78   2 2.79  32 2.79  33 2.80  39 2.80  37 2.80  31 2.81
                            27 2.83
  30  0.867  0.453  0.429-  56 2.78  63 2.78   9 2.78  38 2.80  35 2.80  52 2.80  33 2.81  28 2.81
                            32 2.82
  31  0.368  0.953  0.430-  13 2.78  73 2.78  23 2.79  34 2.79  52 2.80  37 2.81  29 2.81  33 2.81
                            36 2.82
  32  0.867  0.202  0.429-  72 2.77  63 2.78  47 2.78  29 2.79  40 2.80  38 2.81  27 2.81  33 2.81
                            30 2.82
  33  0.117  0.203  0.429-   9 2.78  47 2.78  13 2.78  29 2.80  28 2.81  30 2.81  32 2.81  31 2.81
                            36 2.81
  34  0.616  0.952  0.430-  73 2.78  43 2.78  31 2.79   1 2.79  52 2.80  27 2.80  36 2.81  35 2.81
                            40 2.81
  35  0.867  0.703  0.429-   3 2.78  56 2.78   1 2.79  27 2.79  39 2.80  30 2.80  28 2.80  34 2.81
                            52 2.82
  36  0.367  0.204  0.430-  15 2.77  13 2.78  43 2.79  40 2.80  28 2.80  50 2.80  34 2.81  33 2.81
                            31 2.82
  37  0.366  0.703  0.430-  81 1.76  57 2.78  23 2.79  14 2.79  50 2.80  39 2.80  29 2.80  31 2.81
                            52 2.81  38 2.82
  38  0.618  0.453  0.430-  81 1.76  14 2.78  41 2.78  63 2.79  30 2.80  50 2.80  52 2.80  32 2.81
                            40 2.81  37 2.82
  39  0.116  0.705  0.430-   3 2.78  57 2.78   2 2.78  37 2.80  35 2.80  27 2.80  29 2.80  28 2.81
                            50 2.83
  40  0.618  0.202  0.429-  43 2.78  41 2.78  72 2.79  27 2.79  36 2.80  32 2.80  50 2.80  38 2.81
                            34 2.81
  41  0.535  0.369  0.327-  80 2.73  51 2.73  79 2.74  40 2.78  38 2.78  50 2.78  14 2.80  72 2.80
                            63 2.80  15 2.80  43 2.81  57 2.82
  42  0.536  0.368  0.024-   7 2.78  22 2.78  18 2.79  61 2.79  59 2.80  17 2.80  44 2.81  64 2.81
                            74 2.83
  43  0.535  0.119  0.327-  80 2.73  69 2.73  71 2.74  40 2.78  34 2.78  36 2.79   1 2.79  13 2.80
                            72 2.80  15 2.81  73 2.81  41 2.81
  44  0.539  0.117  0.024-  19 2.77   7 2.78  53 2.79   4 2.80  42 2.81  74 2.81  16 2.81  18 2.81
                            75 2.81
  45  0.869  0.452  0.127-  77 2.72  12 2.73  67 2.74  58 2.77  64 2.78  10 2.79  11 2.80  21 2.80
                            25 2.81  22 2.81  54 2.81  46 2.81
  46  0.120  0.452  0.127-  62 2.73  76 2.73  12 2.74  10 2.78   6 2.78  18 2.79  54 2.80  70 2.80
                            61 2.80  21 2.81  45 2.81  53 2.82
  47  0.035  0.120  0.326-  77 2.73  26 2.73  65 2.73  32 2.78  33 2.78  29 2.78  23 2.80  63 2.80
                             2 2.81   9 2.81  13 2.81  72 2.81
  48  0.038  0.118  0.024-  49 2.77  11 2.78  54 2.78  16 2.80  10 2.80  24 2.80  64 2.81  74 2.81
                             5 2.82
  49  0.120  0.952  0.127-  68 2.73  26 2.73  65 2.74  48 2.77   5 2.78  24 2.79  60 2.80   8 2.80
                            11 2.81  78 2.81  54 2.81  70 2.82
  50  0.369  0.453  0.430-  81 1.73  15 2.78  57 2.78  41 2.78  37 2.80  38 2.80  36 2.80  40 2.80
                            28 2.82  39 2.83
  51  0.451  0.536  0.227-  61 2.73  14 2.73  41 2.73  60 2.73  57 2.74  22 2.74  66 2.80  76 2.80
                            67 2.80  80 2.80  68 2.80  79 2.81
  52  0.616  0.703  0.430-  14 2.78  73 2.79  56 2.79  34 2.80  38 2.80  31 2.80  30 2.80  37 2.81
                            35 2.82
  53  0.371  0.201  0.127-  69 2.72  80 2.73  62 2.74  18 2.77  16 2.78  44 2.79  19 2.80   7 2.80
                            61 2.80  54 2.80   8 2.81  46 2.82
  54  0.121  0.202  0.127-  26 2.72  62 2.73  77 2.73  10 2.78  48 2.78  16 2.79  46 2.80  53 2.80
                             8 2.81  11 2.81  45 2.81  49 2.81
  55  0.951  0.786  0.227-  78 2.73  21 2.73   2 2.73   1 2.73   3 2.73  70 2.74  71 2.80  12 2.80
                            20 2.81  76 2.81  68 2.81  65 2.81
  56  0.784  0.620  0.327-  12 2.73  20 2.73  67 2.74  30 2.78  35 2.78  52 2.79  63 2.80   1 2.80
                            73 2.80  14 2.81   9 2.81   3 2.81
  57  0.284  0.620  0.327-  76 2.73  68 2.73  51 2.74  37 2.78  50 2.78  39 2.78  23 2.80  14 2.80
                            15 2.80   3 2.80   2 2.82  41 2.82
  58  0.787  0.616  0.024-  45 2.77  21 2.78  25 2.79  10 2.80  17 2.80  64 2.80  75 2.80   6 2.81
                             4 2.82
  59  0.287  0.618  0.024-  60 2.77  61 2.78   5 2.78  70 2.79  42 2.80   6 2.81  17 2.81  18 2.81
                            24 2.82
  60  0.369  0.702  0.126-  66 2.73  51 2.73  68 2.75  59 2.77  24 2.78  49 2.80  25 2.80  17 2.80
                            22 2.80  61 2.81  70 2.81   8 2.81
  61  0.369  0.452  0.127-  80 2.73  51 2.73  76 2.74  18 2.78  59 2.78  42 2.79  46 2.80  22 2.80
                            53 2.80  70 2.80  60 2.81   7 2.81
  62  0.203  0.286  0.227-  15 2.73  13 2.73  46 2.73  54 2.73   9 2.74  53 2.74  80 2.80  76 2.80
                            69 2.80  26 2.81  77 2.81  12 2.82
  63  0.785  0.370  0.326-  79 2.73  67 2.73  77 2.73  32 2.78  30 2.78  38 2.79  56 2.80  41 2.80
                            47 2.80   9 2.81  14 2.81  72 2.81
  64  0.787  0.367  0.024-  11 2.77  45 2.78  22 2.79  74 2.80  58 2.80  17 2.80  48 2.81  42 2.81
                            10 2.82
  65  0.952  0.036  0.226-  11 2.72   2 2.73  78 2.73  47 2.73  72 2.74  49 2.74  68 2.80  79 2.80
                            71 2.81  26 2.81  77 2.81  55 2.81
  66  0.451  0.786  0.227-  60 2.73  73 2.73   8 2.73  14 2.73  23 2.74  25 2.75  51 2.80  26 2.80
                            68 2.80  67 2.80  20 2.80  69 2.81
  67  0.701  0.536  0.226-  25 2.73  22 2.73  63 2.73  56 2.74  45 2.74  14 2.74  79 2.80  20 2.80
                            66 2.80  51 2.80  12 2.81  77 2.81
  68  0.201  0.786  0.227-  70 2.73  49 2.73  23 2.73  57 2.73   2 2.74  60 2.75  66 2.80  65 2.80
                            76 2.80  51 2.80  26 2.81  55 2.81
  69  0.452  0.035  0.227-  53 2.72  43 2.73   8 2.73  73 2.73  19 2.74  13 2.74  20 2.79  26 2.80
                            71 2.80  62 2.80  80 2.81  66 2.81
  70  0.119  0.702  0.127-  68 2.73  76 2.73  55 2.74   5 2.78   6 2.78  59 2.79  78 2.80  46 2.80
                            61 2.80  60 2.81  21 2.81  49 2.82
  71  0.702  0.036  0.226-   7 2.72  19 2.73  72 2.73   1 2.73  78 2.74  43 2.74  55 2.80  80 2.80
                            69 2.80  65 2.81  79 2.81  20 2.81
  72  0.784  0.119  0.326-  71 2.73  79 2.73  65 2.74  32 2.77  27 2.78   2 2.79  40 2.79  41 2.80
                            43 2.80   1 2.81  47 2.81  63 2.81
  73  0.533  0.869  0.327-  66 2.73  69 2.73  20 2.74  34 2.78  31 2.78  52 2.79  13 2.80  14 2.80
                            23 2.80   1 2.80  56 2.80  43 2.81
  74  0.789  0.117  0.024-  78 2.77  11 2.78   7 2.79  64 2.80  44 2.81   4 2.81  48 2.81   5 2.81
                            42 2.83
  75  0.538  0.867  0.023-  25 2.77  19 2.78   8 2.79  24 2.80  17 2.80  58 2.80   4 2.81  44 2.81
                            16 2.81
  76  0.201  0.536  0.227-  15 2.73  57 2.73  46 2.73  70 2.73   3 2.73  61 2.74  51 2.80  62 2.80
                            68 2.80  55 2.81  12 2.81  80 2.82
  77  0.952  0.286  0.227-  45 2.72  47 2.73  11 2.73   9 2.73  54 2.73  63 2.73  12 2.80  79 2.81
                            65 2.81  26 2.81  62 2.81  67 2.81
  78  0.870  0.951  0.126-  55 2.73  65 2.73  71 2.74  74 2.77   4 2.78   5 2.79  70 2.80  49 2.81
                             7 2.81  19 2.81  21 2.81  11 2.81
  79  0.702  0.286  0.226-  22 2.73  63 2.73   7 2.73  72 2.73  11 2.74  41 2.74  67 2.80  80 2.80
                            65 2.80  77 2.81  51 2.81  71 2.81
  80  0.453  0.286  0.227-  61 2.73  41 2.73  53 2.73  43 2.73  15 2.74   7 2.74  62 2.80  71 2.80
                            79 2.80  51 2.80  69 2.81  76 2.82
  81  0.450  0.536  0.460-  50 1.73  37 1.76  38 1.76
 
  LATTYP: Found a hexagonal cell.
 ALAT       =    11.2227001190
 C/A-ratio  =     1.9603125600
  
  Lattice vectors:
  
 A1 = (   5.6113500595,  -9.7191434021,   0.0000000000)
 A2 = ( -11.2227001190,   0.0000000000,   0.0000000000)
 A3 = (   0.0000000000,   0.0000000000, -22.0000000000)


Analysis of symmetry for initial positions (statically):
=====================================================================
 Subroutine PRICEL returns:
 Original cell was already a primitive cell.
 

 Routine SETGRP: Setting up the symmetry group for a 
 hexagonal supercell.


 Subroutine GETGRP returns: Found  1 space group operations
 (whereof  1 operations were pure point group operations)
 out of a pool of 24 trial point group operations.


The static configuration has the point symmetry C_1 .


Analysis of symmetry for dynamics (positions and initial velocities):
=====================================================================
 Subroutine PRICEL returns:
 Original cell was already a primitive cell.
 

 Routine SETGRP: Setting up the symmetry group for a 
 hexagonal supercell.


 Subroutine GETGRP returns: Found  1 space group operations
 (whereof  1 operations were pure point group operations)
 out of a pool of 24 trial point group operations.


The dynamic configuration has the point symmetry C_1 .


Analysis of structural, dynamic, and magnetic symmetry:
=====================================================================
 Subroutine PRICEL returns:
 Original cell was already a primitive cell.
 

 Routine SETGRP: Setting up the symmetry group for a 
 hexagonal supercell.


 Subroutine GETGRP returns: Found  1 space group operations
 (whereof  1 operations were pure point group operations)
 out of a pool of 24 trial point group operations.


The magnetic configuration has the point symmetry C_1 .


 Subroutine INISYM returns: Found  1 space group operations
 (whereof  1 operations are pure point group operations),
 and found     1 'primitive' translations

 
 
 KPOINTS: mesh auto                               

Automatic generation of k-mesh.
Space group operators:
 irot       det(A)        alpha          n_x          n_y          n_z        tau_x        tau_y        tau_z
    1     1.000000     0.000000     1.000000     0.000000     0.000000     0.000000     0.000000     0.000000
 
 Subroutine IBZKPT returns following result:
 ===========================================
 
 Found      4 irreducible k-points:
 
 Following reciprocal coordinates:
            Coordinates               Weight
  0.000000  0.000000  0.000000      1.000000
  0.500000  0.000000  0.000000      1.000000
  0.000000  0.500000  0.000000      1.000000
  0.500000  0.500000  0.000000      1.000000
 
 Following cartesian coordinates:
            Coordinates               Weight
  0.000000  0.000000  0.000000      1.000000
  0.044553 -0.025722  0.000000      1.000000
  0.000000  0.051445  0.000000      1.000000
  0.044553  0.025722  0.000000      1.000000
 


--------------------------------------------------------------------------------------------------------




 Dimension of arrays:
   k-points           NKPTS =      4   k-points in BZ     NKDIM =      4   number of bands    NBANDS=    530
   number of dos      NEDOS =    301   number of ions     NIONS =     81
   non local maximal  LDIM  =      6   non local SUM 2l+1 LMDIM =     18
   total plane-waves  NPLWV = ******
   max r-space proj   IRMAX =   7929   max aug-charges    IRDMAX=  34542
   dimension x,y,z NGX =    90 NGY =   90 NGZ =  168
   dimension x,y,z NGXF=   180 NGYF=  180 NGZF=  336
   support grid    NGXF=   180 NGYF=  180 NGZF=  336
   ions per type =              80   1
   NGX,Y,Z   is equivalent  to a cutoff of  13.33, 13.33, 12.70 a.u.
   NGXF,Y,Z  is equivalent  to a cutoff of  26.66, 26.66, 25.39 a.u.

 SYSTEM =  Pt111                                   
 POSCAR =  Pt111                                   

 Startparameter for this run:
   NWRITE =      2    write-flag & timer
   PREC   = accura    normal or accurate (medium, high low for compatibility)
   ISTART =      0    job   : 0-new  1-cont  2-samecut
   ICHARG =      2    charge: 1-file 2-atom 10-const
   ISPIN  =      2    spin polarized calculation?
   LNONCOLLINEAR =      F non collinear calculations
   LSORBIT =      F    spin-orbit coupling
   INIWAV =      1    electr: 0-lowe 1-rand  2-diag
   LASPH  =      F    aspherical Exc in radial PAW
   METAGGA=      F    non-selfconsistent MetaGGA calc.

 Electronic Relaxation 1
   ENCUT  =  550.0 eV  40.42 Ry    6.36 a.u.  21.46 21.46 42.07*2*pi/ulx,y,z
   ENINI  =  550.0     initial cutoff
   ENAUG  =  400.0 eV  augmentation charge cutoff
   NELM   =    200;   NELMIN=  2; NELMDL= -5     # of ELM steps 
   EDIFF  = 0.1E-04   stopping-criterion for ELM
   LREAL  =      T    real-space projection
   NLSPLINE    = F    spline interpolate recip. space projectors
   LCOMPAT=      F    compatible to vasp.4.4
   GGA_COMPAT  = T    GGA compatible to vasp.4.4-vasp.4.6
   LMAXPAW     = -100 max onsite density
   LMAXMIX     =    2 max onsite mixed and CHGCAR
   VOSKOWN=      0    Vosko Wilk Nusair interpolation
   ROPT   =   -0.00025  -0.00025
 Ionic relaxation
   EDIFFG = -.5E-01   stopping-criterion for IOM
   NSW    =    300    number of steps for IOM
   NBLOCK =      1;   KBLOCK =    300    inner block; outer block 
   IBRION =      2    ionic relax: 0-MD 1-quasi-New 2-CG
   NFREE  =      1    steps in history (QN), initial steepest desc. (CG)
   ISIF   =      2    stress and relaxation
   IWAVPR =     11    prediction:  0-non 1-charg 2-wave 3-comb
   ISYM   =      2    0-nonsym 1-usesym 2-fastsym
   LCORR  =      T    Harris-Foulkes like correction to forces

   POTIM  = 0.5000    time-step for ionic-motion
   TEIN   =    0.0    initial temperature
   TEBEG  =    0.0;   TEEND  =   0.0 temperature during run
   SMASS  =  -3.00    Nose mass-parameter (am)
   estimated Nose-frequenzy (Omega)   =  0.10E-29 period in steps =****** mass=  -0.288E-26a.u.
   SCALEE = 1.0000    scale energy and forces
   NPACO  =    256;   APACO  = 16.0  distance and # of slots for P.C.
   PSTRESS=    0.0 pullay stress

  Mass of Ions in am
   POMASS = 195.08  1.00
  Ionic Valenz
   ZVAL   =  10.00  1.00
  Atomic Wigner-Seitz radii
   RWIGS  =  -1.00 -1.00
  virtual crystal weights 
   VCA    =   1.00  1.00
   NELECT =     801.0000    total number of electrons
   NUPDOWN=      -1.0000    fix difference up-down

 DOS related values:
   EMIN   =  10.00;   EMAX   =-10.00  energy-range for DOS
   EFERMI =   0.00
   ISMEAR =     1;   SIGMA  =   0.10  broadening in eV -4-tet -1-fermi 0-gaus

 Electronic relaxation 2 (details)
   IALGO  =     68    algorithm
   LDIAG  =      T    sub-space diagonalisation (order eigenvalues)
   LSUBROT=      F    optimize rotation matrix (better conditioning)
   TURBO    =      0    0=normal 1=particle mesh
   IRESTART =      0    0=no restart 2=restart with 2 vectors
   NREBOOT  =      0    no. of reboots
   NMIN     =      0    reboot dimension
   EREF     =   0.00    reference energy to select bands
   IMIX   =      4    mixing-type and parameters
     AMIX     =   0.40;   BMIX     =  1.00
     AMIX_MAG =   1.60;   BMIX_MAG =  1.00
     AMIN     =   0.10
     WC   =   100.;   INIMIX=   1;  MIXPRE=   1;  MAXMIX= -45

 Intra band minimization:
   WEIMIN = 0.0010     energy-eigenvalue tresh-hold
   EBREAK =  0.47E-08  absolut break condition
   DEPER  =   0.30     relativ break condition  

   TIME   =   0.40     timestep for ELM

  volume/ion in A,a.u.               =      29.63       199.92
  Fermi-wavevector in a.u.,A,eV,Ry     =   1.135629  2.146027 17.546785  1.289652
  Thomas-Fermi vector in A             =   2.272333
 
 Write flags
   LWAVE        =      F    write WAVECAR
   LDOWNSAMPLE  =      F    k-point downsampling of WAVECAR
   LCHARG       =      F    write CHGCAR
   LVTOT        =      F    write LOCPOT, total local potential
   LVHAR        =      F    write LOCPOT, Hartree potential only
   LELF         =      F    write electronic localiz. function (ELF)
   LORBIT       =      0    0 simple, 1 ext, 2 COOP (PROOUT), +10 PAW based schemes


 Dipole corrections
   LMONO  =      F    monopole corrections only (constant potential shift)
   LDIPOL =      F    correct potential (dipole corrections)
   IDIPOL =      0    1-x, 2-y, 3-z, 4-all directions 
   EPSILON=  1.0000000 bulk dielectric constant

 Exchange correlation treatment:
   GGA     =    --    GGA type
   LEXCH   =     8    internal setting for exchange type
   VOSKOWN=      0    Vosko Wilk Nusair interpolation
   LHFCALC =     F    Hartree Fock is set to
   LHFONE  =     F    Hartree Fock one center treatment
   AEXX    =    0.0000 exact exchange contribution

 Linear response parameters
   LEPSILON=     F    determine dielectric tensor
   LRPA    =     F    only Hartree local field effects (RPA)
   LNABLA  =     F    use nabla operator in PAW spheres
   LVEL    =     F    velocity operator in full k-point grid
   LINTERFAST=   F  fast interpolation
   KINTER  =     0    interpolate to denser k-point grid
   CSHIFT  =0.1000    complex shift for real part using Kramers Kronig
   OMEGAMAX=  -1.0    maximum frequency
   DEG_THRESHOLD= 0.2000000E-02 threshold for treating states as degnerate
   RTIME   =   -0.100 relaxation time in fs
  (WPLASMAI=    0.000 imaginary part of plasma frequency in eV, 0.658/RTIME)
   DFIELD  = 0.0000000 0.0000000 0.0000000 field for delta impulse in time
 
 Orbital magnetization related:
   ORBITALMAG=     F  switch on orbital magnetization
   LCHIMAG   =     F  perturbation theory with respect to B field
   DQ        =  0.001000  dq finite difference perturbation B field
   LLRAUG    =     F  two centre corrections for induced B field



--------------------------------------------------------------------------------------------------------


 conjugate gradient relaxation of ions
 charge density and potential will be updated during run
 spin polarized calculation
 RMM-DIIS sequential band-by-band and
  variant of blocked Davidson during initial phase
 perform sub-space diagonalisation
    before iterative eigenvector-optimisation
 modified Broyden-mixing scheme, WC =      100.0
 initial mixing is a Kerker type mixing with AMIX =  0.4000 and BMIX =      1.0000
 Hartree-type preconditioning will be used
 using additional bands          129
 real space projection scheme for non local part
 use partial core corrections
 calculate Harris-corrections to forces 
   (improved forces if not selfconsistent)
 use gradient corrections 
 use of overlap-Matrix (Vanderbilt PP)
 Methfessel and Paxton  Order N= 1 SIGMA  =   0.10


--------------------------------------------------------------------------------------------------------


  energy-cutoff  :      550.00
  volume of cell :     2399.65
      direct lattice vectors                 reciprocal lattice vectors
    11.222700119  0.000000000  0.000000000     0.089105116 -0.051444863  0.000000000
     5.611350060  9.719143402  0.000000000     0.000000000  0.102889726  0.000000000
     0.000000000  0.000000000 22.000000000     0.000000000  0.000000000  0.045454545

  length of vectors
    11.222700119 11.222700119 22.000000000     0.102889726  0.102889726  0.045454545


 
 k-points in units of 2pi/SCALE and weight: mesh auto                               
   0.00000000  0.00000000  0.00000000       0.250
   0.04455256 -0.02572243  0.00000000       0.250
   0.00000000  0.05144486  0.00000000       0.250
   0.04455256  0.02572243  0.00000000       0.250
 
 k-points in reciprocal lattice and weights: mesh auto                               
   0.00000000  0.00000000  0.00000000       0.250
   0.50000000  0.00000000  0.00000000       0.250
   0.00000000  0.50000000  0.00000000       0.250
   0.50000000  0.50000000  0.00000000       0.250
 
 position of ions in fractional coordinates (direct lattice) 
   0.78285249  0.86958112  0.32632110
   0.03272566  0.87077083  0.32655064
   0.03386912  0.62016396  0.32689126
   0.78770805  0.86721782  0.02369474
   0.03934512  0.86613806  0.02391227
   0.03714436  0.61725294  0.02418593
   0.62022090  0.20185919  0.12643548
   0.37006139  0.95152562  0.12648463
   0.03482814  0.36988505  0.32684378
   0.03801677  0.36805671  0.02432800
   0.87040561  0.20185206  0.12663649
   0.95091950  0.53621608  0.22693567
   0.28502747  0.11936912  0.32701242
   0.53358368  0.61943576  0.32694926
   0.28526899  0.36987403  0.32708023
   0.28780267  0.11807465  0.02401998
   0.53736070  0.61703677  0.02312277
   0.28819562  0.36685469  0.02440054
   0.61984917  0.95118953  0.12625532
   0.70049224  0.78562217  0.22644714
   0.86877765  0.70141017  0.12653819
   0.61862102  0.45201552  0.12646090
   0.28335818  0.86977773  0.32688577
   0.28793943  0.86801527  0.02347027
   0.61849418  0.70151320  0.12621454
   0.20250078  0.03565404  0.22678662
   0.86534653  0.95290497  0.42913125
   0.11741032  0.45324796  0.42938171
   0.11680753  0.95393801  0.42944464
   0.86687128  0.45344987  0.42939761
   0.36755745  0.95263365  0.42976576
   0.86728002  0.20222271  0.42879000
   0.11711821  0.20318283  0.42938175
   0.61593340  0.95229331  0.42951156
   0.86738546  0.70307730  0.42942952
   0.36740001  0.20388047  0.42959408
   0.36596442  0.70345638  0.43000530
   0.61794634  0.45283616  0.42961729
   0.11618302  0.70459067  0.42960481
   0.61761683  0.20223839  0.42932927
   0.53547107  0.36916394  0.32677809
   0.53630284  0.36800595  0.02381377
   0.53468942  0.11891174  0.32665727
   0.53878451  0.11660877  0.02375904
   0.86919974  0.45178938  0.12665798
   0.11967918  0.45191878  0.12732364
   0.03460856  0.11987569  0.32642056
   0.03842758  0.11809966  0.02425102
   0.12032559  0.95177815  0.12659525
   0.36856369  0.45304269  0.42962551
   0.45098294  0.53623860  0.22687244
   0.61646134  0.70285863  0.42979542
   0.37096328  0.20126851  0.12691347
   0.12070997  0.20223601  0.12715904
   0.95050311  0.78609686  0.22655288
   0.78353054  0.61970191  0.32676770
   0.28374931  0.62012828  0.32714466
   0.78727945  0.61647671  0.02362530
   0.28702703  0.61754617  0.02398694
   0.36897233  0.70185508  0.12640073
   0.36908939  0.45183140  0.12708179
   0.20324402  0.28576853  0.22720979
   0.78478962  0.36956703  0.32647683
   0.78704340  0.36690387  0.02397947
   0.95192023  0.03616888  0.22627349
   0.45073617  0.78550421  0.22662200
   0.70058490  0.53619773  0.22648699
   0.20094012  0.78606011  0.22678767
   0.45230632  0.03531359  0.22658454
   0.11904825  0.70151079  0.12698740
   0.70180678  0.03576327  0.22611924
   0.78438568  0.11921387  0.32617624
   0.53328076  0.86909905  0.32664587
   0.78885100  0.11683920  0.02396434
   0.53776417  0.86652142  0.02337092
   0.20142634  0.53624396  0.22729539
   0.95232412  0.28637455  0.22666136
   0.87038089  0.95121854  0.12629720
   0.70211037  0.28623016  0.22641872
   0.45273497  0.28567567  0.22686156
   0.45000000  0.53600000  0.46000000
 
 position of ions in cartesian coordinates  (Angst):
  13.66524277  8.45158357  7.17906429
   5.25347023  8.46314661  7.18411401
   3.86006006  6.02746246  7.19160780
  13.70647401  8.42861437  0.52128432
   5.30176235  8.41811997  0.52606995
   3.88048232  5.99916984  0.53209056
   8.09325571  1.96189843  2.78158065
   9.49243131  9.24801393  2.78266196
   2.46642024  3.59496586  7.19056327
   2.49194587  3.57719596  0.53521602
  10.90096369  1.96182915  2.78600268
  13.68078057  5.21156098  4.99258479
   3.86859968  1.16016557  7.19427334
   9.46412054  6.02038497  7.19288374
   5.27698102  3.59485870  7.19576507
   3.89248117  1.14758441  0.52843966
   9.49304735  5.99706884  0.50870087
   5.29288315  3.56551338  0.53681181
  12.29383884  9.24474748  2.77761706
  12.26981536  7.63557451  4.98183717
  13.68588906  6.81710599  2.78384011
   9.47901557  4.39320369  2.78213972
   8.06067118  8.45349449  7.19148696
   8.10219538  8.43636490  0.51634604
  10.87761082  6.81810735  2.77671989
   2.47267281  0.34652669  4.98930564
  15.05860795  9.26142002  9.44088741
   3.86099380  4.40518197  9.44639767
   6.66377604  9.27146032  9.44778202
  12.27310233  4.40714427  9.44674746
   9.47054796  9.25878303  9.45484669
  10.86796597  1.96543150  9.43337995
   2.45451248  1.97476306  9.44639856
  12.25608696  9.25547520  9.44925424
  13.67961972  6.83330912  9.44744943
   5.26726482  1.98154355  9.45106985
   8.05444891  6.83699340  9.46011671
   9.47604863  4.40117958  9.45158043
   5.25759215  6.84801780  9.45130578
   8.06615889  1.96558391  9.44524397
   8.08093939  3.58795731  7.18911796
   8.08377616  3.57670262  0.52390294
   6.66791445  1.15572027  7.18645985
   6.70094963  1.13333732  0.52269881
  12.28991640  4.39100581  2.78647565
   3.87899800  4.39226343  2.80112002
   1.06106598  1.16508905  7.18125228
   1.09395970  1.14782750  0.53352236
   6.69113843  9.25046830  2.78509554
   6.67846086  4.40318689  9.45176114
   8.07026877  5.21177984  4.99119366
  10.86234654  6.83118383  9.45549918
   5.29259770  1.95615748  2.79209629
   2.48950887  1.96556077  2.79749892
  15.07827604  7.64018808  4.98416337
  12.27069268  6.02297171  7.18888934
   6.66419029  6.02711572  7.19718260
  12.29466776  5.99162556  0.51975659
   6.68648604  6.00201977  0.52771278
   8.07922037  6.82143020  2.78081604
   6.67756371  4.39141414  2.79579936
   3.88449389  2.77742530  4.99861545
  10.88122859  3.59187500  7.18249034
  10.89157816  3.56599132  0.52754845
  10.88607151  0.35153050  4.97801684
   9.46621590  7.63442803  4.98568407
  10.87124741  5.21138258  4.98271380
   6.66594914  7.63983089  4.98932866
   5.27425516  0.34321789  4.98485990
   5.27246537  6.81808393  2.79372283
   8.07684730  0.34758833  4.97462333
   9.47187599  1.15865667  7.17587733
  10.86166904  8.44689826  7.18620906
   9.50866384  1.13557694  0.52721542
  10.89752105  8.42184593  0.51416023
   5.26959998  5.21183196  5.00049850
  12.29459589  2.78331534  4.98655001
  15.10564395  9.24502942  2.77853829
   9.48571174  2.78191196  4.98121194
   6.68393501  2.77652281  4.99095430
   8.05789869  5.20946086 10.12000000
 


--------------------------------------------------------------------------------------------------------


 k-point  1 :   0.0000 0.0000 0.0000  plane waves:   70321
 k-point  2 :   0.5000 0.0000 0.0000  plane waves:   70264
 k-point  3 :   0.0000 0.5000 0.0000  plane waves:   70264
 k-point  4 :   0.5000 0.5000 0.0000  plane waves:   70264

 maximum and minimum number of plane-waves per node :     17611    17530

 maximum number of plane-waves:     70321
 maximum index in each direction: 
   IXMAX=   21   IYMAX=   21   IZMAX=   42
   IXMIN=  -21   IYMIN=  -21   IZMIN=  -42


 real space projection operators:
  total allocation   :      86167.06 KBytes
  max/ min on nodes  :      22020.12      21069.43


 parallel 3D FFT for wavefunctions:
    minimum data exchange during FFTs selected (reduces bandwidth)
 parallel 3D FFT for charge:
    minimum data exchange during FFTs selected (reduces bandwidth)


 total amount of memory used by VASP MPI-rank0   262828. kBytes
=======================================================================

   base      :      30000. kBytes
   nonlr-proj:      37990. kBytes
   fftplans  :      20287. kBytes
   grid      :      52194. kBytes
   one-center:        653. kBytes
   wavefun   :     121704. kBytes
 
     INWAV:  cpu time    0.0000: real time    0.0000
 Broyden mixing: mesh for mixing (old mesh)
   NGX = 43   NGY = 43   NGZ = 85
  (NGX  =180   NGY  =180   NGZ  =336)
  gives a total of 157165 points

 initial charge density was supplied:
 charge density of overlapping atoms calculated
 number of electron     801.0000000 magnetization      81.0000000
 keeping initial charge density in first step


--------------------------------------------------------------------------------------------------------


 Maximum index for non-local projection operator         2105
 Maximum index for augmentation-charges         1781 (set IRDMAX)


--------------------------------------------------------------------------------------------------------


 First call to EWALD:  gamma=   0.132
 Maximum number of real-space cells 4x 4x 2
 Maximum number of reciprocal cells 2x 2x 4

    FEWALD:  cpu time    0.0041: real time    0.0041


--------------------------------------- Iteration      1(   1)  ---------------------------------------


    POTLOK:  cpu time    0.4893: real time    0.4935
    SETDIJ:  cpu time    0.0413: real time    0.0417
     EDDAV:  cpu time   68.1576: real time   68.3269
       DOS:  cpu time    0.0019: real time    0.0020
    --------------------------------------------
      LOOP:  cpu time   68.6902: real time   68.8641

 eigenvalue-minimisations  :  8480
 total energy-change (2. order) : 0.5508905E+04  (-0.3887661E+05)
 number of electron     801.0000000 magnetization      81.0000000
 augmentation part      801.0000000 magnetization      81.0000000

 Free energy of the ion-electron system (eV)
  ---------------------------------------------------
  alpha Z        PSCENC =      2539.23836485
  Ewald energy   TEWEN  =    180560.45809579
  -Hartree energ DENC   =   -244621.01126966
  -exchange      EXHF   =         0.00000000
  -V(xc)+E(xc)   XCENC  =       290.70314526
  PAW double counting   =     55685.49641431   -53423.17961727
  entropy T*S    EENTRO =        -0.00136558
  eigenvalues    EBANDS =      6135.46971164
  atomic energy  EATOM  =     58341.73154849
  Solvation  Ediel_sol  =         0.00000000
  ---------------------------------------------------
  free energy    TOTEN  =      5508.90502784 eV

  energy without entropy =     5508.90639342  energy(sigma->0) =     5508.90548303


--------------------------------------------------------------------------------------------------------




--------------------------------------- Iteration      1(   2)  ---------------------------------------


     EDDAV:  cpu time   74.6562: real time   74.8328
       DOS:  cpu time    0.0019: real time    0.0019
    --------------------------------------------
      LOOP:  cpu time   74.6581: real time   74.8347

 eigenvalue-minimisations  :  9540
 total energy-change (2. order) :-0.5697408E+04  (-0.5217403E+04)
 number of electron     801.0000000 magnetization      81.0000000
 augmentation part      801.0000000 magnetization      81.0000000

 Free energy of the ion-electron system (eV)
  ---------------------------------------------------
  alpha Z        PSCENC =      2539.23836485
  Ewald energy   TEWEN  =    180560.45809579
  -Hartree energ DENC   =   -244621.01126966
  -exchange      EXHF   =         0.00000000
  -V(xc)+E(xc)   XCENC  =       290.70314526
  PAW double counting   =     55685.49641431   -53423.17961727
  entropy T*S    EENTRO =         0.00287876
  eigenvalues    EBANDS =       438.05703534
  atomic energy  EATOM  =     58341.73154849
  Solvation  Ediel_sol  =         0.00000000
  ---------------------------------------------------
  free energy    TOTEN  =      -188.50340412 eV

  energy without entropy =     -188.50628288  energy(sigma->0) =     -188.50436371


--------------------------------------------------------------------------------------------------------




--------------------------------------- Iteration      1(   3)  ---------------------------------------


     EDDAV:  cpu time   74.7683: real time   74.9449
       DOS:  cpu time    0.0020: real time    0.0020
    --------------------------------------------
      LOOP:  cpu time   74.7703: real time   74.9470

 eigenvalue-minimisations  :  9590
 total energy-change (2. order) :-0.2975313E+03  (-0.2740352E+03)
 number of electron     801.0000000 magnetization      81.0000000
 augmentation part      801.0000000 magnetization      81.0000000

 Free energy of the ion-electron system (eV)
  ---------------------------------------------------
  alpha Z        PSCENC =      2539.23836485
  Ewald energy   TEWEN  =    180560.45809579
  -Hartree energ DENC   =   -244621.01126966
  -exchange      EXHF   =         0.00000000
  -V(xc)+E(xc)   XCENC  =       290.70314526
  PAW double counting   =     55685.49641431   -53423.17961727
  entropy T*S    EENTRO =         0.10506938
  eigenvalues    EBANDS =       140.42349988
  atomic energy  EATOM  =     58341.73154849
  Solvation  Ediel_sol  =         0.00000000
  ---------------------------------------------------
  free energy    TOTEN  =      -486.03474897 eV

  energy without entropy =     -486.13981835  energy(sigma->0) =     -486.06977210


--------------------------------------------------------------------------------------------------------




--------------------------------------- Iteration      1(   4)  ---------------------------------------


     EDDAV:  cpu time   77.2546: real time   77.4377
       DOS:  cpu time    0.0020: real time    0.0020
    --------------------------------------------
      LOOP:  cpu time   77.2566: real time   77.4398

 eigenvalue-minimisations  : 10000
 total energy-change (2. order) :-0.7843023E+01  (-0.7758008E+01)
 number of electron     801.0000000 magnetization      81.0000000
 augmentation part      801.0000000 magnetization      81.0000000

 Free energy of the ion-electron system (eV)
  ---------------------------------------------------
  alpha Z        PSCENC =      2539.23836485
  Ewald energy   TEWEN  =    180560.45809579
  -Hartree energ DENC   =   -244621.01126966
  -exchange      EXHF   =         0.00000000
  -V(xc)+E(xc)   XCENC  =       290.70314526
  PAW double counting   =     55685.49641431   -53423.17961727
  entropy T*S    EENTRO =         0.10095489
  eigenvalues    EBANDS =       132.58459160
  atomic energy  EATOM  =     58341.73154849
  Solvation  Ediel_sol  =         0.00000000
  ---------------------------------------------------
  free energy    TOTEN  =      -493.87777173 eV

  energy without entropy =     -493.97872662  energy(sigma->0) =     -493.91142336


--------------------------------------------------------------------------------------------------------




--------------------------------------- Iteration      1(   5)  ---------------------------------------


     EDDAV:  cpu time   75.9231: real time   76.1018
       DOS:  cpu time    0.0021: real time    0.0021
    CHARGE:  cpu time    5.0880: real time    5.1001
    MIXING:  cpu time    0.0105: real time    0.0112
    --------------------------------------------
      LOOP:  cpu time   81.0238: real time   81.2153

 eigenvalue-minimisations  :  9780
 total energy-change (2. order) :-0.2813107E+00  (-0.2805060E+00)
 number of electron     801.0000006 magnetization      75.7564629
 augmentation part      233.1281177 magnetization      55.0629407

 Broyden mixing:
  rms(total) = 0.10414E+02    rms(broyden)= 0.10414E+02
  rms(prec ) = 0.10542E+02
  weight for this iteration     100.00

 Free energy of the ion-electron system (eV)
  ---------------------------------------------------
  alpha Z        PSCENC =      2539.23836485
  Ewald energy   TEWEN  =    180560.45809579
  -Hartree energ DENC   =   -244621.01126966
  -exchange      EXHF   =         0.00000000
  -V(xc)+E(xc)   XCENC  =       290.70314526
  PAW double counting   =     55685.49641431   -53423.17961727
  entropy T*S    EENTRO =         0.10108241
  eigenvalues    EBANDS =       132.30315342
  atomic energy  EATOM  =     58341.73154849
  Solvation  Ediel_sol  =         0.00000000
  ---------------------------------------------------
  free energy    TOTEN  =      -494.15908240 eV

  energy without entropy =     -494.26016481  energy(sigma->0) =     -494.19277653


--------------------------------------------------------------------------------------------------------




--------------------------------------- Iteration      1(   6)  ---------------------------------------


    POTLOK:  cpu time    0.4663: real time    0.4674
    SETDIJ:  cpu time    0.0395: real time    0.0396
    EDDIAG:  cpu time   12.1438: real time   12.1732
  RMM-DIIS:  cpu time   43.2282: real time   43.3300
    ORTHCH:  cpu time    1.2085: real time    1.2113
       DOS:  cpu time    0.0021: real time    0.0021
    CHARGE:  cpu time    5.0504: real time    5.0623
    MIXING:  cpu time    0.0111: real time    0.0113
    --------------------------------------------
      LOOP:  cpu time   62.1500: real time   62.2972

 eigenvalue-minimisations  :  8525
 total energy-change (2. order) : 0.1599620E+02  (-0.8112582E+01)
 number of electron     801.0000003 magnetization      71.7684762
 augmentation part      245.9749505 magnetization      52.0552504

 Broyden mixing:
  rms(total) = 0.81060E+01    rms(broyden)= 0.81060E+01
  rms(prec ) = 0.88961E+01
  weight for this iteration     100.00

 eigenvalues of (default mixing * dielectric matrix)
  average eigenvalue GAMMA=   0.8446
  0.8446

 Free energy of the ion-electron system (eV)
  ---------------------------------------------------
  alpha Z        PSCENC =      2539.23836485
  Ewald energy   TEWEN  =    180560.45809579
  -Hartree energ DENC   =   -243646.38073613
  -exchange      EXHF   =         0.00000000
  -V(xc)+E(xc)   XCENC  =       273.19868547
  PAW double counting   =     62143.63018770   -60002.21514158
  entropy T*S    EENTRO =        -0.04922305
  eigenvalues    EBANDS =      -687.77466455
  atomic energy  EATOM  =     58341.73154849
  Solvation  Ediel_sol  =         0.00000000
  ---------------------------------------------------
  free energy    TOTEN  =      -478.16288301 eV

  energy without entropy =     -478.11365996  energy(sigma->0) =     -478.14647533


--------------------------------------------------------------------------------------------------------




--------------------------------------- Iteration      1(   7)  ---------------------------------------


    POTLOK:  cpu time    0.4701: real time    0.4712
    SETDIJ:  cpu time    0.0391: real time    0.0392
    EDDIAG:  cpu time   12.1420: real time   12.1708
  RMM-DIIS:  cpu time   42.4838: real time   42.5839
    ORTHCH:  cpu time    1.2076: real time    1.2105
       DOS:  cpu time    0.0021: real time    0.0021
    CHARGE:  cpu time    5.1351: real time    5.1472
    MIXING:  cpu time    0.0113: real time    0.0113
    --------------------------------------------
      LOOP:  cpu time   61.4911: real time   61.6362

 eigenvalue-minimisations  :  8508
 total energy-change (2. order) :-0.1096659E+03  (-0.1341482E+02)
 number of electron     801.0000011 magnetization      63.9064533
 augmentation part      239.7648948 magnetization      54.0701497

 Broyden mixing:
  rms(total) = 0.96949E+01    rms(broyden)= 0.96949E+01
  rms(prec ) = 0.12367E+02
  weight for this iteration     100.00

 eigenvalues of (default mixing * dielectric matrix)
  average eigenvalue GAMMA=   0.8050
  1.3221  0.2879

 Free energy of the ion-electron system (eV)
  ---------------------------------------------------
  alpha Z        PSCENC =      2539.23836485
  Ewald energy   TEWEN  =    180560.45809579
  -Hartree energ DENC   =   -244618.96827531
  -exchange      EXHF   =         0.00000000
  -V(xc)+E(xc)   XCENC  =       266.60068201
  PAW double counting   =     65603.36582488   -63499.76887520
  entropy T*S    EENTRO =        -0.02736173
  eigenvalues    EBANDS =       219.54117388
  atomic energy  EATOM  =     58341.73154849
  Solvation  Ediel_sol  =         0.00000000
  ---------------------------------------------------
  free energy    TOTEN  =      -587.82882234 eV

  energy without entropy =     -587.80146061  energy(sigma->0) =     -587.81970176


--------------------------------------------------------------------------------------------------------




--------------------------------------- Iteration      1(   8)  ---------------------------------------


    POTLOK:  cpu time    0.4720: real time    0.4731
    SETDIJ:  cpu time    0.0400: real time    0.0401
    EDDIAG:  cpu time   12.1558: real time   12.1847
  RMM-DIIS:  cpu time   42.8312: real time   42.9321
    ORTHCH:  cpu time    1.2246: real time    1.2275
       DOS:  cpu time    0.0020: real time    0.0020
    CHARGE:  cpu time    5.1171: real time    5.1293
    MIXING:  cpu time    0.0117: real time    0.0117
    --------------------------------------------
      LOOP:  cpu time   61.8545: real time   62.0005

 eigenvalue-minimisations  :  8523
 total energy-change (2. order) : 0.1115457E+03  (-0.6304487E+01)
 number of electron     801.0000008 magnetization      61.0038008
 augmentation part      249.9606217 magnetization      47.7959690

 Broyden mixing:
  rms(total) = 0.52710E+01    rms(broyden)= 0.52710E+01
  rms(prec ) = 0.68080E+01
  weight for this iteration     100.00

 eigenvalues of (default mixing * dielectric matrix)
  average eigenvalue GAMMA=   0.9015
  1.9167  0.5341  0.2536

 Free energy of the ion-electron system (eV)
  ---------------------------------------------------
  alpha Z        PSCENC =      2539.23836485
  Ewald energy   TEWEN  =    180560.45809579
  -Hartree energ DENC   =   -243804.63393557
  -exchange      EXHF   =         0.00000000
  -V(xc)+E(xc)   XCENC  =       266.70815674
  PAW double counting   =     70530.83653803   -68493.92567264
  entropy T*S    EENTRO =         0.06301862
  eigenvalues    EBANDS =      -416.75922928
  atomic energy  EATOM  =     58341.73154849
  Solvation  Ediel_sol  =         0.00000000
  ---------------------------------------------------
  free energy    TOTEN  =      -476.28311496 eV

  energy without entropy =     -476.34613358  energy(sigma->0) =     -476.30412117


--------------------------------------------------------------------------------------------------------




--------------------------------------- Iteration      1(   9)  ---------------------------------------


    POTLOK:  cpu time    0.4743: real time    0.4754
    SETDIJ:  cpu time    0.0400: real time    0.0401
    EDDIAG:  cpu time   12.1604: real time   12.1893
  RMM-DIIS:  cpu time   42.5580: real time   42.6582
    ORTHCH:  cpu time    1.2172: real time    1.2201
       DOS:  cpu time    0.0021: real time    0.0021
    CHARGE:  cpu time    5.1145: real time    5.1266
    MIXING:  cpu time    0.0121: real time    0.0122
    --------------------------------------------
      LOOP:  cpu time   61.5786: real time   61.7240

 eigenvalue-minimisations  :  8518
 total energy-change (2. order) :-0.5200083E+02  (-0.5666487E+01)
 number of electron     801.0000004 magnetization      58.3357221
 augmentation part      247.3512856 magnetization      43.5975258

 Broyden mixing:
  rms(total) = 0.73457E+01    rms(broyden)= 0.73457E+01
  rms(prec ) = 0.11740E+02
  weight for this iteration     100.00

 eigenvalues of (default mixing * dielectric matrix)
  average eigenvalue GAMMA=   0.7923
  2.1874  0.5862  0.2518  0.1437

 Free energy of the ion-electron system (eV)
  ---------------------------------------------------
  alpha Z        PSCENC =      2539.23836485
  Ewald energy   TEWEN  =    180560.45809579
  -Hartree energ DENC   =   -243728.39210987
  -exchange      EXHF   =         0.00000000
  -V(xc)+E(xc)   XCENC  =       268.36683578
  PAW double counting   =     71523.86824931   -69493.81549452
  entropy T*S    EENTRO =         0.00217569
  eigenvalues    EBANDS =      -539.74160662
  atomic energy  EATOM  =     58341.73154849
  Solvation  Ediel_sol  =         0.00000000
  ---------------------------------------------------
  free energy    TOTEN  =      -528.28394109 eV

  energy without entropy =     -528.28611678  energy(sigma->0) =     -528.28466632


--------------------------------------------------------------------------------------------------------




--------------------------------------- Iteration      1(  10)  ---------------------------------------


    POTLOK:  cpu time    0.4747: real time    0.4758
    SETDIJ:  cpu time    0.0488: real time    0.0490
    EDDIAG:  cpu time   12.1288: real time   12.1576
  RMM-DIIS:  cpu time   42.5895: real time   42.6899
    ORTHCH:  cpu time    1.2121: real time    1.2150
       DOS:  cpu time    0.0020: real time    0.0020
    CHARGE:  cpu time    5.0445: real time    5.0565
    MIXING:  cpu time    0.0125: real time    0.0125
    --------------------------------------------
      LOOP:  cpu time   61.5131: real time   61.6583

 eigenvalue-minimisations  :  8524
 total energy-change (2. order) : 0.5943262E+02  (-0.2246210E+01)
 number of electron     801.0000007 magnetization      55.0041060
 augmentation part      249.5469574 magnetization      41.9386973

 Broyden mixing:
  rms(total) = 0.47134E+01    rms(broyden)= 0.47134E+01
  rms(prec ) = 0.58848E+01
  weight for this iteration     100.00

 eigenvalues of (default mixing * dielectric matrix)
  average eigenvalue GAMMA=   0.7164
  2.3174  0.5970  0.3285  0.2190  0.1203

 Free energy of the ion-electron system (eV)
  ---------------------------------------------------
  alpha Z        PSCENC =      2539.23836485
  Ewald energy   TEWEN  =    180560.45809579
  -Hartree energ DENC   =   -243769.51030576
  -exchange      EXHF   =         0.00000000
  -V(xc)+E(xc)   XCENC  =       268.92267703
  PAW double counting   =     72344.12373028   -70321.18926585
  entropy T*S    EENTRO =        -0.03440430
  eigenvalues    EBANDS =      -432.59176534
  atomic energy  EATOM  =     58341.73154849
  Solvation  Ediel_sol  =         0.00000000
  ---------------------------------------------------
  free energy    TOTEN  =      -468.85132482 eV

  energy without entropy =     -468.81692052  energy(sigma->0) =     -468.83985672


--------------------------------------------------------------------------------------------------------




--------------------------------------- Iteration      1(  11)  ---------------------------------------


    POTLOK:  cpu time    0.4670: real time    0.4681
    SETDIJ:  cpu time    0.0393: real time    0.0393
    EDDIAG:  cpu time   12.1124: real time   12.1411
  RMM-DIIS:  cpu time   42.7781: real time   42.8789
    ORTHCH:  cpu time    1.2052: real time    1.2081
       DOS:  cpu time    0.0020: real time    0.0020
    CHARGE:  cpu time    5.0654: real time    5.0938
    MIXING:  cpu time    0.0133: real time    0.0133
    --------------------------------------------
      LOOP:  cpu time   61.6826: real time   61.8448

 eigenvalue-minimisations  :  8523
 total energy-change (2. order) : 0.1440469E+02  (-0.9511136E+00)
 number of electron     801.0000005 magnetization      53.3408807
 augmentation part      249.2868574 magnetization      38.4407661

 Broyden mixing:
  rms(total) = 0.30409E+01    rms(broyden)= 0.30409E+01
  rms(prec ) = 0.46700E+01
  weight for this iteration     100.00

 eigenvalues of (default mixing * dielectric matrix)
  average eigenvalue GAMMA=   0.6846
  2.1076  0.6675  0.6675  0.2801  0.2801  0.1051

 Free energy of the ion-electron system (eV)
  ---------------------------------------------------
  alpha Z        PSCENC =      2539.23836485
  Ewald energy   TEWEN  =    180560.45809579
  -Hartree energ DENC   =   -243824.24795921
  -exchange      EXHF   =         0.00000000
  -V(xc)+E(xc)   XCENC  =       269.48133212
  PAW double counting   =     72968.16705858   -70948.40881357
  entropy T*S    EENTRO =        -0.15431908
  eigenvalues    EBANDS =      -360.71194527
  atomic energy  EATOM  =     58341.73154849
  Solvation  Ediel_sol  =         0.00000000
  ---------------------------------------------------
  free energy    TOTEN  =      -454.44663731 eV

  energy without entropy =     -454.29231823  energy(sigma->0) =     -454.39519761


--------------------------------------------------------------------------------------------------------




--------------------------------------- Iteration      1(  12)  ---------------------------------------


    POTLOK:  cpu time    0.4692: real time    0.4704
    SETDIJ:  cpu time    0.0394: real time    0.0395
    EDDIAG:  cpu time   12.2428: real time   12.2820
  RMM-DIIS:  cpu time   42.7632: real time   42.8640
    ORTHCH:  cpu time    1.2066: real time    1.2095
       DOS:  cpu time    0.0022: real time    0.0022
    CHARGE:  cpu time    5.0531: real time    5.0659
    MIXING:  cpu time    0.0137: real time    0.0137
    --------------------------------------------
      LOOP:  cpu time   61.7903: real time   61.9472

 eigenvalue-minimisations  :  8537
 total energy-change (2. order) : 0.8027546E+00  (-0.5169156E+00)
 number of electron     801.0000007 magnetization      51.4026696
 augmentation part      248.4303028 magnetization      33.9341881

 Broyden mixing:
  rms(total) = 0.19281E+01    rms(broyden)= 0.19281E+01
  rms(prec ) = 0.25284E+01
  weight for this iteration     100.00

 eigenvalues of (default mixing * dielectric matrix)
  average eigenvalue GAMMA=   0.6741
  1.9831  0.8716  0.8716  0.3613  0.2630  0.2630  0.1049

 Free energy of the ion-electron system (eV)
  ---------------------------------------------------
  alpha Z        PSCENC =      2539.23836485
  Ewald energy   TEWEN  =    180560.45809579
  -Hartree energ DENC   =   -243874.76529430
  -exchange      EXHF   =         0.00000000
  -V(xc)+E(xc)   XCENC  =       269.26312244
  PAW double counting   =     72401.78256985   -70371.26088653
  entropy T*S    EENTRO =        -0.01104835
  eigenvalues    EBANDS =      -320.08035493
  atomic energy  EATOM  =     58341.73154849
  Solvation  Ediel_sol  =         0.00000000
  ---------------------------------------------------
  free energy    TOTEN  =      -453.64388269 eV

  energy without entropy =     -453.63283434  energy(sigma->0) =     -453.64019991


--------------------------------------------------------------------------------------------------------




--------------------------------------- Iteration      1(  13)  ---------------------------------------


    POTLOK:  cpu time    0.4692: real time    0.4703
    SETDIJ:  cpu time    0.0389: real time    0.0390
    EDDIAG:  cpu time   12.1250: real time   12.1539
  RMM-DIIS:  cpu time   42.7029: real time   42.8037
    ORTHCH:  cpu time    1.2432: real time    1.2461
       DOS:  cpu time    0.0021: real time    0.0021
    CHARGE:  cpu time    5.0393: real time    5.0513
    MIXING:  cpu time    0.0143: real time    0.0143
    --------------------------------------------
      LOOP:  cpu time   61.6350: real time   61.7807

 eigenvalue-minimisations  :  8529
 total energy-change (2. order) :-0.1793924E+01  (-0.3833172E+00)
 number of electron     801.0000005 magnetization      49.0960305
 augmentation part      248.1721464 magnetization      30.9675571

 Broyden mixing:
  rms(total) = 0.16643E+01    rms(broyden)= 0.16643E+01
  rms(prec ) = 0.21498E+01
  weight for this iteration     100.00

 eigenvalues of (default mixing * dielectric matrix)
  average eigenvalue GAMMA=   0.6733
  1.9611  1.0400  1.0400  0.3768  0.3768  0.1050  0.2434  0.2434

 Free energy of the ion-electron system (eV)
  ---------------------------------------------------
  alpha Z        PSCENC =      2539.23836485
  Ewald energy   TEWEN  =    180560.45809579
  -Hartree energ DENC   =   -243910.60054633
  -exchange      EXHF   =         0.00000000
  -V(xc)+E(xc)   XCENC  =       268.00718520
  PAW double counting   =     72186.04445109   -70152.65445882
  entropy T*S    EENTRO =         0.00967079
  eigenvalues    EBANDS =      -287.67211804
  atomic energy  EATOM  =     58341.73154849
  Solvation  Ediel_sol  =         0.00000000
  ---------------------------------------------------
  free energy    TOTEN  =      -455.43780697 eV

  energy without entropy =     -455.44747775  energy(sigma->0) =     -455.44103056


--------------------------------------------------------------------------------------------------------




--------------------------------------- Iteration      1(  14)  ---------------------------------------


    POTLOK:  cpu time    0.4696: real time    0.4707
    SETDIJ:  cpu time    0.0393: real time    0.0394
    EDDIAG:  cpu time   12.1296: real time   12.1585
  RMM-DIIS:  cpu time   43.0600: real time   43.1615
    ORTHCH:  cpu time    1.2091: real time    1.2119
       DOS:  cpu time    0.0021: real time    0.0021
    CHARGE:  cpu time    5.1187: real time    5.1307
    MIXING:  cpu time    0.0146: real time    0.0146
    --------------------------------------------
      LOOP:  cpu time   62.0430: real time   62.1895

 eigenvalue-minimisations  :  8523
 total energy-change (2. order) :-0.3190337E+01  (-0.1472950E+00)
 number of electron     801.0000006 magnetization      47.3576743
 augmentation part      248.2126373 magnetization      29.1912927

 Broyden mixing:
  rms(total) = 0.11362E+01    rms(broyden)= 0.11362E+01
  rms(prec ) = 0.13563E+01
  weight for this iteration     100.00

 eigenvalues of (default mixing * dielectric matrix)
  average eigenvalue GAMMA=   0.6877
  1.9889  1.1665  1.1665  0.4691  0.4691  0.3254  0.2495  0.2495  0.1049

 Free energy of the ion-electron system (eV)
  ---------------------------------------------------
  alpha Z        PSCENC =      2539.23836485
  Ewald energy   TEWEN  =    180560.45809579
  -Hartree energ DENC   =   -243924.38556901
  -exchange      EXHF   =         0.00000000
  -V(xc)+E(xc)   XCENC  =       265.60528027
  PAW double counting   =     72352.23987417   -70322.00122180
  entropy T*S    EENTRO =         0.09423213
  eigenvalues    EBANDS =      -271.60874908
  atomic energy  EATOM  =     58341.73154849
  Solvation  Ediel_sol  =         0.00000000
  ---------------------------------------------------
  free energy    TOTEN  =      -458.62814419 eV

  energy without entropy =     -458.72237632  energy(sigma->0) =     -458.65955490


--------------------------------------------------------------------------------------------------------




--------------------------------------- Iteration      1(  15)  ---------------------------------------


    POTLOK:  cpu time    0.4712: real time    0.4723
    SETDIJ:  cpu time    0.0390: real time    0.0391
    EDDIAG:  cpu time   12.1407: real time   12.1697
  RMM-DIIS:  cpu time   42.9695: real time   43.0708
    ORTHCH:  cpu time    1.2161: real time    1.2189
       DOS:  cpu time    0.0022: real time    0.0022
    CHARGE:  cpu time    5.1387: real time    5.1508
    MIXING:  cpu time    0.0154: real time    0.0154
    --------------------------------------------
      LOOP:  cpu time   61.9928: real time   62.1393

 eigenvalue-minimisations  :  8524
 total energy-change (2. order) :-0.2389265E+01  (-0.1276227E+00)
 number of electron     801.0000006 magnetization      43.5345691
 augmentation part      248.2482376 magnetization      25.7809252

 Broyden mixing:
  rms(total) = 0.87677E+00    rms(broyden)= 0.87677E+00
  rms(prec ) = 0.10247E+01
  weight for this iteration     100.00

 eigenvalues of (default mixing * dielectric matrix)
  average eigenvalue GAMMA=   0.7404
  1.8024  1.5423  1.5423  0.7959  0.4455  0.4455  0.1049  0.2540  0.2540  0.2178

 Free energy of the ion-electron system (eV)
  ---------------------------------------------------
  alpha Z        PSCENC =      2539.23836485
  Ewald energy   TEWEN  =    180560.45809579
  -Hartree energ DENC   =   -243925.17230994
  -exchange      EXHF   =         0.00000000
  -V(xc)+E(xc)   XCENC  =       264.00166449
  PAW double counting   =     72410.19178750   -70381.17390710
  entropy T*S    EENTRO =         0.14845421
  eigenvalues    EBANDS =      -270.44110714
  atomic energy  EATOM  =     58341.73154849
  Solvation  Ediel_sol  =         0.00000000
  ---------------------------------------------------
  free energy    TOTEN  =      -461.01740885 eV

  energy without entropy =     -461.16586306  energy(sigma->0) =     -461.06689359


--------------------------------------------------------------------------------------------------------




--------------------------------------- Iteration      1(  16)  ---------------------------------------


    POTLOK:  cpu time    0.4746: real time    0.4757
    SETDIJ:  cpu time    0.0393: real time    0.0394
    EDDIAG:  cpu time   12.1810: real time   12.2099
  RMM-DIIS:  cpu time   43.1316: real time   43.2333
    ORTHCH:  cpu time    1.2067: real time    1.2096
       DOS:  cpu time    0.0022: real time    0.0022
    CHARGE:  cpu time    5.1363: real time    5.1484
    MIXING:  cpu time    0.0151: real time    0.0151
    --------------------------------------------
      LOOP:  cpu time   62.1867: real time   62.3335

 eigenvalue-minimisations  :  8523
 total energy-change (2. order) :-0.4236236E+01  (-0.2986193E+00)
 number of electron     801.0000005 magnetization      42.2618933
 augmentation part      248.1866773 magnetization      25.4225718

 Broyden mixing:
  rms(total) = 0.78016E+00    rms(broyden)= 0.78015E+00
  rms(prec ) = 0.10480E+01
  weight for this iteration     100.00

 eigenvalues of (default mixing * dielectric matrix)
  average eigenvalue GAMMA=   0.7396
  2.0069  2.0069  0.9946  0.9946  0.5023  0.5023  0.1049  0.3051  0.2501  0.2501
  0.2176

 Free energy of the ion-electron system (eV)
  ---------------------------------------------------
  alpha Z        PSCENC =      2539.23836485
  Ewald energy   TEWEN  =    180560.45809579
  -Hartree energ DENC   =   -243920.24072779
  -exchange      EXHF   =         0.00000000
  -V(xc)+E(xc)   XCENC  =       261.70667128
  PAW double counting   =     72357.63125324   -70328.15732701
  entropy T*S    EENTRO =         0.17824195
  eigenvalues    EBANDS =      -277.79976540
  atomic energy  EATOM  =     58341.73154849
  Solvation  Ediel_sol  =         0.00000000
  ---------------------------------------------------
  free energy    TOTEN  =      -465.25364459 eV

  energy without entropy =     -465.43188654  energy(sigma->0) =     -465.31305858


--------------------------------------------------------------------------------------------------------




--------------------------------------- Iteration      1(  17)  ---------------------------------------


    POTLOK:  cpu time    0.4776: real time    0.4787
    SETDIJ:  cpu time    0.0392: real time    0.0393
    EDDIAG:  cpu time   12.1500: real time   12.1787
  RMM-DIIS:  cpu time   42.9387: real time   43.0400
    ORTHCH:  cpu time    1.2097: real time    1.2126
       DOS:  cpu time    0.0021: real time    0.0021
    CHARGE:  cpu time    5.0931: real time    5.1052
    MIXING:  cpu time    0.0154: real time    0.0155
    --------------------------------------------
      LOOP:  cpu time   61.9259: real time   62.0721

 eigenvalue-minimisations  :  8516
 total energy-change (2. order) :-0.8502520E+00  (-0.4876673E-01)
 number of electron     801.0000006 magnetization      41.5119085
 augmentation part      248.1048203 magnetization      24.6672115

 Broyden mixing:
  rms(total) = 0.61522E+00    rms(broyden)= 0.61522E+00
  rms(prec ) = 0.79881E+00
  weight for this iteration     100.00

 eigenvalues of (default mixing * dielectric matrix)
  average eigenvalue GAMMA=   0.7158
  2.0615  2.0615  0.9978  0.9978  0.5049  0.5049  0.1049  0.3238  0.3238  0.2484
  0.2484  0.2114

 Free energy of the ion-electron system (eV)
  ---------------------------------------------------
  alpha Z        PSCENC =      2539.23836485
  Ewald energy   TEWEN  =    180560.45809579
  -Hartree energ DENC   =   -243920.36281995
  -exchange      EXHF   =         0.00000000
  -V(xc)+E(xc)   XCENC  =       261.03068795
  PAW double counting   =     72353.77751218   -70323.90851356
  entropy T*S    EENTRO =         0.19424636
  eigenvalues    EBANDS =      -278.26301874
  atomic energy  EATOM  =     58341.73154849
  Solvation  Ediel_sol  =         0.00000000
  ---------------------------------------------------
  free energy    TOTEN  =      -466.10389662 eV

  energy without entropy =     -466.29814298  energy(sigma->0) =     -466.16864540


--------------------------------------------------------------------------------------------------------




--------------------------------------- Iteration      1(  18)  ---------------------------------------


    POTLOK:  cpu time    0.4780: real time    0.4791
    SETDIJ:  cpu time    0.0394: real time    0.0394
    EDDIAG:  cpu time   12.1445: real time   12.1732
  RMM-DIIS:  cpu time   43.1700: real time   43.2717
    ORTHCH:  cpu time    1.2083: real time    1.2111
       DOS:  cpu time    0.0021: real time    0.0021
    CHARGE:  cpu time    5.0524: real time    5.0643
    MIXING:  cpu time    0.0158: real time    0.0158
    --------------------------------------------
      LOOP:  cpu time   62.1103: real time   62.2568

 eigenvalue-minimisations  :  8520
 total energy-change (2. order) :-0.4922395E+00  (-0.1360296E-01)
 number of electron     801.0000006 magnetization      39.9205634
 augmentation part      248.0779569 magnetization      23.0857019

 Broyden mixing:
  rms(total) = 0.51919E+00    rms(broyden)= 0.51919E+00
  rms(prec ) = 0.65290E+00
  weight for this iteration     100.00

 eigenvalues of (default mixing * dielectric matrix)
  average eigenvalue GAMMA=   0.7376
  2.1819  2.1819  0.9799  0.9799  0.6629  0.6629  0.4259  0.4259  0.1049  0.2514
  0.2514  0.2658  0.2134

 Free energy of the ion-electron system (eV)
  ---------------------------------------------------
  alpha Z        PSCENC =      2539.23836485
  Ewald energy   TEWEN  =    180560.45809579
  -Hartree energ DENC   =   -243919.18568748
  -exchange      EXHF   =         0.00000000
  -V(xc)+E(xc)   XCENC  =       260.58178235
  PAW double counting   =     72361.91610998   -70331.98436181
  entropy T*S    EENTRO =         0.19808373
  eigenvalues    EBANDS =      -279.55007199
  atomic energy  EATOM  =     58341.73154849
  Solvation  Ediel_sol  =         0.00000000
  ---------------------------------------------------
  free energy    TOTEN  =      -466.59613608 eV

  energy without entropy =     -466.79421981  energy(sigma->0) =     -466.66216399


--------------------------------------------------------------------------------------------------------




--------------------------------------- Iteration      1(  19)  ---------------------------------------


    POTLOK:  cpu time    0.4739: real time    0.4750
    SETDIJ:  cpu time    0.0391: real time    0.0392
    EDDIAG:  cpu time   12.1566: real time   12.1855
  RMM-DIIS:  cpu time   43.0120: real time   43.1133
    ORTHCH:  cpu time    1.2049: real time    1.2078
       DOS:  cpu time    0.0021: real time    0.0021
    CHARGE:  cpu time    5.0986: real time    5.1106
    MIXING:  cpu time    0.0167: real time    0.0167
    --------------------------------------------
      LOOP:  cpu time   62.0038: real time   62.1502

 eigenvalue-minimisations  :  8501
 total energy-change (2. order) :-0.1039559E+01  (-0.3367040E-01)
 number of electron     801.0000006 magnetization      37.2244759
 augmentation part      248.0655212 magnetization      20.6685947

 Broyden mixing:
  rms(total) = 0.44784E+00    rms(broyden)= 0.44784E+00
  rms(prec ) = 0.55595E+00
  weight for this iteration     100.00

 eigenvalues of (default mixing * dielectric matrix)
  average eigenvalue GAMMA=   0.8188
  3.2593  1.9987  1.0902  1.0902  0.8517  0.8517  0.4611  0.4611  0.1049  0.3388
  0.2507  0.2507  0.2427  0.2109

 Free energy of the ion-electron system (eV)
  ---------------------------------------------------
  alpha Z        PSCENC =      2539.23836485
  Ewald energy   TEWEN  =    180560.45809579
  -Hartree energ DENC   =   -243913.67314252
  -exchange      EXHF   =         0.00000000
  -V(xc)+E(xc)   XCENC  =       259.67633030
  PAW double counting   =     72379.54459247   -70349.73747708
  entropy T*S    EENTRO =         0.19148480
  eigenvalues    EBANDS =      -285.06549265
  atomic energy  EATOM  =     58341.73154849
  Solvation  Ediel_sol  =         0.00000000
  ---------------------------------------------------
  free energy    TOTEN  =      -467.63569556 eV

  energy without entropy =     -467.82718036  energy(sigma->0) =     -467.69952383


--------------------------------------------------------------------------------------------------------




--------------------------------------- Iteration      1(  20)  ---------------------------------------


    POTLOK:  cpu time    0.4748: real time    0.4759
    SETDIJ:  cpu time    0.0392: real time    0.0393
    EDDIAG:  cpu time   12.1386: real time   12.1675
  RMM-DIIS:  cpu time   42.9828: real time   43.0844
    ORTHCH:  cpu time    1.2089: real time    1.2118
       DOS:  cpu time    0.0022: real time    0.0022
    CHARGE:  cpu time    5.1114: real time    5.1235
    MIXING:  cpu time    0.0171: real time    0.0172
    --------------------------------------------
      LOOP:  cpu time   61.9749: real time   62.1217

 eigenvalue-minimisations  :  8499
 total energy-change (2. order) :-0.9823089E+00  (-0.5470917E-01)
 number of electron     801.0000006 magnetization      35.6888245
 augmentation part      248.0193590 magnetization      19.6882110

 Broyden mixing:
  rms(total) = 0.31880E+00    rms(broyden)= 0.31880E+00
  rms(prec ) = 0.37765E+00
  weight for this iteration     100.00

 eigenvalues of (default mixing * dielectric matrix)
  average eigenvalue GAMMA=   0.8493
  3.8744  2.0431  1.2702  1.2702  0.7756  0.7756  0.5148  0.5148  0.1049  0.3602
  0.2893  0.2493  0.2493  0.2375  0.2103

[...]
   -.136E+00 0.747E-01 -.131E+04   0.135E+00 -.849E-01 0.131E+04   0.650E-02 -.406E-02 0.710E+00   -.297E-02 0.118E-01 -.204E+00
   -.110E+01 0.100E+01 -.131E+04   0.110E+01 -.101E+01 0.131E+04   -.238E-01 0.156E-01 0.747E+00   0.233E-01 -.169E-01 -.199E+00
   -.149E+01 0.231E+00 -.131E+04   0.149E+01 -.244E+00 0.131E+04   -.192E-01 0.114E-01 0.741E+00   0.301E-01 0.651E-02 -.212E+00
   0.246E+00 -.634E-01 0.260E+04   -.231E+00 0.515E-01 -.260E+04   -.294E-01 0.361E-01 -.144E+01   0.172E-02 -.113E-01 0.605E-01
   -.638E+00 0.131E+01 0.260E+04   0.643E+00 -.130E+01 -.260E+04   -.651E-02 -.304E-01 -.143E+01   0.243E-02 0.118E-01 0.522E-01
   -.562E+00 0.163E+00 0.260E+04   0.598E+00 -.143E+00 -.260E+04   -.204E-01 0.219E-01 -.144E+01   -.184E-01 -.365E-01 0.553E-01
   0.499E-01 -.526E+00 0.132E+04   -.283E-01 0.521E+00 -.132E+04   -.602E-02 0.247E-01 -.747E+00   -.198E-01 -.817E-02 0.598E-01
   0.748E+00 -.647E+00 0.132E+04   -.730E+00 0.594E+00 -.132E+04   -.148E-01 0.558E-02 -.728E+00   -.170E-01 0.500E-01 0.425E-01
   0.547E+00 0.101E+00 -.131E+04   -.512E+00 -.117E+00 0.131E+04   -.823E-02 0.358E-02 0.731E+00   -.337E-01 0.153E-01 -.264E+00
   -.343E+00 0.882E+00 0.260E+04   0.315E+00 -.864E+00 -.260E+04   0.613E-02 0.969E-02 -.146E+01   0.247E-01 -.259E-01 0.790E-01
   -.848E+00 -.343E+00 0.132E+04   0.793E+00 0.350E+00 -.132E+04   0.178E-02 0.741E-02 -.718E+00   0.584E-01 -.479E-02 0.389E-01
   0.312E-01 0.266E+00 0.551E+01   -.153E-01 -.241E+00 -.534E+01   0.149E-02 -.796E-02 -.312E-01   -.182E-01 -.223E-01 -.138E+00
   0.140E+00 0.194E+00 -.131E+04   -.162E+00 -.163E+00 0.131E+04   0.139E-01 -.134E-01 0.733E+00   0.146E-01 -.237E-01 -.278E+00
   0.288E+01 0.167E+01 -.133E+04   -.290E+01 -.165E+01 0.133E+04   0.727E-01 0.299E-01 0.656E+00   -.256E-01 -.408E-01 -.185E+00
   -.175E+01 -.862E+00 -.131E+04   0.181E+01 0.916E+00 0.131E+04   -.121E+00 -.760E-01 0.549E+00   0.817E-01 0.288E-01 -.225E+00
   0.123E+01 -.100E+01 0.260E+04   -.116E+01 0.942E+00 -.260E+04   -.498E-01 0.355E-01 -.146E+01   -.362E-01 0.407E-01 0.859E-01
   -.353E+00 -.424E+00 0.260E+04   0.349E+00 0.403E+00 -.260E+04   -.438E-03 0.124E-01 -.145E+01   0.137E-01 0.194E-01 0.594E-01
   0.326E+00 0.558E+00 0.260E+04   -.233E+00 -.518E+00 -.260E+04   -.243E-01 -.288E-01 -.143E+01   -.726E-01 -.180E-01 0.626E-01
   -.194E+00 0.149E+00 0.132E+04   0.223E+00 -.155E+00 -.132E+04   0.142E-01 -.628E-02 -.732E+00   -.345E-01 0.739E-02 0.395E-01
   -.442E+00 -.293E+00 0.354E+01   0.465E+00 0.307E+00 -.342E+01   0.408E-01 0.167E-01 -.159E-01   -.341E-01 -.150E-01 -.977E-01
   0.142E+00 -.119E+00 0.132E+04   -.139E+00 0.142E+00 -.132E+04   -.700E-02 0.223E-01 -.736E+00   0.309E-03 -.310E-01 0.204E-01
   -.336E+00 0.288E-01 0.132E+04   0.309E+00 -.282E-01 -.132E+04   0.739E-02 -.460E-03 -.699E+00   0.204E-01 0.196E-02 0.841E-01
   -.413E-01 0.170E+01 -.131E+04   0.301E-01 -.177E+01 0.131E+04   0.239E-02 0.148E+00 0.550E+00   0.998E-02 -.859E-01 -.232E+00
   -.202E+00 -.621E+00 0.260E+04   0.216E+00 0.514E+00 -.260E+04   -.102E-01 0.557E-01 -.142E+01   -.109E-01 0.657E-01 0.727E-01
   0.289E+00 0.368E+00 0.132E+04   -.298E+00 -.376E+00 -.132E+04   -.130E-01 -.900E-02 -.734E+00   0.155E-01 0.137E-01 0.770E-01
   0.171E+00 0.600E+00 0.863E+01   -.182E+00 -.577E+00 -.852E+01   0.372E-02 0.445E-02 0.291E-01   0.677E-02 -.430E-03 -.149E+00
   -.214E+00 -.709E+00 -.259E+04   0.218E+00 0.679E+00 0.259E+04   -.590E-02 0.493E-02 0.133E+01   0.381E-02 0.270E-01 -.829E-01
   0.138E+01 0.563E+00 -.259E+04   -.143E+01 -.588E+00 0.259E+04   0.572E-02 -.238E-01 0.136E+01   0.459E-01 0.430E-01 -.784E-01
   -.508E-01 -.111E+01 -.259E+04   0.420E-01 0.118E+01 0.259E+04   0.465E-01 -.119E-01 0.137E+01   -.230E-01 -.622E-01 -.874E-01
   -.309E+00 -.170E+00 -.259E+04   0.427E+00 0.124E+00 0.259E+04   -.361E-01 0.145E-01 0.137E+01   -.932E-01 0.383E-01 -.922E-01
   -.756E+00 -.494E+00 -.259E+04   0.728E+00 0.603E+00 0.259E+04   0.285E-01 -.362E-01 0.137E+01   0.142E-01 -.861E-01 -.955E-01
   -.358E+00 0.924E+00 -.259E+04   0.449E+00 -.966E+00 0.259E+04   -.515E-02 -.444E-03 0.138E+01   -.864E-01 0.386E-01 -.929E-01
   0.241E+00 0.352E+00 -.259E+04   -.208E+00 -.340E+00 0.259E+04   0.370E-04 -.193E-01 0.135E+01   -.288E-01 -.604E-03 -.854E-01
   0.671E+00 -.111E+00 -.259E+04   -.684E+00 0.110E+00 0.259E+04   -.167E-01 -.286E-02 0.133E+01   0.226E-01 0.438E-02 -.904E-01
   -.114E+00 0.665E+00 -.259E+04   0.994E-01 -.660E+00 0.259E+04   0.421E-01 -.251E-01 0.133E+01   -.892E-02 0.739E-02 -.836E-01
   0.611E+00 0.716E+00 -.259E+04   -.708E+00 -.764E+00 0.259E+04   0.165E-01 0.308E-01 0.137E+01   0.923E-01 0.254E-01 -.857E-01
   -.592E-01 -.333E+01 -.258E+04   0.489E-01 0.424E+01 0.258E+04   0.845E-04 -.861E+00 0.959E+00   0.143E-01 -.864E-01 -.111E+00
   -.361E+01 0.164E+01 -.258E+04   0.434E+01 -.207E+01 0.258E+04   -.700E+00 0.431E+00 0.957E+00   -.497E-01 0.177E-01 -.116E+00
   -.826E+01 0.398E+01 -.259E+04   0.780E+01 -.375E+01 0.259E+04   0.441E+00 -.223E+00 0.153E+01   0.546E-01 -.164E-01 -.855E-01
   -.750E+00 -.890E+01 -.259E+04   0.701E+00 0.839E+01 0.259E+04   0.276E-01 0.469E+00 0.155E+01   0.312E-01 0.622E-01 -.962E-01
   -.867E-01 -.337E+01 -.133E+04   0.464E-01 0.338E+01 0.133E+04   0.123E-01 -.832E-01 0.654E+00   0.322E-01 0.414E-01 -.163E+00
   0.801E+00 -.577E+00 0.260E+04   -.750E+00 0.540E+00 -.260E+04   -.384E-01 0.595E-01 -.144E+01   -.279E-01 -.120E-01 0.473E-01
   -.564E+00 -.177E+01 -.131E+04   0.529E+00 0.178E+01 0.131E+04   0.615E-02 -.325E-01 0.749E+00   0.417E-01 0.295E-01 -.205E+00
   0.431E+00 -.106E+01 0.260E+04   -.366E+00 0.106E+01 -.260E+04   -.184E-01 0.132E-01 -.143E+01   -.541E-01 0.471E-02 0.596E-01
   -.209E+00 0.765E+00 0.132E+04   0.159E+00 -.734E+00 -.132E+04   -.294E-02 -.932E-02 -.730E+00   0.473E-01 -.321E-01 0.321E-01
   0.124E+00 0.867E+00 0.132E+04   -.870E-01 -.828E+00 -.132E+04   -.116E-02 -.841E-02 -.736E+00   -.327E-01 -.403E-01 -.391E-02
   0.150E+00 -.158E+00 -.131E+04   -.111E+00 0.169E+00 0.131E+04   -.692E-02 -.121E-01 0.724E+00   -.371E-01 -.420E-02 -.252E+00
   -.106E+01 -.946E+00 0.260E+04   0.102E+01 0.907E+00 -.260E+04   -.853E-02 0.308E-01 -.146E+01   0.418E-01 0.207E-01 0.761E-01
   -.796E+00 -.597E+00 0.132E+04   0.771E+00 0.555E+00 -.132E+04   0.744E-02 0.529E-02 -.730E+00   0.291E-01 0.403E-01 0.304E-01
   0.229E+01 0.188E+01 -.258E+04   -.312E+01 -.230E+01 0.258E+04   0.777E+00 0.411E+00 0.970E+00   0.934E-01 0.218E-01 -.102E+00
   -.128E+00 0.207E+00 -.506E+01   0.105E+00 -.209E+00 0.515E+01   0.265E-04 -.537E-02 -.496E-01   0.213E-01 0.372E-02 -.140E-01
   0.796E+01 0.475E+01 -.259E+04   -.752E+01 -.447E+01 0.259E+04   -.409E+00 -.243E+00 0.155E+01   -.473E-01 -.485E-01 -.104E+00
   0.955E+00 -.255E+00 0.132E+04   -.885E+00 0.265E+00 -.132E+04   -.127E-01 0.268E-03 -.731E+00   -.666E-01 -.467E-02 0.170E-01
   -.145E+00 -.517E-01 0.133E+04   0.138E+00 0.431E-01 -.133E+04   -.535E-02 0.792E-02 -.563E+00   0.100E-01 0.530E-02 0.702E-02
   0.250E+00 -.778E-01 0.348E+01   -.263E+00 0.889E-01 -.335E+01   -.208E-01 0.110E-01 -.243E-01   0.163E-01 -.117E-01 -.106E+00
   0.165E+01 0.464E+00 -.131E+04   -.163E+01 -.471E+00 0.131E+04   0.342E-01 0.218E-01 0.740E+00   -.623E-01 -.456E-02 -.210E+00
   -.316E+01 0.181E+01 -.133E+04   0.313E+01 -.181E+01 0.133E+04   -.562E-01 0.308E-01 0.658E+00   0.711E-01 -.259E-01 -.181E+00
   0.736E+00 0.325E+00 0.260E+04   -.779E+00 -.305E+00 -.260E+04   -.148E-01 0.199E-02 -.143E+01   0.476E-01 -.235E-01 0.655E-01
   0.450E+00 -.129E+00 0.260E+04   -.410E+00 0.119E+00 -.260E+04   -.855E-02 0.128E-01 -.144E+01   -.468E-01 0.663E-02 0.505E-01
   -.900E-01 -.209E+00 0.132E+04   0.798E-01 0.173E+00 -.132E+04   0.122E-01 0.134E-01 -.703E+00   0.447E-02 0.265E-01 0.764E-01
   0.405E+00 -.438E-01 0.132E+04   -.359E+00 0.543E-01 -.132E+04   -.181E-01 -.503E-03 -.701E+00   -.356E-01 -.784E-02 0.503E-01
   -.125E+00 -.330E+00 0.862E+01   0.121E+00 0.340E+00 -.849E+01   -.133E-01 -.153E-01 0.222E-01   -.144E-01 -.149E-01 -.167E+00
   0.126E+01 -.671E+00 -.131E+04   -.132E+01 0.717E+00 0.131E+04   0.141E+00 -.866E-01 0.545E+00   -.834E-01 0.405E-01 -.200E+00
   -.343E+00 0.197E+00 0.260E+04   0.270E+00 -.159E+00 -.260E+04   -.216E-02 -.162E-01 -.143E+01   0.670E-01 -.244E-01 0.627E-01
   -.245E+00 0.645E-01 0.567E+01   0.222E+00 -.736E-01 -.553E+01   0.453E-02 -.100E-01 -.278E-01   0.221E-01 0.161E-01 -.107E+00
   -.174E+00 0.113E+01 0.129E+01   0.134E+00 -.109E+01 -.124E+01   0.495E-01 -.211E-01 0.366E-01   -.142E-02 -.104E-01 -.669E-01
   0.854E+00 -.391E+00 0.156E+01   -.842E+00 0.346E+00 -.153E+01   0.144E-01 0.445E-01 0.386E-01   -.157E-01 -.101E-02 -.532E-01
   0.210E+00 0.970E+00 0.130E+01   -.210E+00 -.937E+00 -.125E+01   -.428E-01 -.225E-01 0.378E-01   0.376E-01 -.734E-02 -.755E-01
   -.517E-01 0.158E+00 0.592E+01   0.737E-01 -.156E+00 -.575E+01   0.198E-02 -.263E-02 -.334E-01   -.225E-01 -.305E-02 -.132E+00
   -.495E+00 0.626E+00 0.132E+04   0.500E+00 -.612E+00 -.132E+04   0.130E-01 -.193E-01 -.742E+00   -.121E-01 -.614E-02 0.294E-01
   0.655E-01 0.436E+00 0.349E+01   -.574E-01 -.453E+00 -.339E+01   0.191E-03 -.368E-01 -.164E-01   -.102E-01 0.255E-01 -.835E-01
   0.292E+00 -.156E+01 -.131E+04   -.282E+00 0.155E+01 0.131E+04   -.150E-03 -.451E-01 0.738E+00   -.194E-01 0.503E-01 -.180E+00
   0.128E+01 0.144E+01 -.131E+04   -.130E+01 -.141E+01 0.131E+04   0.361E-01 0.494E-02 0.732E+00   -.103E-01 -.481E-01 -.225E+00
   0.267E-01 -.913E+00 0.260E+04   -.454E-01 0.919E+00 -.260E+04   -.109E-01 0.186E-01 -.142E+01   0.238E-01 -.129E-01 0.504E-01
   0.115E+01 0.718E+00 0.260E+04   -.113E+01 -.758E+00 -.260E+04   -.370E-01 -.709E-02 -.143E+01   -.109E-01 0.424E-01 0.717E-01
   -.827E+00 -.857E+00 0.134E+01   0.806E+00 0.828E+00 -.127E+01   -.667E-02 0.522E-01 0.367E-01   0.196E-01 -.147E-01 -.932E-01
   0.491E+00 -.382E+00 0.847E+01   -.478E+00 0.375E+00 -.837E+01   0.115E-01 -.611E-02 0.282E-01   -.511E-03 0.405E-05 -.135E+00
   0.185E+00 0.113E+00 0.132E+04   -.194E+00 -.107E+00 -.132E+04   -.137E-01 -.107E-01 -.737E+00   0.136E-01 -.267E-02 0.278E-01
   0.964E+00 -.617E+00 0.157E+01   -.925E+00 0.616E+00 -.155E+01   -.393E-01 -.339E-01 0.440E-01   0.183E-02 0.277E-01 -.390E-01
   -.136E+01 -.376E+00 0.127E+01   0.132E+01 0.394E+00 -.122E+01   0.475E-01 -.408E-01 0.367E-01   -.262E-03 0.114E-01 -.703E-01
   0.368E-01 0.221E-03 -.302E+03   -.546E-01 -.169E-02 0.304E+03   0.997E-02 0.128E-02 -.129E+01   0.267E-02 -.217E-02 -.752E-02
 -----------------------------------------------------------------------------------------------
   -.385E-01 -.691E-02 0.839E+01   -.548E-12 -.215E-12 -.381E-11   0.514E-01 0.483E-02 -.364E+01   0.153E-02 -.381E-02 -.480E+01
 
 
 POSITION                                       TOTAL-FORCE (eV/Angst)
 -----------------------------------------------------------------------------------
     13.68375      8.44869      7.19545         0.002624     -0.002356     -0.039398
      5.26870      8.45022      7.18891         0.000313     -0.009464      0.001753
      3.86298      6.01650      7.19026         0.011478      0.004817     -0.001661
     13.70247      8.43369      0.50865        -0.012821      0.012824      0.002736
      5.28274      8.43769      0.50593         0.000362     -0.010720     -0.000939
      3.88066      6.00591      0.50678        -0.002568      0.005703     -0.000943
      8.08287      1.96012      2.77598        -0.004696      0.012295     -0.015649
      9.48693      9.24746      2.77309        -0.013950      0.002399     -0.007373
      2.46275      3.58669      7.18785        -0.006324      0.002557      0.007301
      2.47758      3.57832      0.50624         0.001843      0.001893      0.000951
     10.88585      1.96223      2.77157         0.005019      0.009542     -0.000983
     13.68811      5.20562      4.98248        -0.000922     -0.006174      0.002195
      3.86183      1.16159      7.18750         0.006861     -0.006836      0.011560
      9.47134      6.01716      7.21307         0.016976      0.004122     -0.013629
      5.26845      3.59012      7.19710         0.018767      0.008208     -0.009433
      3.88622      1.14285      0.50622        -0.021872      0.016069      0.004931
      9.49067      6.00456      0.50767         0.008058      0.009909      0.003990
      5.28450      3.57762      0.50621        -0.004018     -0.004636      0.005688
     12.29082      9.25077      2.77511         0.008997     -0.004498      0.004731
     12.28243      7.63411      4.98483         0.028020      0.014558      0.005766
     13.69390      6.82093      2.77588        -0.003083      0.014023      0.000341
      9.48292      4.39212      2.77555         0.000187      0.002096     -0.001579
      8.07256      8.44744      7.19593         0.000858     -0.014234     -0.009186
      8.08967      8.43230      0.50601        -0.007844      0.013661      0.005144
     10.88777      6.82174      2.77476        -0.007555     -0.003369     -0.007866
      2.46602      0.34742      4.97636        -0.000606      0.028276     -0.005648
     15.08264      9.26097      9.46384         0.003898      0.001754     -0.008503
      3.84894      4.40294      9.46078         0.003201     -0.004437     -0.009326
      6.65706      9.27133      9.45851         0.014125     -0.007210     -0.002766
     12.28980      4.40042      9.45909        -0.010879      0.006463     -0.003520
      9.47405      9.27326      9.45952         0.014134     -0.013578     -0.006583
     10.88039      1.96311      9.45891        -0.001599     -0.003240     -0.006489
      2.45743      1.97310      9.46164         0.003470     -0.007215     -0.031403
     12.27730      9.26140      9.46419        -0.007367      0.000694     -0.011579
     13.67668      6.83313      9.46567         0.017786     -0.013602     -0.015074
      5.25672      1.96104      9.45975         0.012136      0.007313     -0.005685
      8.06770      6.89097      9.49180         0.004216     -0.007851      0.008236
      9.51981      4.37171      9.49034         0.004761      0.005378      0.012773
      5.22853      6.84890      9.45487         0.030999     -0.009188      0.006894
      8.06630      1.93569      9.45353         0.009077      0.019506      0.011979
      8.07185      3.59353      7.21312         0.004069     -0.019066     -0.017402
      8.09138      3.57280      0.50675        -0.014939      0.010611      0.007804
      6.66764      1.15944      7.18880         0.013553      0.003513      0.004662
      6.68876      1.14410      0.50581        -0.008212      0.012178      0.001160
     12.28899      4.39396      2.77350        -0.006188     -0.010456     -0.008495
      3.87610      4.39424      2.77418         0.003714     -0.009047     -0.011628
      1.06155      1.16115      7.18822        -0.004825     -0.006084      0.000954
      1.07406      1.14305      0.50440        -0.003104      0.012175      0.007316
      6.67860      9.24821      2.77345         0.010856      0.003358     -0.006902
      6.61407      4.37386      9.49357         0.013992     -0.008087      0.001181
      8.07693      5.20637      4.99359        -0.001293     -0.003803      0.018282
     10.90403      6.84979      9.45403        -0.015251     -0.011959      0.008730
      5.28091      1.96253      2.77345        -0.009477      0.006463     -0.011651
      2.47176      1.96144      2.75965        -0.002569      0.004754      0.022965
     15.09287      7.63490      4.98490        -0.016159      0.009656      0.002144
     12.28094      6.01646      7.19022        -0.005081      0.010541      0.000907
      6.67244      6.01770      7.21387        -0.008000      0.003402     -0.013746
     12.29875      6.00705      0.50666        -0.010973     -0.001337     -0.000826
      6.68664      6.00469      0.50724        -0.015330      0.009154      0.010205
      8.08137      6.81855      2.77630         0.006047      0.003908     -0.006725
      6.68261      4.39222      2.77559        -0.007362      0.002137     -0.005475
      3.86899      2.77607      4.97681        -0.031629     -0.019840     -0.010067
     10.87656      3.59092      7.19591        -0.005998      0.001360     -0.012493
     10.89501      3.57734      0.50501        -0.009545     -0.001411      0.005602
     10.88343      0.34795      4.98183         0.004583     -0.002217      0.004822
      9.47664      7.63283      4.98500         0.006640      0.005856      0.011961
     10.87809      5.20538      4.98469         0.010995     -0.002532      0.014396
      6.67732      7.63249      4.98511        -0.004722      0.003473      0.014973
      5.27037      0.34693      4.98207         0.000129     -0.002427      0.001562
      5.27568      6.82290      2.77548         0.005511     -0.010467     -0.012587
      8.07729      0.34852      4.98479        -0.001829     -0.026840      0.004938
      9.47787      1.16109      7.19008        -0.010033     -0.002652     -0.001704
     10.87627      8.45107      7.19073         0.005088     -0.016320     -0.005591
      9.49225      1.14407      0.50493        -0.006267      0.012329      0.005917
     10.89864      8.43578      0.50551        -0.018611     -0.003720      0.002285
      5.27606      5.20482      4.98534        -0.007183      0.007523      0.012954
     12.28643      2.77584      4.97632         0.024564     -0.013842     -0.002956
     15.09678      9.25136      2.77554        -0.009853     -0.006747     -0.000433
      9.47909      2.78017      4.98428         0.002302     -0.006353      0.017989
      6.67510      2.78096      4.98514         0.005617     -0.010357      0.015210
      8.07233      5.21358     10.29261        -0.005289     -0.002277      0.048007
 -----------------------------------------------------------------------------------
    total drift:                                0.014448     -0.005883     -0.047392


--------------------------------------------------------------------------------------------------------



  FREE ENERGIE OF THE ION-ELECTRON SYSTEM (eV)
  ---------------------------------------------------
  free  energy   TOTEN  =      -517.10690427 eV

  energy  without entropy=     -517.25455206  energy(sigma->0) =     -517.15612020
 
 d Force = 0.6026822E-03[ 0.340E-03, 0.866E-03]  d Energy = 0.6414778E-03-0.388E-04
 d Force = 0.6399360E+02[ 0.640E+02, 0.640E+02]  d Ewald  = 0.6399360E+02 0.190E-05


--------------------------------------------------------------------------------------------------------


    POTLOK:  cpu time    0.5500: real time    0.5513


--------------------------------------------------------------------------------------------------------




--------------------------------------------------------------------------------------------------------


  
 reached required accuracy - stopping structural energy minimisation
     LOOP+:  cpu time  450.9366: real time  452.0078
    4ORBIT:  cpu time    0.0000: real time    0.0000

 total amount of memory used by VASP MPI-rank0   262828. kBytes
=======================================================================

   base      :      30000. kBytes
   nonlr-proj:      37990. kBytes
   fftplans  :      20287. kBytes
   grid      :      52194. kBytes
   one-center:        653. kBytes
   wavefun   :     121704. kBytes
 
  
  
 General timing and accounting informations for this job:
 ========================================================
  
                  Total CPU time used (sec):     9684.938
                            User time (sec):     9677.242
                          System time (sec):        7.697
                         Elapsed time (sec):     9708.709
  
                   Maximum memory used (kb):      825912.
                   Average memory used (kb):           0.
  
                          Minor page faults:      2358182
                          Major page faults:            0
                 Voluntary context switches:         2912
