 vasp.5.4.4.18Apr17-6-g9f103f2a35 (build Oct 25 2019 11:13:22) complex          
  
 executed on             LinuxIFC date 2021.10.14  19:36:48
 running on   48 total cores
 distrk:  each k-point on   48 cores,    1 groups
 distr:  one band on NCORES_PER_BAND=   4 cores,   12 groups


--------------------------------------------------------------------------------------------------------


 INCAR:
 POTCAR:    PAW_PBE Pt 04Feb2005                  
 POTCAR:    PAW_PBE Fe 06Sep2000                  
 POTCAR:    PAW_PBE Co 02Aug2007                  
 POTCAR:    PAW_PBE Cu 22Jun2005                  
 POTCAR:    PAW_PBE Ni 02Aug2007                  
 POTCAR:    PAW_PBE H 15Jun2001                   
 POTCAR:    PAW_PBE Pt 04Feb2005                  
   VRHFIN =Pt: s1d9                                                             
   LEXCH  = PE                                                                  
   EATOM  =   729.1176 eV,   53.5886 Ry                                         
                                                                                
   TITEL  = PAW_PBE Pt 04Feb2005                                                
   LULTRA =        F    use ultrasoft PP ?                                      
   IUNSCR =        1    unscreen: 0-lin 1-nonlin 2-no                           
   RPACOR =    2.330    partial core radius                                     
   POMASS =  195.080; ZVAL   =   10.000    mass and valenz                      
   RCORE  =    2.600    outmost cutoff radius                                   
   RWIGS  =    2.750; RWIGS  =    1.455    wigner-seitz radius (au A)           
   ENMAX  =  230.283; ENMIN  =  172.712 eV                                      
   ICORE  =        3    local potential                                         
   LCOR   =        T    correct aug charges                                     
   LPAW   =        T    paw PP                                                  
   EAUG   =  358.966                                                            
   DEXC   =    0.000                                                            
   RMAX   =    2.658    core radius for proj-oper                               
   RAUG   =    1.300    factor for augmentation sphere                          
   RDEP   =    2.761    radius for radial grids                                 
   RDEPT  =    2.203    core radius for aug-charge                              
                                                                                
   Atomic configuration                                                         
   16 entries                                                                   
     n  l   j            E        occ.                                          
     1  0  0.50    -78401.1885   2.0000                                         
     2  0  0.50    -13770.7750   2.0000                                         
     2  1  1.50    -11931.0468   6.0000                                         
     3  0  0.50     -3234.7234   2.0000                                         
     3  1  1.50     -2699.2216   6.0000                                         
     3  2  2.50     -2119.5714  10.0000                                         
     4  0  0.50      -695.1528   2.0000                                         
     4  1  1.50      -519.6034   6.0000                                         
     4  2  2.50      -306.6786  10.0000                                         
     4  3  3.50       -70.1041  14.0000                                         
     5  0  0.50      -101.7747   2.0000                                         
     5  1  1.50       -55.9873   6.0000                                         
     5  2  2.50        -6.1423   9.0000                                         
     6  0  0.50        -5.6573   1.0000                                         
     6  1  1.50        -6.8029   0.0000                                         
     5  3  2.50        -1.3606   0.0000                                         
   Description                                                                  
     l       E           TYP  RCUT    TYP  RCUT                                 
     2     -6.1423404     23  2.500                                             
     2     -7.5029230     23  2.500                                             
     0     -5.6573207     23  2.500                                             
     0      0.7416693     23  2.500                                             
     1     -2.7211652     23  2.600                                             
     1     20.4087390     23  2.600                                             
     3     -1.3605826     23  2.500                                             
  local pseudopotential read in
  partial core-charges read in
  partial kinetic energy density read in
  atomic valenz-charges read in
  non local Contribution for L=           2  read in
    real space projection operators read in
  non local Contribution for L=           2  read in
    real space projection operators read in
  non local Contribution for L=           0  read in
    real space projection operators read in
  non local Contribution for L=           0  read in
    real space projection operators read in
  non local Contribution for L=           1  read in
    real space projection operators read in
  non local Contribution for L=           1  read in
    real space projection operators read in
    PAW grid and wavefunctions read in
 
   number of l-projection  operators is LMAX  =           6
   number of lm-projection operators is LMMAX =          18
 
 POTCAR:    PAW_PBE Fe 06Sep2000                  
   VRHFIN =Fe:  d7 s1                                                           
   LEXCH  = PE                                                                  
   EATOM  =   594.3153 eV,   43.6809 Ry                                         
                                                                                
   TITEL  = PAW_PBE Fe 06Sep2000                                                
   LULTRA =        F    use ultrasoft PP ?                                      
   IUNSCR =        1    unscreen: 0-lin 1-nonlin 2-no                           
   RPACOR =    2.000    partial core radius                                     
   POMASS =   55.847; ZVAL   =    8.000    mass and valenz                      
   RCORE  =    2.300    outmost cutoff radius                                   
   RWIGS  =    2.460; RWIGS  =    1.302    wigner-seitz radius (au A)           
   ENMAX  =  267.882; ENMIN  =  200.911 eV                                      
   RCLOC  =    1.701    cutoff for local pot                                    
   LCOR   =        T    correct aug charges                                     
   LPAW   =        T    paw PP                                                  
   EAUG   =  511.368                                                            
   DEXC   =    0.000                                                            
   RMAX   =    2.356    core radius for proj-oper                               
   RAUG   =    1.300    factor for augmentation sphere                          
   RDEP   =    2.442    radius for radial grids                                 
   RDEPT  =    1.890    core radius for aug-charge                              
                                                                                
   Atomic configuration                                                         
    9 entries                                                                   
     n  l   j            E        occ.                                          
     1  0  0.50     -6993.8440   2.0000                                         
     2  0  0.50      -814.6047   2.0000                                         
     2  1  1.50      -693.3689   6.0000                                         
     3  0  0.50       -89.4732   2.0000                                         
     3  1  1.50       -55.6373   6.0000                                         
     3  2  2.50        -3.8151   7.0000                                         
     4  0  0.50        -4.2551   1.0000                                         
     4  1  1.50        -3.4015   0.0000                                         
     4  3  2.50        -1.3606   0.0000                                         
   Description                                                                  
     l       E           TYP  RCUT    TYP  RCUT                                 
     2     -3.8151135     23  2.300                                             
     2     -5.1756961     23  2.300                                             
     0     -4.2550963     23  2.300                                             
     0      7.2035603     23  2.300                                             
     1     -2.7211652     23  2.300                                             
     1     18.4316424     23  2.300                                             
  local pseudopotential read in
  partial core-charges read in
  partial kinetic energy density read in
  atomic valenz-charges read in
  non local Contribution for L=           2  read in
    real space projection operators read in
  non local Contribution for L=           2  read in
    real space projection operators read in
  non local Contribution for L=           0  read in
    real space projection operators read in
  non local Contribution for L=           0  read in
    real space projection operators read in
  non local Contribution for L=           1  read in
    real space projection operators read in
  non local Contribution for L=           1  read in
    real space projection operators read in
    PAW grid and wavefunctions read in
 
   number of l-projection  operators is LMAX  =           6
   number of lm-projection operators is LMMAX =          18
 
 POTCAR:    PAW_PBE Co 02Aug2007                  
   VRHFIN =Co: d8 s1                                                            
   LEXCH  = PE                                                                  
   EATOM  =   813.3670 eV,   59.7808 Ry                                         
                                                                                
   TITEL  = PAW_PBE Co 02Aug2007                                                
   LULTRA =        F    use ultrasoft PP ?                                      
   IUNSCR =        1    unscreen: 0-lin 1-nonlin 2-no                           
   RPACOR =    2.000    partial core radius                                     
   POMASS =   58.933; ZVAL   =    9.000    mass and valenz                      
   RCORE  =    2.300    outmost cutoff radius                                   
   RWIGS  =    2.460; RWIGS  =    1.302    wigner-seitz radius (au A)           
   ENMAX  =  267.968; ENMIN  =  200.976 eV                                      
   RCLOC  =    1.203    cutoff for local pot                                    
   LCOR   =        T    correct aug charges                                     
   LPAW   =        T    paw PP                                                  
   EAUG   =  477.818                                                            
   DEXC   =    0.000                                                            
   RMAX   =    2.360    core radius for proj-oper                               
   RAUG   =    1.300    factor for augmentation sphere                          
   RDEP   =    2.393    radius for radial grids                                 
   RDEPT  =    1.864    core radius for aug-charge                              
                                                                                
   Atomic configuration                                                         
    9 entries                                                                   
     n  l   j            E        occ.                                          
     1  0  0.50     -7587.6674   2.0000                                         
     2  0  0.50      -893.6084   2.0000                                         
     2  1  1.50      -764.5805   6.0000                                         
     3  0  0.50       -97.5973   2.0000                                         
     3  1  1.50       -60.9648   6.0000                                         
     3  2  2.50        -4.2382   8.0000                                         
     4  0  0.50        -4.3746   1.0000                                         
     4  1  1.50        -4.0817   0.0000                                         
     4  3  2.50        -1.3606   0.0000                                         
   Description                                                                  
     l       E           TYP  RCUT    TYP  RCUT                                 
     2     -4.2382362     23  2.300                                             
     2     -5.5988188     23  2.300                                             
     0     -4.3745797     23  2.300                                             
     0      5.7660125     23  2.300                                             
     1     -2.7211652     23  2.300                                             
     1     16.9860234     23  2.300                                             
  local pseudopotential read in
  partial core-charges read in
  partial kinetic energy density read in
  atomic valenz-charges read in
  non local Contribution for L=           2  read in
    real space projection operators read in
  non local Contribution for L=           2  read in
    real space projection operators read in
  non local Contribution for L=           0  read in
    real space projection operators read in
  non local Contribution for L=           0  read in
    real space projection operators read in
  non local Contribution for L=           1  read in
    real space projection operators read in
  non local Contribution for L=           1  read in
    real space projection operators read in
    PAW grid and wavefunctions read in
 
   number of l-projection  operators is LMAX  =           6
   number of lm-projection operators is LMMAX =          18
 
 POTCAR:    PAW_PBE Cu 22Jun2005                  
   VRHFIN =Cu: d10 p1                                                           
   LEXCH  = PE                                                                  
   EATOM  =  1390.9808 eV,  102.2342 Ry                                         
                                                                                
   TITEL  = PAW_PBE Cu 22Jun2005                                                
   LULTRA =        F    use ultrasoft PP ?                                      
   IUNSCR =        1    unscreen: 0-lin 1-nonlin 2-no                           
   RPACOR =    2.000    partial core radius                                     
   POMASS =   63.546; ZVAL   =   11.000    mass and valenz                      
   RCORE  =    2.300    outmost cutoff radius                                   
   RWIGS  =    2.200; RWIGS  =    1.164    wigner-seitz radius (au A)           
   ENMAX  =  295.446; ENMIN  =  221.585 eV                                      
   ICORE  =        3    local potential                                         
   LCOR   =        T    correct aug charges                                     
   LPAW   =        T    paw PP                                                  
   EAUG   =  586.980                                                            
   DEXC   =    0.000                                                            
   RMAX   =    2.344    core radius for proj-oper                               
   RAUG   =    1.300    factor for augmentation sphere                          
   RDEP   =    2.302    radius for radial grids                                 
   RDEPT  =    1.771    core radius for aug-charge                              
                                                                                
   Atomic configuration                                                         
    9 entries                                                                   
     n  l   j            E        occ.                                          
     1  0  0.50     -8850.2468   2.0000                                         
     2  0  0.50     -1062.3498   2.0000                                         
     2  1  1.50      -916.8226   6.0000                                         
     3  0  0.50      -114.6929   2.0000                                         
     3  1  1.50       -72.1325   6.0000                                         
     3  2  2.50        -5.0394  10.0000                                         
     4  0  0.50        -4.6097   1.0000                                         
     4  1  0.50        -4.0817   0.0000                                         
     4  3  2.50        -1.3606   0.0000                                         
   Description                                                                  
     l       E           TYP  RCUT    TYP  RCUT                                 
     2     -5.0393973     23  2.200                                             
     2     10.8846608     23  2.200                                             
     0     -4.6097109     23  2.200                                             
     0      8.2520465     23  2.200                                             
     1     -2.7211652     23  2.200                                             
     1     21.7055443     23  2.200                                             
     3      2.7211652     23  2.300                                             
  local pseudopotential read in
  partial core-charges read in
  partial kinetic energy density read in
  atomic valenz-charges read in
  non local Contribution for L=           2  read in
    real space projection operators read in
  non local Contribution for L=           2  read in
    real space projection operators read in
  non local Contribution for L=           0  read in
    real space projection operators read in
  non local Contribution for L=           0  read in
    real space projection operators read in
  non local Contribution for L=           1  read in
    real space projection operators read in
  non local Contribution for L=           1  read in
    real space projection operators read in
    PAW grid and wavefunctions read in
 
   number of l-projection  operators is LMAX  =           6
   number of lm-projection operators is LMMAX =          18
 
 POTCAR:    PAW_PBE Ni 02Aug2007                  
   VRHFIN =Ni:                                                                  
   LEXCH  = PE                                                                  
   EATOM  =  1077.6739 eV,   79.2068 Ry                                         
                                                                                
   TITEL  = PAW_PBE Ni 02Aug2007                                                
   LULTRA =        F    use ultrasoft PP ?                                      
   IUNSCR =        1    unscreen: 0-lin 1-nonlin 2-no                           
   RPACOR =    2.000    partial core radius                                     
   POMASS =   58.690; ZVAL   =   10.000    mass and valenz                      
   RCORE  =    2.300    outmost cutoff radius                                   
   RWIGS  =    2.430; RWIGS  =    1.286    wigner-seitz radius (au A)           
   ENMAX  =  269.532; ENMIN  =  202.149 eV                                      
   RCLOC  =    1.201    cutoff for local pot                                    
   LCOR   =        T    correct aug charges                                     
   LPAW   =        T    paw PP                                                  
   EAUG   =  544.565                                                            
   DEXC   =    0.000                                                            
   RMAX   =    2.357    core radius for proj-oper                               
   RAUG   =    1.300    factor for augmentation sphere                          
   RDEP   =    2.390    radius for radial grids                                 
   RDEPT  =    1.838    core radius for aug-charge                              
                                                                                
   Atomic configuration                                                         
    9 entries                                                                   
     n  l   j            E        occ.                                          
     1  0  0.50     -8206.4253   2.0000                                         
     2  0  0.50      -976.1748   2.0000                                         
     2  1  1.50      -839.0571   6.0000                                         
     3  0  0.50      -105.9991   2.0000                                         
     3  1  1.50       -66.4603   6.0000                                         
     3  2  2.50        -4.6458   9.0000                                         
     4  0  0.50        -4.4926   1.0000                                         
     4  1  1.50        -4.0817   0.0000                                         
     4  3  2.50        -1.3606   0.0000                                         
   Description                                                                  
     l       E           TYP  RCUT    TYP  RCUT                                 
     2     -4.6457903     23  2.300                                             
     2     -6.0063729     23  2.300                                             
     0     -4.4925590     23  2.300                                             
     0      5.0102601     23  2.300                                             
     1     -2.7211652     23  2.300                                             
     1     16.5183231     23  2.300                                             
  local pseudopotential read in
  partial core-charges read in
  partial kinetic energy density read in
  atomic valenz-charges read in
  non local Contribution for L=           2  read in
    real space projection operators read in
  non local Contribution for L=           2  read in
    real space projection operators read in
  non local Contribution for L=           0  read in
    real space projection operators read in
  non local Contribution for L=           0  read in
    real space projection operators read in
  non local Contribution for L=           1  read in
    real space projection operators read in
  non local Contribution for L=           1  read in
    real space projection operators read in
    PAW grid and wavefunctions read in
 
   number of l-projection  operators is LMAX  =           6
   number of lm-projection operators is LMMAX =          18
 
 POTCAR:    PAW_PBE H 15Jun2001                   
   VRHFIN =H: ultrasoft test                                                    
   LEXCH  = PE                                                                  
   EATOM  =    12.4884 eV,    0.9179 Ry                                         
                                                                                
   TITEL  = PAW_PBE H 15Jun2001                                                 
   LULTRA =        F    use ultrasoft PP ?                                      
   IUNSCR =        0    unscreen: 0-lin 1-nonlin 2-no                           
   RPACOR =    0.000    partial core radius                                     
   POMASS =    1.000; ZVAL   =    1.000    mass and valenz                      
   RCORE  =    1.100    outmost cutoff radius                                   
   RWIGS  =    0.700; RWIGS  =    0.370    wigner-seitz radius (au A)           
   ENMAX  =  250.000; ENMIN  =  200.000 eV                                      
   RCLOC  =    0.701    cutoff for local pot                                    
   LCOR   =        T    correct aug charges                                     
   LPAW   =        T    paw PP                                                  
   EAUG   =  400.000                                                            
   RMAX   =    1.123    core radius for proj-oper                               
   RAUG   =    1.200    factor for augmentation sphere                          
   RDEP   =    1.112    radius for radial grids                                 
   RDEPT  =    0.926    core radius for aug-charge                              
                                                                                
   Atomic configuration                                                         
    2 entries                                                                   
     n  l   j            E        occ.                                          
     1  0  0.50        -6.4927   1.0000                                         
     2  1  0.50        -3.4015   0.0000                                         
   Description                                                                  
     l       E           TYP  RCUT    TYP  RCUT                                 
     0     -6.4927494     23  1.100                                             
     0      6.8029130     23  1.100                                             
     1     -4.0817478     23  1.100                                             
  local pseudopotential read in
  atomic valenz-charges read in
  non local Contribution for L=           0  read in
    real space projection operators read in
  non local Contribution for L=           0  read in
    real space projection operators read in
  non local Contribution for L=           1  read in
    real space projection operators read in
    PAW grid and wavefunctions read in
 
   number of l-projection  operators is LMAX  =           3
   number of lm-projection operators is LMMAX =           5
 
 Optimization of the real space projectors (new method)

 maximal supplied QI-value         = 14.36
 optimisation between [QCUT,QGAM] = [ 11.92, 23.98] = [ 39.79,161.09] Ry 
 Optimized for a Real-space Cutoff    1.49 Angstroem

   l    n(q)    QCUT    max X(q) W(low)/X(q) W(high)/X(q)  e(spline) 
   2     10    11.920    66.195    0.79E-04    0.18E-03    0.24E-06
   2     10    11.920    64.643    0.81E-04    0.19E-03    0.24E-06
   0     11    11.920    95.520    0.28E-04    0.54E-04    0.18E-06
   0     11    11.920    63.403    0.27E-04    0.52E-04    0.17E-06
   1     10    11.920    19.961    0.18E-04    0.11E-03    0.23E-06
   1     10    11.920    13.289    0.25E-04    0.87E-04    0.19E-06
 Optimization of the real space projectors (new method)

 maximal supplied QI-value         = 16.25
 optimisation between [QCUT,QGAM] = [ 11.86, 23.89] = [ 39.41,159.82] Ry 
 Optimized for a Real-space Cutoff    1.49 Angstroem

   l    n(q)    QCUT    max X(q) W(low)/X(q) W(high)/X(q)  e(spline) 
   2     10    11.864    80.901    0.13E-03    0.23E-03    0.37E-06
   2     10    11.864    75.754    0.13E-03    0.23E-03    0.38E-06
   0     11    11.864    58.752    0.44E-04    0.11E-04    0.20E-06
   0     11    11.864    30.679    0.36E-04    0.10E-04    0.18E-06
   1     10    11.864    17.977    0.31E-04    0.45E-04    0.10E-06
   1     10    11.864    13.559    0.25E-04    0.37E-04    0.89E-07
 Optimization of the real space projectors (new method)

 maximal supplied QI-value         = 16.25
 optimisation between [QCUT,QGAM] = [ 11.86, 23.89] = [ 39.41,159.82] Ry 
 Optimized for a Real-space Cutoff    1.33 Angstroem

   l    n(q)    QCUT    max X(q) W(low)/X(q) W(high)/X(q)  e(spline) 
   2      9    11.864    65.824    0.22E-03    0.53E-03    0.26E-06
   2      9    11.864    61.429    0.22E-03    0.53E-03    0.26E-06
   0      9    11.864    56.174    0.21E-03    0.32E-04    0.15E-06
   0      9    11.864    31.263    0.19E-03    0.30E-04    0.14E-06
   1      9    11.864    19.828    0.63E-04    0.30E-03    0.16E-06
   1      9    11.864    15.139    0.49E-04    0.25E-03    0.13E-06
 Optimization of the real space projectors (new method)

 maximal supplied QI-value         = 16.25
 optimisation between [QCUT,QGAM] = [ 11.86, 23.89] = [ 39.41,159.82] Ry 
 Optimized for a Real-space Cutoff    1.49 Angstroem

   l    n(q)    QCUT    max X(q) W(low)/X(q) W(high)/X(q)  e(spline) 
   2     10    11.864     4.610    0.10E-03    0.20E-03    0.29E-06
   2     10    11.864     8.522    0.17E-03    0.33E-03    0.50E-06
   0     11    11.864    51.609    0.52E-04    0.55E-04    0.33E-06
   0     11    11.864    27.747    0.46E-04    0.52E-04    0.31E-06
   1     10    11.864    20.408    0.54E-04    0.25E-04    0.21E-06
   1     10    11.864    13.425    0.48E-04    0.22E-04    0.18E-06
 Optimization of the real space projectors (new method)

 maximal supplied QI-value         = 16.25
 optimisation between [QCUT,QGAM] = [ 11.86, 23.89] = [ 39.41,159.82] Ry 
 Optimized for a Real-space Cutoff    1.33 Angstroem

   l    n(q)    QCUT    max X(q) W(low)/X(q) W(high)/X(q)  e(spline) 
   2      9    11.864    60.317    0.21E-03    0.51E-03    0.25E-06
   2      9    11.864    55.921    0.21E-03    0.51E-03    0.26E-06
   0      9    11.864    51.690    0.22E-03    0.30E-04    0.17E-06
   0      9    11.864    30.015    0.20E-03    0.28E-04    0.15E-06
   1      9    11.864    18.849    0.76E-04    0.33E-03    0.17E-06
   1      9    11.864    14.624    0.60E-04    0.28E-03    0.15E-06
 Optimization of the real space projectors (new method)

 maximal supplied QI-value         = 34.20
 optimisation between [QCUT,QGAM] = [ 11.97, 23.94] = [ 40.13,160.53] Ry 
 Optimized for a Real-space Cutoff    1.18 Angstroem

   l    n(q)    QCUT    max X(q) W(low)/X(q) W(high)/X(q)  e(spline) 
   0      8    11.971    19.460    0.15E-03    0.31E-03    0.25E-06
   0      8    11.971    12.209    0.13E-03    0.29E-03    0.25E-06
   1      8    11.971     4.655    0.22E-03    0.24E-03    0.21E-06
  PAW_PBE Pt 04Feb2005                  :
 energy of atom  1       EATOM= -729.1176
 kinetic energy error for atom=    0.0021 (will be added to EATOM!!)
  PAW_PBE Fe 06Sep2000                  :
 energy of atom  2       EATOM= -594.3153
 kinetic energy error for atom=    0.0024 (will be added to EATOM!!)
  PAW_PBE Co 02Aug2007                  :
 energy of atom  3       EATOM= -813.3670
 kinetic energy error for atom=    0.0026 (will be added to EATOM!!)
  PAW_PBE Cu 22Jun2005                  :
 energy of atom  4       EATOM=-1390.9808
 kinetic energy error for atom=    0.0036 (will be added to EATOM!!)
  PAW_PBE Ni 02Aug2007                  :
 energy of atom  5       EATOM=-1077.6739
 kinetic energy error for atom=    0.0027 (will be added to EATOM!!)
  PAW_PBE H 15Jun2001                   :
 energy of atom  6       EATOM=  -12.4884
 kinetic energy error for atom=    0.0008 (will be added to EATOM!!)
 
 
 POSCAR: 10.76                                   
  positions in direct lattice
  velocities in cartesian coordinates
 exchange correlation table for  LEXCH =        8
   RHO(1)=    0.500       N(1)  =     2000
   RHO(2)=  100.500       N(2)  =     4000
 


--------------------------------------------------------------------------------------------------------


 ion  position               nearest neighbor table
   1  0.786  0.880  0.316-  49 2.61  28 2.63  59 2.64  19 2.68  61 2.70  33 2.71  29 2.72  60 2.72
                            11 2.75   2 2.77   4 2.82  12 2.84
   2  0.042  0.882  0.314-  79 2.55  77 2.60  60 2.67  28 2.67  30 2.68  52 2.71  33 2.71  22 2.73
                             1 2.77   6 2.79   4 2.86  16 2.93
   3  0.279  0.381  0.318-  64 2.56  39 2.61  31 2.64  33 2.64  68 2.70  19 2.75  43 2.76  30 2.76
                             5 2.76  13 2.79  25 2.83  18 2.87
   4  0.871  0.964  0.422-  17 2.65  11 2.67   9 2.70  12 2.73   6 2.74  16 2.76  60 2.80   1 2.82
                             2 2.86
   5  0.120  0.463  0.424-  16 2.65  12 2.66   7 2.66  10 2.67  39 2.70  33 2.71  25 2.72  13 2.74
                             3 2.76
   6  0.125  0.964  0.420-   8 2.65  10 2.68   9 2.71  14 2.72   4 2.74  16 2.76  52 2.78   2 2.79
                            22 2.85
   7  0.874  0.459  0.423-  81 1.63   9 2.66  15 2.66   5 2.66  39 2.67  10 2.68  12 2.68  27 2.72
                            75 2.72  29 2.77
   8  0.374  0.960  0.418-  43 2.59   6 2.65  14 2.66  52 2.67  27 2.67  13 2.68  10 2.69  11 2.70
                            61 2.70
   9  0.872  0.214  0.417-  81 1.70  75 2.65   7 2.66  15 2.66  17 2.68   4 2.70  60 2.70   6 2.71
                            10 2.72  22 2.80
  10  0.125  0.212  0.419-  13 2.66  39 2.66   5 2.67   6 2.68   7 2.68   8 2.69  43 2.71   9 2.72
                            22 2.76
  11  0.624  0.960  0.420-   4 2.67  12 2.68  13 2.68  27 2.69  17 2.69   8 2.70   1 2.75  61 2.80
                            19 2.81
  12  0.872  0.710  0.423-   5 2.66  27 2.68  11 2.68   7 2.68  33 2.69  16 2.72   4 2.73  29 2.76
                             1 2.84
  13  0.374  0.209  0.421-  10 2.66   8 2.68  11 2.68  17 2.70  25 2.71   5 2.74  43 2.74   3 2.79
                            19 2.80
  14  0.378  0.711  0.420-  27 2.63  44 2.66   8 2.66  15 2.67  25 2.71   6 2.72  52 2.72  16 2.73
                            30 2.75
  15  0.626  0.462  0.420-   9 2.66   7 2.66  44 2.67  27 2.67  14 2.67  75 2.70  17 2.71  25 2.71
                            18 2.75
  16  0.126  0.707  0.425-   5 2.65  25 2.66  33 2.70  12 2.72  14 2.73   6 2.76   4 2.76  30 2.82
                             2 2.93
  17  0.624  0.211  0.419-   4 2.65   9 2.68  25 2.69  11 2.69  13 2.70  15 2.71  18 2.74  60 2.76
                            19 2.84
  18  0.548  0.376  0.316-  67 2.56  68 2.64  60 2.65  26 2.66  75 2.67  44 2.69  17 2.74  15 2.75
                            30 2.76  19 2.78  25 2.85   3 2.87
  19  0.534  0.125  0.314-  80 2.55  68 2.57  59 2.60  43 2.60   1 2.68  61 2.69   3 2.75  18 2.78
                            13 2.80  11 2.81  60 2.81  17 2.84
  20  0.548  0.123  0.044-  57 2.55  37 2.55  48 2.57  62 2.68  63 2.73  47 2.75  34 2.75  45 2.76
                            56 2.76
  21  0.119  0.460  0.129-  40 2.52  36 2.52  47 2.52  42 2.60  64 2.63  69 2.65  70 2.68  50 2.68
                            31 2.71  58 2.75  57 2.76  74 2.79
  22  0.044  0.136  0.313-  65 2.53  55 2.54  77 2.57  43 2.62  39 2.63  75 2.68   2 2.73  60 2.74
                            10 2.76  52 2.77   9 2.80   6 2.85  31 3.40
  23  0.041  0.131  0.035-  70 2.57  41 2.60  40 2.62  45 2.66  76 2.67  62 2.67  24 2.69  35 2.79
                            53 2.85
  24  0.131  0.958  0.133-  79 2.51  77 2.55  35 2.56  53 2.58  55 2.59  70 2.66  38 2.68  58 2.69
                            23 2.69  73 2.69  66 2.75  41 2.78
  25  0.374  0.461  0.422-  16 2.66  17 2.69  15 2.71  13 2.71  14 2.71   5 2.72  30 2.81   3 2.83
                            18 2.85
  26  0.455  0.547  0.219-  73 2.50  74 2.54  51 2.56  79 2.64  30 2.65  18 2.66  64 2.69  78 2.70
                            32 2.71  68 2.72  44 2.73  67 2.78
  27  0.622  0.712  0.421-  14 2.63  15 2.67   8 2.67  12 2.68  44 2.68  11 2.69   7 2.72  61 2.74
                            29 2.78
  28  0.956  0.787  0.221-  58 2.56  66 2.58  50 2.58  42 2.62   1 2.63  49 2.64   2 2.67  64 2.68
                            33 2.69  59 2.77  79 2.86  77 2.87
  29  0.795  0.623  0.318-  42 2.55  39 2.58  32 2.62  75 2.62  49 2.67  33 2.69  44 2.71   1 2.72
                            61 2.72  12 2.76   7 2.77  27 2.78
  30  0.290  0.632  0.317-  79 2.56  64 2.60  52 2.65  26 2.65   2 2.68  44 2.69  33 2.69  14 2.75
                             3 2.76  18 2.76  25 2.81  16 2.82
  31  0.201  0.279  0.225-  70 2.51  43 2.58  55 2.59  57 2.59  65 2.60   3 2.64  39 2.65  21 2.71
                            80 2.75  42 2.76  68 2.84  64 2.87  22 3.40
  32  0.705  0.551  0.221-  54 2.54  69 2.56  51 2.58  49 2.61  29 2.62  78 2.65  42 2.65  65 2.67
                            44 2.68  75 2.69  26 2.71  67 2.74
  33  0.040  0.632  0.323-   3 2.64  30 2.69  29 2.69  28 2.69  64 2.69  12 2.69  39 2.69  16 2.70
                             1 2.71   5 2.71   2 2.71  42 2.72
  34  0.795  0.861  0.046-  50 2.37  48 2.50  66 2.51  36 2.59  71 2.61  63 2.64  20 2.75  62 2.83
                            35 2.84
  35  0.058  0.864  0.041-  58 2.53  24 2.56  36 2.57  72 2.57  66 2.62  53 2.71  23 2.79  62 2.80
                            34 2.84
  36  0.046  0.632  0.040-  21 2.52  35 2.57  58 2.57  34 2.59  50 2.60  72 2.69  47 2.69  71 2.80
                            40 2.81
  37  0.628  0.225  0.130-  67 2.51  51 2.51  56 2.52  74 2.55  20 2.55  68 2.56  59 2.56  41 2.58
                            62 2.59  66 2.72  57 2.81  48 3.01
  38  0.383  0.954  0.131-  53 2.46  80 2.47  45 2.47  78 2.53  63 2.55  73 2.57  55 2.57  48 2.58
                            54 2.59  24 2.68  57 2.68  70 2.73
  39  0.035  0.384  0.323-  29 2.58   3 2.61  75 2.63  22 2.63  42 2.64  31 2.65  10 2.66   7 2.67
                            33 2.69   5 2.70  65 2.73  43 2.85
  40  0.026  0.381  0.040-  69 2.42  21 2.52  76 2.55  71 2.56  70 2.56  23 2.62  36 2.81  45 2.87
                            47 2.92
  41  0.872  0.215  0.130-  76 2.45  77 2.51  65 2.52  67 2.53  62 2.57  37 2.58  23 2.60  69 2.61
                            51 2.63  66 2.70  70 2.70  24 2.78
  42  0.955  0.544  0.224-  50 2.54  29 2.55  21 2.60  69 2.60  28 2.62  39 2.64  32 2.65  65 2.67
                            49 2.67  64 2.71  33 2.72  31 2.76
  43  0.297  0.116  0.320-  55 2.52  31 2.58   8 2.59  52 2.60  19 2.60  61 2.61  22 2.62  80 2.63
                            10 2.71  13 2.74   3 2.76  39 2.85
  44  0.541  0.629  0.321-  61 2.62  78 2.62  52 2.63  14 2.66  15 2.67  32 2.68  27 2.68  18 2.69
                            30 2.69  75 2.69  29 2.71  26 2.73
  45  0.295  0.116  0.043-  70 2.47  38 2.47  57 2.57  53 2.60  23 2.66  63 2.67  20 2.76  40 2.87
                            47 2.87
  46  0.550  0.625  0.046-  51 2.38  73 2.40  54 2.40  71 2.58  53 2.61  63 2.63  76 2.64  56 2.66
                            72 2.70
  47  0.297  0.382  0.042-  74 2.38  21 2.52  57 2.61  72 2.64  56 2.64  36 2.69  20 2.75  45 2.87
                            40 2.92
  48  0.625  0.947  0.134-  49 2.39  80 2.48  54 2.49  34 2.50  63 2.55  59 2.56  20 2.57  38 2.58
                            50 2.61  57 2.72  66 2.76  37 3.01
  49  0.707  0.793  0.220-  48 2.39  50 2.47  54 2.49  80 2.59   1 2.61  32 2.61  61 2.64  28 2.64
                            78 2.66  42 2.67  29 2.67  59 2.77
  50  0.864  0.703  0.130-  34 2.37  71 2.41  49 2.47  54 2.50  42 2.54  28 2.58  69 2.59  36 2.60
                            48 2.61  21 2.68  66 2.86
  51  0.627  0.459  0.128-  46 2.38  76 2.45  56 2.51  37 2.51  26 2.56  32 2.58  67 2.63  41 2.63
                            69 2.65  73 2.66  74 2.67  54 2.76
  52  0.298  0.874  0.318-  55 2.43  79 2.52  78 2.52  61 2.59  43 2.60  44 2.63  30 2.65   8 2.67
                             2 2.71  14 2.72  22 2.77   6 2.78
  53  0.307  0.869  0.043-  73 2.41  38 2.46  24 2.58  63 2.58  45 2.60  46 2.61  72 2.65  35 2.71
                            23 2.85
  54  0.626  0.716  0.129-  46 2.40  71 2.46  63 2.48  49 2.49  48 2.49  50 2.50  32 2.54  38 2.59
                            73 2.60  78 2.62  69 2.73  51 2.76
  55  0.226  0.027  0.228-  52 2.43  78 2.49  43 2.52  79 2.52  22 2.54  80 2.55  38 2.57  24 2.59
                            31 2.59  70 2.73  77 2.78  65 2.95
  56  0.542  0.382  0.037-  74 2.50  51 2.51  37 2.52  72 2.64  47 2.64  76 2.65  46 2.66  20 2.76
                            62 2.76
  57  0.377  0.206  0.134-  68 2.47  20 2.55  80 2.55  45 2.57  31 2.59  47 2.61  70 2.68  74 2.68
                            38 2.68  48 2.72  21 2.76  37 2.81
  58  0.139  0.705  0.134-  72 2.45  64 2.50  35 2.53  79 2.56  28 2.56  36 2.57  74 2.67  24 2.69
                            73 2.71  21 2.75
  59  0.704  0.051  0.220-  66 2.52  37 2.56  48 2.56  19 2.60  60 2.61  68 2.63   1 2.64  67 2.65
                            77 2.72  80 2.74  49 2.77  28 2.77
  60  0.793  0.129  0.316-  67 2.52  77 2.57  59 2.61  18 2.65   2 2.67   9 2.70  75 2.71   1 2.72
                            22 2.74  17 2.76   4 2.80  19 2.81
  61  0.539  0.873  0.317-  78 2.48  80 2.52  52 2.59  43 2.61  44 2.62  49 2.64  19 2.69   1 2.70
                             8 2.70  29 2.72  27 2.74  11 2.80
  62  0.796  0.123  0.038-  66 2.52  41 2.57  37 2.59  23 2.67  20 2.68  76 2.70  56 2.76  35 2.80
                            34 2.83
  63  0.545  0.871  0.038-  54 2.48  38 2.55  48 2.55  53 2.58  46 2.63  34 2.64  45 2.67  71 2.67
                            20 2.73
  64  0.208  0.542  0.224-  58 2.50   3 2.56  30 2.60  21 2.63  74 2.66  28 2.68  68 2.68  26 2.69
                            33 2.69  42 2.71  79 2.79  31 2.87
  65  0.950  0.299  0.222-  69 2.51  41 2.52  22 2.53  67 2.56  31 2.60  77 2.60  75 2.61  70 2.62
                            42 2.67  32 2.67  39 2.73  55 2.95
  66  0.872  0.965  0.131-  34 2.51  59 2.52  62 2.52  77 2.57  28 2.58  35 2.62  41 2.70  37 2.72
                            24 2.75  48 2.76  50 2.86
  67  0.716  0.291  0.224-  37 2.51  60 2.52  41 2.53  18 2.56  77 2.56  65 2.56  75 2.62  51 2.63
                            59 2.65  32 2.74  68 2.77  26 2.78
  68  0.457  0.293  0.221-  57 2.47  74 2.52  37 2.56  19 2.57  59 2.63  18 2.64  64 2.68   3 2.70
                            26 2.72  67 2.77  80 2.82  31 2.84
  69  0.875  0.457  0.129-  40 2.42  71 2.45  76 2.46  65 2.51  32 2.56  50 2.59  42 2.60  41 2.61
                            21 2.65  51 2.65  70 2.71  54 2.73
  70  0.127  0.207  0.130-  45 2.47  31 2.51  40 2.56  23 2.57  65 2.62  24 2.66  21 2.68  57 2.68
                            41 2.70  69 2.71  38 2.73  55 2.73
  71  0.791  0.621  0.042-  50 2.41  69 2.45  54 2.46  40 2.56  46 2.58  34 2.61  76 2.63  63 2.67
                            36 2.80
  72  0.298  0.627  0.045-  74 2.45  58 2.45  73 2.48  35 2.57  47 2.64  56 2.64  53 2.65  36 2.69
                            46 2.70
  73  0.386  0.713  0.130-  46 2.40  53 2.41  72 2.48  26 2.50  78 2.55  38 2.57  54 2.60  79 2.62
                            51 2.66  24 2.69  58 2.71  74 2.83
  74  0.382  0.452  0.128-  47 2.38  72 2.45  56 2.50  68 2.52  26 2.54  37 2.55  64 2.66  51 2.67
                            58 2.67  57 2.68  21 2.79  73 2.83
  75  0.793  0.381  0.320-  65 2.61  67 2.62  29 2.62  39 2.63   9 2.65  18 2.67  22 2.68  32 2.69
                            44 2.69  15 2.70  60 2.71   7 2.72
  76  0.791  0.377  0.042-  51 2.45  41 2.45  69 2.46  40 2.55  71 2.63  46 2.64  56 2.65  23 2.67
                            62 2.70
  77  0.955  0.054  0.222-  41 2.51  24 2.55  67 2.56  22 2.57  60 2.57  66 2.57   2 2.60  65 2.60
                            59 2.72  79 2.78  55 2.78  28 2.87
  78  0.459  0.796  0.225-  61 2.48  55 2.49  80 2.52  52 2.52  38 2.53  73 2.55  79 2.61  44 2.62
                            54 2.62  32 2.65  49 2.66  26 2.70
  79  0.216  0.798  0.225-  24 2.51  52 2.52  55 2.52   2 2.55  58 2.56  30 2.56  78 2.61  73 2.62
                            26 2.64  77 2.78  64 2.79  28 2.86
  80  0.462  0.029  0.223-  38 2.47  48 2.48  78 2.52  61 2.52  55 2.55  19 2.55  57 2.55  49 2.59
                            43 2.63  59 2.74  31 2.75  68 2.82
  81  0.872  0.336  0.466-   7 1.63   9 1.70
 
  LATTYP: Found a hexagonal cell.
 ALAT       =    10.7600002289
 C/A-ratio  =     2.0446096219
  
  Lattice vectors:
  
 A1 = (   5.3800001145,  -9.3184335429,   0.0000000000)
 A2 = ( -10.7600002289,   0.0000000000,   0.0000000000)
 A3 = (   0.0000000000,   0.0000000000, -22.0000000000)


Analysis of symmetry for initial positions (statically):
=====================================================================
 Subroutine PRICEL returns:
 Original cell was already a primitive cell.
 

 Routine SETGRP: Setting up the symmetry group for a 
 hexagonal supercell.


 Subroutine GETGRP returns: Found  1 space group operations
 (whereof  1 operations were pure point group operations)
 out of a pool of 24 trial point group operations.


The static configuration has the point symmetry C_1 .


Analysis of symmetry for dynamics (positions and initial velocities):
=====================================================================
 Subroutine PRICEL returns:
 Original cell was already a primitive cell.
 

 Routine SETGRP: Setting up the symmetry group for a 
 hexagonal supercell.


 Subroutine GETGRP returns: Found  1 space group operations
 (whereof  1 operations were pure point group operations)
 out of a pool of 24 trial point group operations.


The dynamic configuration has the point symmetry C_1 .


Analysis of constrained symmetry for selective dynamics:
=====================================================================
 Subroutine PRICEL returns:
 Original cell was already a primitive cell.
 

 Routine SETGRP: Setting up the symmetry group for a 
 hexagonal supercell.


 Subroutine GETGRP returns: Found  1 space group operations
 (whereof  1 operations were pure point group operations)
 out of a pool of 24 trial point group operations.


The constrained configuration has the point symmetry C_1 .


Analysis of structural, dynamic, and magnetic symmetry:
=====================================================================
 Subroutine PRICEL returns:
 Original cell was already a primitive cell.
 

 Routine SETGRP: Setting up the symmetry group for a 
 hexagonal supercell.


 Subroutine GETGRP returns: Found  1 space group operations
 (whereof  1 operations were pure point group operations)
 out of a pool of 24 trial point group operations.


The magnetic configuration has the point symmetry C_1 .


 Subroutine INISYM returns: Found  1 space group operations
 (whereof  1 operations are pure point group operations),
 and found     1 'primitive' translations

 
 
 KPOINTS: mesh auto                               

Automatic generation of k-mesh.
Space group operators:
 irot       det(A)        alpha          n_x          n_y          n_z        tau_x        tau_y        tau_z
    1     1.000000     0.000001     1.000000     0.000000     0.000000     0.000000     0.000000     0.000000
 
 Subroutine IBZKPT returns following result:
 ===========================================
 
 Found      4 irreducible k-points:
 
 Following reciprocal coordinates:
            Coordinates               Weight
  0.000000  0.000000  0.000000      1.000000
  0.500000  0.000000  0.000000      1.000000
  0.000000  0.500000  0.000000      1.000000
  0.500000  0.500000  0.000000      1.000000
 
 Following cartesian coordinates:
            Coordinates               Weight
  0.000000  0.000000  0.000000      1.000000
  0.046468 -0.026829  0.000000      1.000000
  0.000000  0.053657  0.000000      1.000000
  0.046468  0.026829  0.000000      1.000000
 


--------------------------------------------------------------------------------------------------------




 Dimension of arrays:
   k-points           NKPTS =      4   k-points in BZ     NKDIM =      4   number of bands    NBANDS=    588
   number of dos      NEDOS =    301   number of ions     NIONS =     81
   non local maximal  LDIM  =      6   non local SUM 2l+1 LMDIM =     18
   total plane-waves  NPLWV = ******
   max r-space proj   IRMAX =   7517   max aug-charges    IRDMAX=  32744
   dimension x,y,z NGX =    84 NGY =   84 NGZ =  168
   dimension x,y,z NGXF=   168 NGYF=  168 NGZF=  336
   support grid    NGXF=   168 NGYF=  168 NGZF=  336
   ions per type =              32  13  10  13  12   1
   NGX,Y,Z   is equivalent  to a cutoff of  12.98, 12.98, 12.70 a.u.
   NGXF,Y,Z  is equivalent  to a cutoff of  25.96, 25.96, 25.39 a.u.

 SYSTEM =  Pt111                                   
 POSCAR =  10.76                                   

 Startparameter for this run:
   NWRITE =      2    write-flag & timer
   PREC   = accura    normal or accurate (medium, high low for compatibility)
   ISTART =      0    job   : 0-new  1-cont  2-samecut
   ICHARG =      2    charge: 1-file 2-atom 10-const
   ISPIN  =      2    spin polarized calculation?
   LNONCOLLINEAR =      F non collinear calculations
   LSORBIT =      F    spin-orbit coupling
   INIWAV =      1    electr: 0-lowe 1-rand  2-diag
   LASPH  =      F    aspherical Exc in radial PAW
   METAGGA=      F    non-selfconsistent MetaGGA calc.

 Electronic Relaxation 1
   ENCUT  =  550.0 eV  40.42 Ry    6.36 a.u.  20.58 20.58 42.07*2*pi/ulx,y,z
   ENINI  =  550.0     initial cutoff
   ENAUG  =  587.0 eV  augmentation charge cutoff
   NELM   =    200;   NELMIN=  2; NELMDL= -5     # of ELM steps 
   EDIFF  = 0.1E-04   stopping-criterion for ELM
   LREAL  =      T    real-space projection
   NLSPLINE    = F    spline interpolate recip. space projectors
   LCOMPAT=      F    compatible to vasp.4.4
   GGA_COMPAT  = T    GGA compatible to vasp.4.4-vasp.4.6
   LMAXPAW     = -100 max onsite density
   LMAXMIX     =    2 max onsite mixed and CHGCAR
   VOSKOWN=      0    Vosko Wilk Nusair interpolation
   ROPT   =   -0.00025  -0.00025  -0.00025  -0.00025
   ROPT   =   -0.00025  -0.00025
 Ionic relaxation
   EDIFFG = -.5E-01   stopping-criterion for IOM
   NSW    =    300    number of steps for IOM
   NBLOCK =      1;   KBLOCK =    300    inner block; outer block 
   IBRION =      2    ionic relax: 0-MD 1-quasi-New 2-CG
   NFREE  =      1    steps in history (QN), initial steepest desc. (CG)
   ISIF   =      2    stress and relaxation
   IWAVPR =     11    prediction:  0-non 1-charg 2-wave 3-comb
   ISYM   =      2    0-nonsym 1-usesym 2-fastsym
   LCORR  =      T    Harris-Foulkes like correction to forces

   POTIM  = 0.5000    time-step for ionic-motion
   TEIN   =    0.0    initial temperature
   TEBEG  =    0.0;   TEEND  =   0.0 temperature during run
   SMASS  =  -3.00    Nose mass-parameter (am)
   estimated Nose-frequenzy (Omega)   =  0.10E-29 period in steps =****** mass=  -0.265E-26a.u.
   SCALEE = 1.0000    scale energy and forces
   NPACO  =    256;   APACO  = 16.0  distance and # of slots for P.C.
   PSTRESS=    0.0 pullay stress

  Mass of Ions in am
   POMASS = 195.08 55.85 58.93 63.55 58.69  1.00
  Ionic Valenz
   ZVAL   =  10.00  8.00  9.00 11.00 10.00  1.00
  Atomic Wigner-Seitz radii
   RWIGS  =  -1.00 -1.00 -1.00 -1.00 -1.00 -1.00
  virtual crystal weights 
   VCA    =   1.00  1.00  1.00  1.00  1.00  1.00
   NELECT =     778.0000    total number of electrons
   NUPDOWN=      -1.0000    fix difference up-down

 DOS related values:
   EMIN   =  10.00;   EMAX   =-10.00  energy-range for DOS
   EFERMI =   0.00
   ISMEAR =     1;   SIGMA  =   0.10  broadening in eV -4-tet -1-fermi 0-gaus

 Electronic relaxation 2 (details)
   IALGO  =     68    algorithm
   LDIAG  =      T    sub-space diagonalisation (order eigenvalues)
   LSUBROT=      F    optimize rotation matrix (better conditioning)
   TURBO    =      0    0=normal 1=particle mesh
   IRESTART =      0    0=no restart 2=restart with 2 vectors
   NREBOOT  =      0    no. of reboots
   NMIN     =      0    reboot dimension
   EREF     =   0.00    reference energy to select bands
   IMIX   =      4    mixing-type and parameters
     AMIX     =   0.40;   BMIX     =  1.00
     AMIX_MAG =   1.60;   BMIX_MAG =  1.00
     AMIN     =   0.10
     WC   =   100.;   INIMIX=   1;  MIXPRE=   1;  MAXMIX= -45

 Intra band minimization:
   WEIMIN = 0.0010     energy-eigenvalue tresh-hold
   EBREAK =  0.43E-08  absolut break condition
   DEPER  =   0.30     relativ break condition  

   TIME   =   0.40     timestep for ELM

  volume/ion in A,a.u.               =      27.23       183.78
  Fermi-wavevector in a.u.,A,eV,Ry     =   1.156668  2.185786 18.202976  1.337881
  Thomas-Fermi vector in A             =   2.293286
 
 Write flags
   LWAVE        =      F    write WAVECAR
   LDOWNSAMPLE  =      F    k-point downsampling of WAVECAR
   LCHARG       =      F    write CHGCAR
   LVTOT        =      F    write LOCPOT, total local potential
   LVHAR        =      F    write LOCPOT, Hartree potential only
   LELF         =      F    write electronic localiz. function (ELF)
   LORBIT       =      0    0 simple, 1 ext, 2 COOP (PROOUT), +10 PAW based schemes


 Dipole corrections
   LMONO  =      F    monopole corrections only (constant potential shift)
   LDIPOL =      F    correct potential (dipole corrections)
   IDIPOL =      0    1-x, 2-y, 3-z, 4-all directions 
   EPSILON=  1.0000000 bulk dielectric constant

 Exchange correlation treatment:
   GGA     =    --    GGA type
   LEXCH   =     8    internal setting for exchange type
   VOSKOWN=      0    Vosko Wilk Nusair interpolation
   LHFCALC =     F    Hartree Fock is set to
   LHFONE  =     F    Hartree Fock one center treatment
   AEXX    =    0.0000 exact exchange contribution

 Linear response parameters
   LEPSILON=     F    determine dielectric tensor
   LRPA    =     F    only Hartree local field effects (RPA)
   LNABLA  =     F    use nabla operator in PAW spheres
   LVEL    =     F    velocity operator in full k-point grid
   LINTERFAST=   F  fast interpolation
   KINTER  =     0    interpolate to denser k-point grid
   CSHIFT  =0.1000    complex shift for real part using Kramers Kronig
   OMEGAMAX=  -1.0    maximum frequency
   DEG_THRESHOLD= 0.2000000E-02 threshold for treating states as degnerate
   RTIME   =   -0.100 relaxation time in fs
  (WPLASMAI=    0.000 imaginary part of plasma frequency in eV, 0.658/RTIME)
   DFIELD  = 0.0000000 0.0000000 0.0000000 field for delta impulse in time
 
 Orbital magnetization related:
   ORBITALMAG=     F  switch on orbital magnetization
   LCHIMAG   =     F  perturbation theory with respect to B field
   DQ        =  0.001000  dq finite difference perturbation B field
   LLRAUG    =     F  two centre corrections for induced B field



--------------------------------------------------------------------------------------------------------


 conjugate gradient relaxation of ions
   using selective dynamics as specified on POSCAR
 charge density and potential will be updated during run
 spin polarized calculation
 RMM-DIIS sequential band-by-band and
  variant of blocked Davidson during initial phase
 perform sub-space diagonalisation
    before iterative eigenvector-optimisation
 modified Broyden-mixing scheme, WC =      100.0
 initial mixing is a Kerker type mixing with AMIX =  0.4000 and BMIX =      1.0000
 Hartree-type preconditioning will be used
 using additional bands          199
 real space projection scheme for non local part
 use partial core corrections
 calculate Harris-corrections to forces 
   (improved forces if not selfconsistent)
 use gradient corrections 
 use of overlap-Matrix (Vanderbilt PP)
 Methfessel and Paxton  Order N= 1 SIGMA  =   0.10


--------------------------------------------------------------------------------------------------------


  energy-cutoff  :      550.00
  volume of cell :     2205.86
      direct lattice vectors                 reciprocal lattice vectors
    10.760000229  0.000000000  0.000000000     0.092936801 -0.053657087  0.000000000
     5.380000114  9.318433543  0.000000000     0.000000000  0.107314174  0.000000000
     0.000000000  0.000000000 22.000000000     0.000000000  0.000000000  0.045454545

  length of vectors
    10.760000229 10.760000229 22.000000000     0.107314174  0.107314174  0.045454545


 
 k-points in units of 2pi/SCALE and weight: mesh auto                               
   0.00000000  0.00000000  0.00000000       0.250
   0.04646840 -0.02682854  0.00000000       0.250
   0.00000000  0.05365709  0.00000000       0.250
   0.04646840  0.02682854  0.00000000       0.250
 
 k-points in reciprocal lattice and weights: mesh auto                               
   0.00000000  0.00000000  0.00000000       0.250
   0.50000000  0.00000000  0.00000000       0.250
   0.00000000  0.50000000  0.00000000       0.250
   0.50000000  0.50000000  0.00000000       0.250
 
 position of ions in fractional coordinates (direct lattice) 
   0.78630364  0.87985516  0.31579062
   0.04224145  0.88241600  0.31447087
   0.27901334  0.38063736  0.31781889
   0.87059820  0.96425044  0.42229538
   0.11985466  0.46347373  0.42381962
   0.12534141  0.96365774  0.42039088
   0.87435511  0.45921883  0.42339424
   0.37365696  0.96026939  0.41753756
   0.87155940  0.21408433  0.41720951
   0.12547606  0.21244857  0.41934278
   0.62422563  0.96044136  0.42042077
   0.87200071  0.70988016  0.42286043
   0.37417258  0.20904536  0.42138655
   0.37802308  0.71127443  0.42019954
   0.62568644  0.46188242  0.41983128
   0.12633321  0.70689834  0.42512744
   0.62399740  0.21084321  0.41900992
   0.54776837  0.37585151  0.31592551
   0.53367310  0.12508775  0.31375184
   0.54792673  0.12328922  0.04383544
   0.11934534  0.45972459  0.12874496
   0.04423495  0.13553346  0.31339626
   0.04080409  0.13114989  0.03536365
   0.13130448  0.95799902  0.13303643
   0.37415327  0.46114175  0.42243279
   0.45548595  0.54686581  0.21920607
   0.62191861  0.71206042  0.42107375
   0.95569127  0.78735065  0.22050316
   0.79499587  0.62310480  0.31818313
   0.28974496  0.63167392  0.31731182
   0.20123751  0.27885537  0.22539603
   0.70531330  0.55071706  0.22107616
   0.04021377  0.63182323  0.32341881
   0.79547831  0.86112383  0.04571520
   0.05752126  0.86417890  0.04095355
   0.04560842  0.63181793  0.04035269
   0.62783056  0.22534483  0.13048248
   0.38256550  0.95351772  0.13142638
   0.03521903  0.38395190  0.32275966
   0.02606154  0.38108859  0.04031026
   0.87237117  0.21512876  0.12980204
   0.95473355  0.54429733  0.22390732
   0.29689872  0.11600876  0.32000987
   0.54070692  0.62864430  0.32103635
   0.29497516  0.11635164  0.04266773
   0.54978575  0.62534505  0.04613061
   0.29695661  0.38236522  0.04225645
   0.62494582  0.94748125  0.13365829
   0.70737833  0.79257412  0.22040958
   0.86436375  0.70296060  0.12998592
   0.62697878  0.45925237  0.12844896
   0.29789209  0.87406327  0.31758793
   0.30717798  0.86850230  0.04269928
   0.62598466  0.71583948  0.12941889
   0.22636977  0.02657626  0.22776586
   0.54227868  0.38236495  0.03729113
   0.37702362  0.20555691  0.13422710
   0.13865409  0.70465584  0.13379824
   0.70443847  0.05100720  0.22039029
   0.79292857  0.12924932  0.31584784
   0.53873159  0.87286112  0.31655115
   0.79646401  0.12292985  0.03752709
   0.54537813  0.87134059  0.03811632
   0.20799686  0.54236125  0.22387311
   0.95025177  0.29885657  0.22184935
   0.87213940  0.96454459  0.13055765
   0.71606081  0.29079466  0.22408721
   0.45720633  0.29314346  0.22115087
   0.87466671  0.45688038  0.12942461
   0.12748153  0.20654114  0.12968723
   0.79120473  0.62110974  0.04224622
   0.29782181  0.62682596  0.04505060
   0.38631574  0.71285295  0.13020276
   0.38227049  0.45188866  0.12824332
   0.79281427  0.38079923  0.31974615
   0.79144401  0.37652223  0.04177987
   0.95541234  0.05424527  0.22153844
   0.45873218  0.79628882  0.22538547
   0.21584487  0.79782265  0.22481112
   0.46163445  0.02868030  0.22280218
   0.87235045  0.33610468  0.46576459
 
 position of ions in cartesian coordinates  (Angst):
  13.19424822  8.19887186  6.94739367
   5.20191625  8.22273487  6.91835920
   5.05001263  3.54694393  6.99201568
  14.55530436  8.98530365  9.29049844
   3.78312494  4.31884917  9.32403160
   6.53315229  8.97978059  9.24859929
  11.87865858  4.27920019  9.31467326
   9.18679843  8.94820646  9.18582643
  10.52975302  1.99493057  9.17860932
   2.49309574  1.97968788  9.22554119
  11.88384260  8.94980901  9.24925697
  13.20188321  6.61497109  9.30292954
   5.15076115  1.94797528  9.27050407
   7.89418501  6.62796355  9.24438998
   9.21731369  4.30402065  9.23628810
   5.16245853  6.58718519  9.35280366
   7.84854866  1.96472843  9.21821827
   7.91606892  3.50234732  6.95036118
   6.41529472  1.16562184  6.90254055
   6.55898775  1.14886237  0.96437977
   3.75747418  4.28391300  2.83238908
   1.20513812  1.26295949  6.89471779
   1.14463842  1.22211154  0.77800032
   6.56687105  8.92705020  2.92680150
   6.50683193  4.29711880  9.29352134
   7.84316702  5.09593270  4.82253351
  10.52272949  6.63528772  9.26362240
  14.51918494  7.33687474  4.85106957
  11.90645966  5.80636069  7.00002893
   6.51606159  5.88621141  6.98086013
   3.66555757  2.59849521  4.95871257
  10.55202913  5.13182036  4.86367551
   3.83190924  5.88760283  7.11521375
  13.19219308  8.02432517  1.00573441
   5.26821132  8.05279369  0.90097800
   3.88992717  5.88755336  0.88775920
   7.96781219  2.09986084  2.87061459
   9.24633038  8.88529155  2.89138037
   2.44461807  3.57783030  7.10071246
   2.33067882  3.55114870  0.88682572
  10.54410677  2.00466306  2.85564487
  13.20125292  5.07199845  4.92596105
   3.81875744  1.08101994  7.04021717
   9.20011306  5.85798017  7.06279970
   3.79990464  1.08421507  0.93869010
   9.28005122  5.82723631  1.01487350
   5.25237804  3.56304485  0.92964181
  11.82186637  8.82904104  2.94048247
  11.87543982  7.38554930  4.84901070
  13.08248223  6.55049166  2.85969017
   9.21706959  4.27951266  2.82587719
   7.90777947  8.14490051  6.98693446
   7.97777754  8.09308092  0.93938418
  10.58681158  6.67050258  2.84721558
   2.57871913  0.24764915  5.01084896
   7.89204220  3.56304242  0.82040476
   5.16267047  1.91546844  2.95299618
   5.28296656  6.56628862  2.94356121
   7.85417690  0.47530725  4.84858632
   9.22727294  1.20440124  6.94865257
  10.49274493  8.13369836  6.96412523
   9.23131555  1.14551366  0.82559594
  10.55608126  8.11952937  0.83855902
   5.15594988  5.05395730  4.92520835
  11.83255762  2.78487505  4.88068561
  14.57347016  8.98804467  2.87226841
   9.26928977  2.70975073  4.92991863
   6.49665205  2.73163781  4.86531912
  11.86943045  4.25740942  2.84734150
   2.48289262  1.92463988  2.85311896
  11.85493352  5.78776983  0.92941673
   6.57688653  5.84103608  0.99111319
   7.99190642  6.64267286  2.86446066
   6.54439165  4.21089446  2.82135314
  10.57938165  3.54845234  7.03441524
  10.54162732  3.50859735  0.91915711
  10.57207652  0.50548096  4.87384564
   9.21999232  7.42016445  4.95848029
   6.61477676  7.43445734  4.94584463
   5.12148683  0.26725547  4.90164786
  11.19473424  3.13196917 10.24682090
 


--------------------------------------------------------------------------------------------------------


 k-point  1 :   0.0000 0.0000 0.0000  plane waves:   64687
 k-point  2 :   0.5000 0.0000 0.0000  plane waves:   64612
 k-point  3 :   0.0000 0.5000 0.0000  plane waves:   64612
 k-point  4 :   0.5000 0.5000 0.0000  plane waves:   64612

 maximum and minimum number of plane-waves per node :     16191    16134

 maximum number of plane-waves:     64687
 maximum index in each direction: 
   IXMAX=   20   IYMAX=   20   IZMAX=   42
   IXMIN=  -21   IYMIN=  -21   IZMIN=  -42


 real space projection operators:
  total allocation   :      74970.34 KBytes
  max/ min on nodes  :      18753.01      18730.73


 parallel 3D FFT for wavefunctions:
    minimum data exchange during FFTs selected (reduces bandwidth)
 parallel 3D FFT for charge:
    minimum data exchange during FFTs selected (reduces bandwidth)


 total amount of memory used by VASP MPI-rank0   233092. kBytes
=======================================================================

   base      :      30000. kBytes
   nonlr-proj:      33407. kBytes
   fftplans  :      16137. kBytes
   grid      :      49182. kBytes
   one-center:        653. kBytes
   wavefun   :     103713. kBytes
 
     INWAV:  cpu time    0.0000: real time    0.0003
 Broyden mixing: mesh for mixing (old mesh)
   NGX = 41   NGY = 41   NGZ = 85
  (NGX  =168   NGY  =168   NGZ  =336)
  gives a total of 142885 points

 initial charge density was supplied:
 charge density of overlapping atoms calculated
 number of electron     778.0000000 magnetization     231.0000000
 keeping initial charge density in first step


--------------------------------------------------------------------------------------------------------


 Maximum index for non-local projection operator         1828
 Maximum index for augmentation-charges         1428 (set IRDMAX)


--------------------------------------------------------------------------------------------------------


 First call to EWALD:  gamma=   0.136
 Maximum number of real-space cells 4x 4x 2
 Maximum number of reciprocal cells 2x 2x 4

    FEWALD:  cpu time    0.0063: real time    0.0063


--------------------------------------- Iteration      1(   1)  ---------------------------------------


    POTLOK:  cpu time    0.3748: real time    0.3833
    SETDIJ:  cpu time    0.0339: real time    0.0396
     EDDAV:  cpu time   60.3508: real time   60.5225
       DOS:  cpu time    0.0022: real time    0.0024
    --------------------------------------------
      LOOP:  cpu time   60.7618: real time   60.9478

 eigenvalue-minimisations  :  9408
 total energy-change (2. order) : 0.7768455E+04  (-0.3290404E+05)
 number of electron     778.0000000 magnetization     231.0000000
 augmentation part      778.0000000 magnetization     231.0000000

 Free energy of the ion-electron system (eV)
  ---------------------------------------------------
  alpha Z        PSCENC =      2156.50569604
  Ewald energy   TEWEN  =    221626.76080162
  -Hartree energ DENC   =   -293653.07492821
  -exchange      EXHF   =         0.00000000
  -V(xc)+E(xc)   XCENC  =      1381.61532122
  PAW double counting   =     64136.80006862   -66038.70876209
  entropy T*S    EENTRO =        -0.00075477
  eigenvalues    EBANDS =      7939.90326952
  atomic energy  EATOM  =     70218.65458108
  Solvation  Ediel_sol  =         0.00000000
  ---------------------------------------------------
  free energy    TOTEN  =      7768.45529303 eV

  energy without entropy =     7768.45604780  energy(sigma->0) =     7768.45554462


--------------------------------------------------------------------------------------------------------




--------------------------------------- Iteration      1(   2)  ---------------------------------------


     EDDAV:  cpu time   60.3481: real time   60.5104
       DOS:  cpu time    0.0024: real time    0.0026
    --------------------------------------------
      LOOP:  cpu time   60.3505: real time   60.5131

 eigenvalue-minimisations  :  9408
 total energy-change (2. order) :-0.6955227E+04  (-0.6224218E+04)
 number of electron     778.0000000 magnetization     231.0000000
 augmentation part      778.0000000 magnetization     231.0000000

 Free energy of the ion-electron system (eV)
  ---------------------------------------------------
  alpha Z        PSCENC =      2156.50569604
  Ewald energy   TEWEN  =    221626.76080162
  -Hartree energ DENC   =   -293653.07492821
  -exchange      EXHF   =         0.00000000
  -V(xc)+E(xc)   XCENC  =      1381.61532122
  PAW double counting   =     64136.80006862   -66038.70876209
  entropy T*S    EENTRO =         0.00348691
  eigenvalues    EBANDS =       984.67201539
  atomic energy  EATOM  =     70218.65458108
  Solvation  Ediel_sol  =         0.00000000
  ---------------------------------------------------
  free energy    TOTEN  =       813.22828057 eV

  energy without entropy =      813.22479367  energy(sigma->0) =      813.22711827


--------------------------------------------------------------------------------------------------------




--------------------------------------- Iteration      1(   3)  ---------------------------------------


     EDDAV:  cpu time   60.2913: real time   60.4830
       DOS:  cpu time    0.0027: real time    0.0028
    --------------------------------------------
      LOOP:  cpu time   60.2939: real time   60.4858

 eigenvalue-minimisations  :  9408
 total energy-change (2. order) :-0.1189268E+04  (-0.9633739E+03)
 number of electron     778.0000000 magnetization     231.0000000
 augmentation part      778.0000000 magnetization     231.0000000

 Free energy of the ion-electron system (eV)
  ---------------------------------------------------
  alpha Z        PSCENC =      2156.50569604
  Ewald energy   TEWEN  =    221626.76080162
  -Hartree energ DENC   =   -293653.07492821
  -exchange      EXHF   =         0.00000000
  -V(xc)+E(xc)   XCENC  =      1381.61532122
  PAW double counting   =     64136.80006862   -66038.70876209
  entropy T*S    EENTRO =        -0.01453889
  eigenvalues    EBANDS =      -204.57844798
  atomic energy  EATOM  =     70218.65458108
  Solvation  Ediel_sol  =         0.00000000
  ---------------------------------------------------
  free energy    TOTEN  =      -376.04020859 eV

  energy without entropy =     -376.02566971  energy(sigma->0) =     -376.03536230


--------------------------------------------------------------------------------------------------------




--------------------------------------- Iteration      1(   4)  ---------------------------------------


     EDDAV:  cpu time   72.1537: real time   72.3781
       DOS:  cpu time    0.0028: real time    0.0038
    --------------------------------------------
      LOOP:  cpu time   72.1565: real time   72.3819

 eigenvalue-minimisations  : 11856
 total energy-change (2. order) :-0.1168351E+03  (-0.1068733E+03)
 number of electron     778.0000000 magnetization     231.0000000
 augmentation part      778.0000000 magnetization     231.0000000

 Free energy of the ion-electron system (eV)
  ---------------------------------------------------
  alpha Z        PSCENC =      2156.50569604
  Ewald energy   TEWEN  =    221626.76080162
  -Hartree energ DENC   =   -293653.07492821
  -exchange      EXHF   =         0.00000000
  -V(xc)+E(xc)   XCENC  =      1381.61532122
  PAW double counting   =     64136.80006862   -66038.70876209
  entropy T*S    EENTRO =        -0.00529454
  eigenvalues    EBANDS =      -321.42277679
  atomic energy  EATOM  =     70218.65458108
  Solvation  Ediel_sol  =         0.00000000
  ---------------------------------------------------
  free energy    TOTEN  =      -492.87529305 eV

  energy without entropy =     -492.86999851  energy(sigma->0) =     -492.87352820


--------------------------------------------------------------------------------------------------------




--------------------------------------- Iteration      1(   5)  ---------------------------------------


     EDDAV:  cpu time   68.7116: real time   68.9351
       DOS:  cpu time    0.0030: real time    0.0078
    CHARGE:  cpu time    3.8306: real time    3.8462
    MIXING:  cpu time    0.0096: real time    0.0097
    --------------------------------------------
      LOOP:  cpu time   72.5548: real time   72.7988

 eigenvalue-minimisations  : 11136
 total energy-change (2. order) :-0.4358710E+01  (-0.4323104E+01)
 number of electron     777.9999975 magnetization     216.6693406
 augmentation part      335.0843456 magnetization     183.7093413

 Broyden mixing:
  rms(total) = 0.11586E+02    rms(broyden)= 0.11586E+02
  rms(prec ) = 0.11922E+02
  weight for this iteration     100.00

 Free energy of the ion-electron system (eV)
  ---------------------------------------------------
  alpha Z        PSCENC =      2156.50569604
  Ewald energy   TEWEN  =    221626.76080162
  -Hartree energ DENC   =   -293653.07492821
  -exchange      EXHF   =         0.00000000
  -V(xc)+E(xc)   XCENC  =      1381.61532122
  PAW double counting   =     64136.80006862   -66038.70876209
  entropy T*S    EENTRO =        -0.00606314
  eigenvalues    EBANDS =      -325.78071860
  atomic energy  EATOM  =     70218.65458108
  Solvation  Ediel_sol  =         0.00000000
  ---------------------------------------------------
  free energy    TOTEN  =      -497.23400346 eV

  energy without entropy =     -497.22794033  energy(sigma->0) =     -497.23198242


--------------------------------------------------------------------------------------------------------




--------------------------------------- Iteration      1(   6)  ---------------------------------------


    POTLOK:  cpu time    0.3464: real time    0.3760
    SETDIJ:  cpu time    0.0315: real time    0.0317
    EDDIAG:  cpu time   10.6189: real time   10.6571
  RMM-DIIS:  cpu time   37.0157: real time   37.1476
    ORTHCH:  cpu time    1.2213: real time    1.2246
       DOS:  cpu time    0.0024: real time    0.0024
    CHARGE:  cpu time    3.6002: real time    3.6094
    MIXING:  cpu time    0.0103: real time    0.0114
    --------------------------------------------
      LOOP:  cpu time   52.8469: real time   53.0602

 eigenvalue-minimisations  :  9582
 total energy-change (2. order) :-0.1922116E+03  (-0.9523898E+02)
 number of electron     777.9999957 magnetization     212.7661831
 augmentation part      406.8429957 magnetization     179.3772316

 Broyden mixing:
  rms(total) = 0.20196E+02    rms(broyden)= 0.20196E+02
  rms(prec ) = 0.26340E+02
  weight for this iteration     100.00

 eigenvalues of (default mixing * dielectric matrix)
  average eigenvalue GAMMA=   0.2126
  0.2126

 Free energy of the ion-electron system (eV)
  ---------------------------------------------------
  alpha Z        PSCENC =      2156.50569604
  Ewald energy   TEWEN  =    221626.76080162
  -Hartree energ DENC   =   -292040.96212000
  -exchange      EXHF   =         0.00000000
  -V(xc)+E(xc)   XCENC  =      1335.46439818
  PAW double counting   =     68871.95625515   -70559.27080565
  entropy T*S    EENTRO =         0.01130797
  eigenvalues    EBANDS =     -2298.56569253
  atomic energy  EATOM  =     70218.65458108
  Solvation  Ediel_sol  =         0.00000000
  ---------------------------------------------------
  free energy    TOTEN  =      -689.44557815 eV

  energy without entropy =     -689.45688612  energy(sigma->0) =     -689.44934748


--------------------------------------------------------------------------------------------------------




--------------------------------------- Iteration      1(   7)  ---------------------------------------


    POTLOK:  cpu time    0.3431: real time    0.3492
    SETDIJ:  cpu time    0.0321: real time    0.0322
    EDDIAG:  cpu time   10.6382: real time   10.6794
  RMM-DIIS:  cpu time   36.4546: real time   36.5526
    ORTHCH:  cpu time    1.2241: real time    1.2305
       DOS:  cpu time    0.0024: real time    0.0024
    CHARGE:  cpu time    3.6662: real time    3.6754
    MIXING:  cpu time    0.0109: real time    0.0110
    --------------------------------------------
      LOOP:  cpu time   52.3715: real time   52.5327

 eigenvalue-minimisations  :  9418
 total energy-change (2. order) : 0.1666701E+03  (-0.1623014E+02)
 number of electron     777.9999971 magnetization     208.0321923
 augmentation part      368.8844119 magnetization     164.9957065

 Broyden mixing:
  rms(total) = 0.14932E+02    rms(broyden)= 0.14932E+02
  rms(prec ) = 0.19930E+02
  weight for this iteration     100.00

 eigenvalues of (default mixing * dielectric matrix)
  average eigenvalue GAMMA=   0.2692
  0.3712  0.1673

 Free energy of the ion-electron system (eV)
  ---------------------------------------------------
  alpha Z        PSCENC =      2156.50569604
  Ewald energy   TEWEN  =    221626.76080162
  -Hartree energ DENC   =   -292709.12248620
  -exchange      EXHF   =         0.00000000
  -V(xc)+E(xc)   XCENC  =      1354.92128088
  PAW double counting   =     69874.56431016   -71717.95948164
  entropy T*S    EENTRO =        -0.01647882
  eigenvalues    EBANDS =     -1327.08370348
  atomic energy  EATOM  =     70218.65458108
  Solvation  Ediel_sol  =         0.00000000
  ---------------------------------------------------
  free energy    TOTEN  =      -522.77548036 eV

  energy without entropy =     -522.75900154  energy(sigma->0) =     -522.76998742


--------------------------------------------------------------------------------------------------------




--------------------------------------- Iteration      1(   8)  ---------------------------------------


    POTLOK:  cpu time    0.3475: real time    0.3493
    SETDIJ:  cpu time    0.0320: real time    0.0321
    EDDIAG:  cpu time   10.6296: real time   10.6586
  RMM-DIIS:  cpu time   36.5398: real time   36.6467
    ORTHCH:  cpu time    1.2217: real time    1.2262
       DOS:  cpu time    0.0024: real time    0.0025
    CHARGE:  cpu time    3.5338: real time    3.5431
    MIXING:  cpu time    0.0118: real time    0.0121
    --------------------------------------------
      LOOP:  cpu time   52.3187: real time   52.4705

 eigenvalue-minimisations  :  9436
 total energy-change (2. order) : 0.3986536E+02  (-0.1146888E+02)
 number of electron     777.9999974 magnetization     200.8722048
 augmentation part      373.0022789 magnetization     163.9370469

 Broyden mixing:
  rms(total) = 0.16317E+02    rms(broyden)= 0.16317E+02
  rms(prec ) = 0.19162E+02
  weight for this iteration     100.00

 eigenvalues of (default mixing * dielectric matrix)
  average eigenvalue GAMMA=   0.3078
  0.5811  0.2606  0.0815

 Free energy of the ion-electron system (eV)
  ---------------------------------------------------
  alpha Z        PSCENC =      2156.50569604
  Ewald energy   TEWEN  =    221626.76080162
  -Hartree energ DENC   =   -292963.72431122
  -exchange      EXHF   =         0.00000000
  -V(xc)+E(xc)   XCENC  =      1360.86794202
  PAW double counting   =     71075.15553143   -72991.47571043
  entropy T*S    EENTRO =         0.00961928
  eigenvalues    EBANDS =      -965.66426753
  atomic energy  EATOM  =     70218.65458108
  Solvation  Ediel_sol  =         0.00000000
  ---------------------------------------------------
  free energy    TOTEN  =      -482.91011772 eV

  energy without entropy =     -482.91973701  energy(sigma->0) =     -482.91332415


--------------------------------------------------------------------------------------------------------




--------------------------------------- Iteration      1(   9)  ---------------------------------------


    POTLOK:  cpu time    0.3483: real time    0.3502
    SETDIJ:  cpu time    0.0321: real time    0.0322
    EDDIAG:  cpu time   10.6083: real time   10.6363
  RMM-DIIS:  cpu time   36.6131: real time   36.7083
    ORTHCH:  cpu time    1.2158: real time    1.2217
       DOS:  cpu time    0.0025: real time    0.0025
    CHARGE:  cpu time    3.6045: real time    3.6179
    MIXING:  cpu time    0.0110: real time    0.0111
    --------------------------------------------
      LOOP:  cpu time   52.4355: real time   52.5801

 eigenvalue-minimisations  :  9449
 total energy-change (2. order) : 0.9547903E+02  (-0.1510745E+02)
 number of electron     777.9999968 magnetization     192.7226511
 augmentation part      375.1999036 magnetization     147.1227681

 Broyden mixing:
  rms(total) = 0.12377E+02    rms(broyden)= 0.12377E+02
  rms(prec ) = 0.14058E+02
  weight for this iteration     100.00

 eigenvalues of (default mixing * dielectric matrix)
  average eigenvalue GAMMA=   0.3603
  0.8672  0.3453  0.1293  0.0994

 Free energy of the ion-electron system (eV)
  ---------------------------------------------------
  alpha Z        PSCENC =      2156.50569604
  Ewald energy   TEWEN  =    221626.76080162
  -Hartree energ DENC   =   -292697.16883547
  -exchange      EXHF   =         0.00000000
  -V(xc)+E(xc)   XCENC  =      1377.83530216
  PAW double counting   =     72467.07159130   -74435.60327215
  entropy T*S    EENTRO =        -0.01319769
  eigenvalues    EBANDS =     -1101.47375616
  atomic energy  EATOM  =     70218.65458108
  Solvation  Ediel_sol  =         0.00000000
  ---------------------------------------------------
  free energy    TOTEN  =      -387.43108928 eV

  energy without entropy =     -387.41789159  energy(sigma->0) =     -387.42669005


[...]
   -.158E+01 0.382E+02 -.286E+04   0.188E+01 -.378E+02 0.286E+04   -.305E+00 -.377E+00 0.106E+01   0.708E-03 -.141E-01 -.299E-01
   -.151E+02 0.804E+01 -.285E+04   0.147E+02 -.746E+01 0.285E+04   0.418E+00 -.568E+00 0.171E+01   0.770E-02 -.189E-01 -.274E-01
   0.491E+01 0.104E+01 -.285E+04   -.486E+01 -.153E+01 0.284E+04   -.255E-01 0.435E+00 0.130E+01   -.113E-01 -.159E-02 -.271E-01
   -.312E+02 -.172E+02 -.288E+04   0.311E+02 0.166E+02 0.288E+04   0.289E-01 0.515E+00 0.979E-01   -.187E-01 -.196E-01 -.721E-01
   0.122E+02 -.216E+02 -.288E+04   -.125E+02 0.216E+02 0.288E+04   0.413E+00 -.906E-01 0.200E+01   -.745E-02 -.546E-03 0.310E-02
   -.149E+02 0.287E+02 -.287E+04   0.146E+02 -.285E+02 0.287E+04   0.270E+00 -.112E+00 0.317E-01   0.365E-02 0.159E-01 -.495E-01
   -.577E+01 -.446E+01 -.282E+04   0.709E+01 0.429E+01 0.282E+04   -.130E+01 0.209E+00 0.232E+01   -.821E-02 0.195E-01 -.471E-01
   -.127E+02 -.621E+01 -.288E+04   0.130E+02 0.596E+01 0.288E+04   -.363E+00 0.217E+00 0.101E+01   0.143E-01 -.474E-02 -.789E-02
   -.213E+02 -.801E+01 -.286E+04   0.214E+02 0.749E+01 0.285E+04   -.596E-01 0.517E+00 0.140E+01   0.150E-01 0.129E-01 -.101E-01
   0.223E+01 -.248E+02 -.286E+04   -.254E+01 0.244E+02 0.286E+04   0.329E+00 0.411E+00 0.111E+01   -.235E-02 0.259E-01 -.183E-01
   0.309E+02 0.126E+02 -.287E+04   -.303E+02 -.123E+02 0.287E+04   -.603E+00 -.239E+00 0.168E+01   0.670E-02 -.726E-02 -.291E-03
   0.256E+02 -.821E+01 -.285E+04   -.259E+02 0.897E+01 0.285E+04   0.388E+00 -.740E+00 0.191E+01   0.154E-01 0.731E-03 -.413E-01
   0.415E+00 -.267E+01 -.286E+04   -.734E+00 0.217E+01 0.286E+04   0.324E+00 0.506E+00 0.142E+01   -.473E-02 0.987E-02 -.143E-01
   0.280E+02 -.953E+01 -.287E+04   -.281E+02 0.959E+01 0.287E+04   0.108E+00 -.893E-01 0.135E+01   0.177E-03 0.454E-02 -.220E-01
   0.654E+02 -.652E+02 -.149E+04   -.641E+02 0.654E+02 0.149E+04   -.127E+01 -.147E+00 0.168E+01   0.132E-01 -.301E-02 -.187E-01
   0.248E+02 -.421E+02 -.148E+04   -.260E+02 0.416E+02 0.148E+04   0.113E+01 0.435E+00 0.245E+01   0.407E-02 0.109E-01 -.235E-01
   0.339E+02 0.244E+02 0.295E+04   -.339E+02 -.246E+02 -.295E+04   0.491E-01 0.221E+00 -.261E+01   0.326E-02 0.619E-02 0.306E-02
   0.262E+02 -.595E+01 0.158E+04   -.271E+02 0.666E+01 -.158E+04   0.964E+00 -.676E+00 0.913E+00   -.128E-02 -.365E-03 0.302E-02
   -.638E+02 0.876E+01 -.145E+04   0.646E+02 -.798E+01 0.145E+04   -.739E+00 -.778E+00 0.252E+01   -.886E-02 0.560E-02 -.419E-01
   -.527E+02 0.591E+02 0.302E+04   0.533E+02 -.580E+02 -.301E+04   -.697E+00 -.109E+01 -.239E+01   0.398E-03 -.692E-02 0.113E-01
   0.892E+01 -.549E+02 0.156E+04   -.866E+01 0.544E+02 -.156E+04   -.308E+00 0.481E+00 -.801E+00   -.257E-02 0.445E-02 0.249E-01
   0.126E+02 -.462E+00 -.286E+04   -.127E+02 0.503E+00 0.286E+04   0.167E+00 -.272E-01 0.103E+01   -.101E-01 -.173E-01 -.780E-02
   -.164E+02 0.824E-01 0.103E+02   0.165E+02 0.216E+00 -.114E+02   -.744E-01 -.374E+00 0.110E+01   -.169E-03 0.107E-01 0.105E-01
   -.120E+02 0.109E+02 -.288E+04   0.115E+02 -.107E+02 0.288E+04   0.554E+00 -.115E+00 0.159E+01   -.116E-01 -.145E-01 -.335E-01
   0.141E+02 0.527E+02 0.279E+02   -.151E+02 -.540E+02 -.281E+02   0.110E+01 0.125E+01 0.110E+00   0.118E-01 0.525E-02 -.409E-02
   -.626E+02 0.855E+01 -.147E+04   0.631E+02 -.101E+02 0.146E+04   -.494E+00 0.160E+01 0.254E+01   0.529E-03 -.158E-01 -.396E-01
   0.284E+02 0.286E+02 -.151E+04   -.282E+02 -.279E+02 0.151E+04   -.244E+00 -.709E+00 0.224E+01   0.232E-03 0.940E-02 -.335E-01
   0.102E+02 -.649E+02 -.639E+02   -.112E+02 0.643E+02 0.642E+02   0.103E+01 0.566E+00 -.296E+00   -.182E-01 -.563E-02 -.244E-02
   -.231E+02 -.156E+02 0.208E+01   0.238E+02 0.164E+02 -.276E+01   -.746E+00 -.884E+00 0.723E+00   0.513E-02 -.138E-02 0.294E-01
   0.203E+02 0.133E+02 -.121E+04   -.204E+02 -.137E+02 0.120E+04   0.705E-01 0.446E+00 0.330E+00   -.418E-02 -.530E-02 -.214E-01
   -.670E+02 -.755E+01 0.237E+04   0.672E+02 0.625E+01 -.237E+04   -.278E+00 0.132E+01 -.286E+01   0.147E-01 -.722E-03 -.575E-03
   0.361E+02 -.201E+02 0.241E+04   -.359E+02 0.185E+02 -.241E+04   -.695E-01 0.164E+01 -.253E+01   0.119E-02 -.713E-03 0.798E-02
   0.267E+02 0.382E+01 0.241E+04   -.267E+02 -.306E+01 -.240E+04   -.346E-02 -.804E+00 -.312E+01   0.589E-02 0.392E-02 0.451E-02
   0.178E+02 0.606E+02 0.125E+04   -.169E+02 -.598E+02 -.126E+04   -.956E+00 -.821E+00 -.716E-01   0.170E-02 -.558E-02 0.570E-02
   0.302E+02 -.650E+02 0.125E+04   -.301E+02 0.646E+02 -.125E+04   -.107E+00 0.301E+00 -.435E+00   -.212E-01 0.119E-01 0.186E-01
   -.517E+02 -.242E+02 -.121E+04   0.518E+02 0.244E+02 0.121E+04   -.138E+00 -.219E+00 0.682E+00   -.108E-01 0.371E-02 -.170E-01
   -.119E+03 0.180E+02 0.242E+04   0.118E+03 -.178E+02 -.242E+04   0.761E+00 -.184E+00 -.298E+01   0.469E-02 -.350E-02 0.392E-02
   -.349E+02 0.503E+02 0.127E+04   0.340E+02 -.498E+02 -.127E+04   0.867E+00 -.530E+00 -.448E+00   0.525E-02 -.180E-01 0.135E-01
   -.503E+02 0.335E+01 -.377E+02   0.500E+02 -.295E+01 0.377E+02   0.220E+00 -.459E+00 -.113E+00   -.178E-02 -.431E-02 0.950E-02
   0.142E+02 -.805E+02 -.121E+04   -.144E+02 0.804E+02 0.121E+04   0.161E+00 0.207E+00 0.925E+00   -.920E-02 0.115E-01 -.294E-01
   0.105E+02 0.304E+02 -.120E+04   -.106E+02 -.305E+02 0.120E+04   0.957E-01 0.418E-02 0.199E+00   0.955E-02 -.937E-02 -.215E-01
   0.335E+01 -.624E+02 0.239E+04   -.415E+01 0.613E+02 -.239E+04   0.830E+00 0.107E+01 -.304E+01   -.667E-02 0.302E-02 0.733E-02
   0.109E+02 -.154E+02 0.269E+04   -.109E+02 0.156E+02 -.269E+04   0.273E-01 -.244E+00 -.252E+01   -.110E-01 0.211E-02 -.979E-02
   0.132E+03 0.386E+02 0.272E+04   -.132E+03 -.377E+02 -.272E+04   0.178E+00 -.874E+00 -.275E+01   -.330E-02 0.432E-02 0.571E-02
   -.478E+02 -.438E+02 0.138E+04   0.472E+02 0.427E+02 -.138E+04   0.507E+00 0.115E+01 -.333E+00   0.621E-02 0.794E-02 0.867E-02
   -.641E+02 0.558E+02 0.215E+02   0.642E+02 -.556E+02 -.223E+02   -.552E-01 -.151E+00 0.693E+00   0.146E-02 -.839E-02 0.118E-01
   -.105E+03 0.129E+02 0.138E+04   0.105E+03 -.124E+02 -.138E+04   0.469E+00 -.476E+00 -.173E+00   0.192E-01 -.311E-02 0.790E-02
   -.163E+02 0.640E+01 0.136E+04   0.165E+02 -.668E+01 -.136E+04   -.147E+00 0.347E+00 -.193E+00   -.652E-02 -.162E-01 0.139E-01
   0.439E+02 0.293E+01 -.137E+04   -.437E+02 -.310E+01 0.137E+04   -.208E+00 0.214E+00 0.125E+01   -.102E-01 -.166E-02 -.494E-01
   0.598E+02 -.792E+02 0.271E+04   -.594E+02 0.790E+02 -.270E+04   -.482E+00 0.204E+00 -.271E+01   -.166E-01 0.100E-01 0.727E-02
   -.135E+02 0.452E+01 0.135E+04   0.137E+02 -.427E+01 -.135E+04   -.148E+00 -.272E+00 -.457E+00   0.237E-02 0.645E-02 0.199E-01
   0.263E+02 -.748E+02 -.148E+02   -.254E+02 0.743E+02 0.151E+02   -.894E+00 0.629E+00 -.400E+00   -.167E-01 -.274E-02 -.179E-01
   0.357E+02 0.408E+02 0.336E+04   -.358E+02 -.399E+02 -.336E+04   0.853E-01 -.938E+00 -.400E+01   -.131E-01 -.904E-02 0.280E-02
   0.578E+02 0.541E+01 0.170E+04   -.580E+02 -.603E+01 -.170E+04   0.141E+00 0.650E+00 -.131E+00   -.836E-02 0.473E-02 0.603E-02
   0.114E+03 -.347E+02 0.167E+04   -.113E+03 0.348E+02 -.167E+04   -.187E+00 -.481E-01 -.759E-01   0.253E-02 0.141E-01 0.172E-02
   0.185E+02 0.660E+02 0.993E+02   -.192E+02 -.658E+02 -.998E+02   0.633E+00 -.265E+00 0.499E+00   0.188E-01 0.289E-02 -.380E-02
   0.116E+02 0.502E+02 -.166E+04   -.109E+02 -.498E+02 0.166E+04   -.656E+00 -.449E+00 0.118E+01   0.131E-01 0.235E-03 -.365E-01
   -.415E+02 0.292E+02 -.165E+04   0.406E+02 -.289E+02 0.164E+04   0.998E+00 -.266E+00 0.213E+01   -.167E-02 -.182E-01 -.434E-01
   0.156E+01 0.102E+03 0.331E+04   -.147E+01 -.102E+03 -.331E+04   -.143E+00 0.487E+00 -.332E+01   0.572E-02 -.100E-01 0.104E-01
   -.232E+02 -.844E+02 0.334E+04   0.223E+02 0.841E+02 -.334E+04   0.964E+00 0.309E+00 -.299E+01   -.190E-02 0.151E-01 -.772E-02
   0.110E+03 0.104E+02 -.516E+02   -.110E+03 -.102E+02 0.519E+02   -.229E-01 -.271E+00 -.450E+00   -.538E-02 0.827E-02 -.463E-02
   -.114E+03 -.324E+02 0.376E+02   0.114E+03 0.322E+02 -.375E+02   0.326E+00 0.174E+00 -.636E-01   0.514E-02 -.171E-01 0.124E-01
   -.776E+01 0.634E+02 0.176E+04   0.750E+01 -.628E+02 -.176E+04   0.283E+00 -.659E+00 -.853E+00   0.220E-01 0.157E-02 0.101E-01
   0.142E+02 -.681E+02 0.399E+02   -.139E+02 0.669E+02 -.404E+02   -.289E+00 0.129E+01 0.446E+00   0.119E-01 -.140E-01 0.654E-02
   0.551E+02 -.222E+02 0.121E+02   -.545E+02 0.219E+02 -.121E+02   -.723E+00 0.303E+00 0.477E-01   0.290E-02 -.656E-03 -.569E-02
   -.783E+02 0.303E+01 0.151E+04   0.778E+02 -.288E+01 -.151E+04   0.477E+00 -.943E-01 -.236E+00   0.185E-01 -.139E-01 0.116E-01
   -.182E+02 0.167E+02 0.159E+04   0.185E+02 -.170E+02 -.159E+04   -.374E+00 0.276E+00 -.470E+00   -.401E-02 -.123E-01 0.152E-01
   -.109E+03 -.788E+01 0.302E+04   0.109E+03 0.794E+01 -.302E+04   -.500E+00 -.252E-01 -.175E+01   0.219E-01 -.564E-02 -.599E-02
   0.697E+02 -.467E+02 0.301E+04   -.701E+02 0.472E+02 -.301E+04   0.496E+00 -.592E+00 -.111E+01   -.167E-01 0.804E-02 0.333E-02
   0.195E+02 -.326E+02 0.152E+04   -.191E+02 0.324E+02 -.152E+04   -.390E+00 0.210E+00 -.482E-01   -.254E-01 0.208E-01 0.201E-01
   0.562E+02 0.667E+01 0.155E+04   -.557E+02 -.670E+01 -.155E+04   -.562E+00 0.912E-01 -.228E+00   -.921E-02 -.147E-03 0.205E-02
   -.372E+02 -.605E+02 -.154E+04   0.372E+02 0.607E+02 0.154E+04   -.433E-02 -.131E+00 0.722E+00   0.111E-01 0.484E-02 -.149E-01
   -.428E+02 0.318E+02 0.300E+04   0.433E+02 -.312E+02 -.300E+04   -.471E+00 -.620E+00 -.203E+01   0.111E-01 -.166E-01 -.211E-02
   -.442E+02 0.776E+02 0.825E+02   0.445E+02 -.773E+02 -.824E+02   -.413E+00 -.380E+00 -.114E+00   0.182E-01 -.728E-02 -.198E-02
   -.137E+01 0.578E+02 -.116E+02   0.133E+01 -.570E+02 0.114E+02   0.100E+00 -.836E+00 -.194E-01   -.153E-01 0.972E-02 0.513E-02
   0.582E+02 0.117E+01 -.262E+02   -.578E+02 -.617E+00 0.262E+02   -.383E+00 -.646E+00 -.980E-01   -.203E-03 0.246E-01 -.869E-02
   0.942E+01 -.610E+02 0.362E+02   -.981E+01 0.606E+02 -.363E+02   0.380E+00 0.455E+00 0.415E-01   -.207E-01 -.314E-02 -.502E-02
   0.816E-01 0.351E+01 -.344E+03   -.124E+00 -.365E+01 0.346E+03   0.722E-01 0.153E+00 -.190E+01   -.432E-03 0.307E-03 -.145E-02
 -----------------------------------------------------------------------------------------------
   -.220E+01 -.119E+01 0.701E+00   0.209E-12 0.318E-12 0.574E-11   0.216E+01 0.123E+01 -.706E-01   -.649E-03 0.372E-02 -.618E+00
 
 
 POSITION                                       TOTAL-FORCE (eV/Angst)
 -----------------------------------------------------------------------------------
     13.18270      8.18387      6.94446         0.000073      0.010755      0.001762
      5.20222      8.21897      6.89610         0.003595      0.004107      0.001606
      5.05651      3.54302      6.98849         0.004339     -0.011845      0.001314
     14.58795      8.97539      9.21239         0.001163      0.001072      0.038883
      3.79985      4.32605      9.31612         0.005590     -0.028046      0.003233
      6.51673      8.94655      9.19242        -0.011945     -0.022498      0.032065
     11.88466      4.32030      9.38938        -0.002093     -0.029631      0.029217
      9.18865      8.95291      9.19390         0.002921     -0.031134     -0.007566
     10.52115      1.95019      9.26355         0.019984      0.017844      0.027596
      2.51540      1.96486      9.19994        -0.003896      0.016596      0.025409
     11.88722      8.95292      9.25291        -0.003079     -0.007771     -0.004309
     13.22358      6.62674      9.30129         0.009087      0.012123     -0.005796
      5.15605      1.94749      9.27510         0.002526      0.021530     -0.008913
      7.87765      6.64675      9.25420        -0.002092      0.018836     -0.015568
      9.18956      4.32422      9.20756        -0.004890     -0.003511      0.017033
      5.15586      6.62305      9.29247         0.007964      0.024797      0.016349
      7.84181      1.95721      9.21930         0.002483      0.004809     -0.001685
      7.91648      3.49307      6.94745         0.007446     -0.003885      0.019197
      6.41619      1.15913      6.90237         0.008618      0.013778     -0.005727
      6.55899      1.14886      0.96438        -0.008016      0.001943      0.010521
      3.75747      4.28391      2.83239        -0.016222     -0.016466     -0.020115
      1.19291      1.27287      6.88931         0.012376     -0.008156      0.015041
      1.14464      1.22211      0.77800        -0.002892      0.011556     -0.003161
      6.56687      8.92705      2.92680        -0.002022     -0.013784     -0.010813
      6.50430      4.29505      9.29987        -0.001532      0.005934     -0.005082
      7.84317      5.09593      4.82253         0.009557     -0.009345     -0.058713
     10.51849      6.65217      9.25554         0.000847      0.010905      0.009977
     14.51918      7.33687      4.85107        -0.005673     -0.009244     -0.080969
     11.90636      5.78803      7.01113        -0.007882     -0.010907      0.024956
      6.52602      5.87923      6.97783        -0.015461      0.007229     -0.027903
      3.66556      2.59850      4.95871        -0.034681     -0.018378     -0.009906
     10.55203      5.13182      4.86368         0.023566     -0.037150      0.065728
      3.83498      5.87815      7.10672        -0.008799     -0.006255     -0.004006
     13.19219      8.02433      1.00573        -0.010202     -0.009301      0.015754
      5.26821      8.05279      0.90098        -0.000193      0.005556      0.014383
      3.88993      5.88755      0.88776         0.001167     -0.006591      0.017999
      7.96781      2.09986      2.87061        -0.022750     -0.000342     -0.002074
      9.24633      8.88529      2.89138        -0.011759      0.033563     -0.006611
      2.44543      3.57008      7.10201        -0.007581     -0.011883      0.015256
      2.33068      3.55115      0.88683         0.027009      0.006646     -0.005073
     10.54411      2.00466      2.85564        -0.005505      0.022777     -0.021918
     13.20125      5.07200      4.92596        -0.017131     -0.031797      0.014975
      3.81731      1.07819      7.03921        -0.000690      0.008767     -0.000466
      9.20142      5.86192      7.05360         0.001766     -0.011647      0.010948
      3.79990      1.08422      0.93869        -0.005545     -0.001398      0.010157
      9.28005      5.82724      1.01487        -0.008499      0.012479      0.015533
      5.25238      3.56304      0.92964        -0.014710      0.000363      0.011718
     11.82187      8.82904      2.94048        -0.015982     -0.013287      0.028364
     11.87544      7.38555      4.84901         0.017518      0.055970     -0.074708
     13.08248      6.55049      2.85969         0.021419     -0.024153     -0.000998
      9.21707      4.27951      2.82588         0.009789      0.002516     -0.014134
      7.90419      8.15270      6.98496        -0.002500     -0.003442      0.000126
      7.97778      8.09308      0.93938        -0.008208      0.027985      0.004490
     10.58681      6.67050      2.84722        -0.017179     -0.009336      0.015284
      2.57872      0.24765      5.01085         0.044201      0.015289     -0.021469
      7.89204      3.56304      0.82040        -0.002496     -0.009003      0.012450
      5.16267      1.91547      2.95300        -0.008692     -0.003728      0.015543
      5.28297      6.56629      2.94356         0.009255     -0.004325     -0.003487
      7.85418      0.47531      4.84859         0.004607     -0.006755      0.001017
      9.23079      1.20597      6.95041        -0.000979      0.000034      0.005697
     10.49080      8.13238      6.96330         0.007596     -0.010640      0.000402
      9.23132      1.14551      0.82560        -0.022170      0.003798      0.005160
     10.55608      8.11953      0.83856        -0.008267      0.006731      0.024950
      5.15595      5.05396      4.92521         0.010285      0.008844     -0.054299
     11.83256      2.78488      4.88069        -0.004066      0.017233      0.024264
     14.57347      8.98804      2.87227         0.007432      0.015114     -0.009786
      9.26929      2.70975      4.92992         0.026493     -0.004226     -0.006487
      6.49665      2.73164      4.86532        -0.009243     -0.018478     -0.005288
     11.86943      4.25741      2.84734         0.011466     -0.020745     -0.029082
      2.48289      1.92464      2.85312        -0.016094      0.007493      0.006972
     11.85493      5.78777      0.92942        -0.009288      0.023328      0.000760
      6.57689      5.84104      0.99111         0.011068      0.008818     -0.008907
      7.99191      6.64267      2.86446         0.009551      0.001609     -0.008325
      6.54439      4.21089      2.82135        -0.017923      0.004315      0.013549
     10.58735      3.53725      7.05447        -0.011197     -0.002732     -0.000829
     10.54163      3.50860      0.91916        -0.017418     -0.004787      0.012231
     10.57208      0.50548      4.87385        -0.032743      0.015096     -0.023253
      9.21999      7.42016      4.95848         0.016316     -0.000374     -0.046497
      6.61478      7.43446      4.94584         0.043214     -0.033416     -0.029942
      5.12149      0.26726      4.90165         0.008550      0.013550      0.008580
     11.19781      3.09232     10.41325         0.029346      0.008708     -0.002585
 -----------------------------------------------------------------------------------
    total drift:                               -0.040559      0.041626      0.012871


--------------------------------------------------------------------------------------------------------



  FREE ENERGIE OF THE ION-ELECTRON SYSTEM (eV)
  ---------------------------------------------------
  free  energy   TOTEN  =      -509.09585393 eV

  energy  without entropy=     -509.11787066  energy(sigma->0) =     -509.10319284
 
 d Force = 0.1883847E-02[ 0.635E-03, 0.313E-02]  d Energy = 0.1822007E-02 0.618E-04
 d Force = 0.4408501E+02[ 0.441E+02, 0.441E+02]  d Ewald  = 0.4408500E+02 0.582E-05


--------------------------------------------------------------------------------------------------------


    POTLOK:  cpu time    0.3856: real time    0.4394


--------------------------------------------------------------------------------------------------------


 Conjugate gradient step on ions:
 trial-energy change:   -0.001822  1 .order   -0.001884   -0.003133   -0.000635
  (g-gl).g = 0.213E-02      g.g   = 0.209E-02  gl.gl    = 0.460E-02
 g(Force)  = 0.209E-02   g(Stress)= 0.000E+00 ortho     =-0.158E-03
 gamma     =   0.46332
 trial     =   1.55433
 opt step  =   2.04489  (harmonic =   1.94905) maximal distance =0.01600837
 next E    =  -509.095952   (d E  =  -0.00192)


--------------------------------------------------------------------------------------------------------


  
 reached required accuracy - stopping structural energy minimisation
     LOOP+:  cpu time  741.1924: real time  745.1942
    4ORBIT:  cpu time    0.0000: real time    0.0000

 total amount of memory used by VASP MPI-rank0   233092. kBytes
=======================================================================

   base      :      30000. kBytes
   nonlr-proj:      33407. kBytes
   fftplans  :      16137. kBytes
   grid      :      49182. kBytes
   one-center:        653. kBytes
   wavefun   :     103713. kBytes
 
  
  
 General timing and accounting informations for this job:
 ========================================================
  
                  Total CPU time used (sec):    15651.597
                            User time (sec):    15225.320
                          System time (sec):      426.277
                         Elapsed time (sec):    15743.206
  
                   Maximum memory used (kb):      417972.
                   Average memory used (kb):           0.
  
                          Minor page faults:      3108042
                          Major page faults:          213
                 Voluntary context switches:        11947
