 vasp.5.4.4.18Apr17-6-g9f103f2a35 (build Oct 25 2019 11:13:22) complex          
  
 executed on             LinuxIFC date 2022.02.12  06:49:51
 running on   48 total cores
 distrk:  each k-point on   48 cores,    1 groups
 distr:  one band on NCORES_PER_BAND=   4 cores,   12 groups


--------------------------------------------------------------------------------------------------------


 INCAR:
 POTCAR:    PAW_PBE Pt 04Feb2005                  
 POTCAR:    PAW_PBE Co 02Aug2007                  
 POTCAR:    PAW_PBE Ni 02Aug2007                  
 POTCAR:    PAW_PBE H 15Jun2001                   
 POTCAR:    PAW_PBE Pt 04Feb2005                  
   VRHFIN =Pt: s1d9                                                             
   LEXCH  = PE                                                                  
   EATOM  =   729.1176 eV,   53.5886 Ry                                         
                                                                                
   TITEL  = PAW_PBE Pt 04Feb2005                                                
   LULTRA =        F    use ultrasoft PP ?                                      
   IUNSCR =        1    unscreen: 0-lin 1-nonlin 2-no                           
   RPACOR =    2.330    partial core radius                                     
   POMASS =  195.080; ZVAL   =   10.000    mass and valenz                      
   RCORE  =    2.600    outmost cutoff radius                                   
   RWIGS  =    2.750; RWIGS  =    1.455    wigner-seitz radius (au A)           
   ENMAX  =  230.283; ENMIN  =  172.712 eV                                      
   ICORE  =        3    local potential                                         
   LCOR   =        T    correct aug charges                                     
   LPAW   =        T    paw PP                                                  
   EAUG   =  358.966                                                            
   DEXC   =    0.000                                                            
   RMAX   =    2.658    core radius for proj-oper                               
   RAUG   =    1.300    factor for augmentation sphere                          
   RDEP   =    2.761    radius for radial grids                                 
   RDEPT  =    2.203    core radius for aug-charge                              
                                                                                
   Atomic configuration                                                         
   16 entries                                                                   
     n  l   j            E        occ.                                          
     1  0  0.50    -78401.1885   2.0000                                         
     2  0  0.50    -13770.7750   2.0000                                         
     2  1  1.50    -11931.0468   6.0000                                         
     3  0  0.50     -3234.7234   2.0000                                         
     3  1  1.50     -2699.2216   6.0000                                         
     3  2  2.50     -2119.5714  10.0000                                         
     4  0  0.50      -695.1528   2.0000                                         
     4  1  1.50      -519.6034   6.0000                                         
     4  2  2.50      -306.6786  10.0000                                         
     4  3  3.50       -70.1041  14.0000                                         
     5  0  0.50      -101.7747   2.0000                                         
     5  1  1.50       -55.9873   6.0000                                         
     5  2  2.50        -6.1423   9.0000                                         
     6  0  0.50        -5.6573   1.0000                                         
     6  1  1.50        -6.8029   0.0000                                         
     5  3  2.50        -1.3606   0.0000                                         
   Description                                                                  
     l       E           TYP  RCUT    TYP  RCUT                                 
     2     -6.1423404     23  2.500                                             
     2     -7.5029230     23  2.500                                             
     0     -5.6573207     23  2.500                                             
     0      0.7416693     23  2.500                                             
     1     -2.7211652     23  2.600                                             
     1     20.4087390     23  2.600                                             
     3     -1.3605826     23  2.500                                             
  local pseudopotential read in
  partial core-charges read in
  partial kinetic energy density read in
  atomic valenz-charges read in
  non local Contribution for L=           2  read in
    real space projection operators read in
  non local Contribution for L=           2  read in
    real space projection operators read in
  non local Contribution for L=           0  read in
    real space projection operators read in
  non local Contribution for L=           0  read in
    real space projection operators read in
  non local Contribution for L=           1  read in
    real space projection operators read in
  non local Contribution for L=           1  read in
    real space projection operators read in
    PAW grid and wavefunctions read in
 
   number of l-projection  operators is LMAX  =           6
   number of lm-projection operators is LMMAX =          18
 
 POTCAR:    PAW_PBE Co 02Aug2007                  
   VRHFIN =Co: d8 s1                                                            
   LEXCH  = PE                                                                  
   EATOM  =   813.3670 eV,   59.7808 Ry                                         
                                                                                
   TITEL  = PAW_PBE Co 02Aug2007                                                
   LULTRA =        F    use ultrasoft PP ?                                      
   IUNSCR =        1    unscreen: 0-lin 1-nonlin 2-no                           
   RPACOR =    2.000    partial core radius                                     
   POMASS =   58.933; ZVAL   =    9.000    mass and valenz                      
   RCORE  =    2.300    outmost cutoff radius                                   
   RWIGS  =    2.460; RWIGS  =    1.302    wigner-seitz radius (au A)           
   ENMAX  =  267.968; ENMIN  =  200.976 eV                                      
   RCLOC  =    1.203    cutoff for local pot                                    
   LCOR   =        T    correct aug charges                                     
   LPAW   =        T    paw PP                                                  
   EAUG   =  477.818                                                            
   DEXC   =    0.000                                                            
   RMAX   =    2.360    core radius for proj-oper                               
   RAUG   =    1.300    factor for augmentation sphere                          
   RDEP   =    2.393    radius for radial grids                                 
   RDEPT  =    1.864    core radius for aug-charge                              
                                                                                
   Atomic configuration                                                         
    9 entries                                                                   
     n  l   j            E        occ.                                          
     1  0  0.50     -7587.6674   2.0000                                         
     2  0  0.50      -893.6084   2.0000                                         
     2  1  1.50      -764.5805   6.0000                                         
     3  0  0.50       -97.5973   2.0000                                         
     3  1  1.50       -60.9648   6.0000                                         
     3  2  2.50        -4.2382   8.0000                                         
     4  0  0.50        -4.3746   1.0000                                         
     4  1  1.50        -4.0817   0.0000                                         
     4  3  2.50        -1.3606   0.0000                                         
   Description                                                                  
     l       E           TYP  RCUT    TYP  RCUT                                 
     2     -4.2382362     23  2.300                                             
     2     -5.5988188     23  2.300                                             
     0     -4.3745797     23  2.300                                             
     0      5.7660125     23  2.300                                             
     1     -2.7211652     23  2.300                                             
     1     16.9860234     23  2.300                                             
  local pseudopotential read in
  partial core-charges read in
  partial kinetic energy density read in
  atomic valenz-charges read in
  non local Contribution for L=           2  read in
    real space projection operators read in
  non local Contribution for L=           2  read in
    real space projection operators read in
  non local Contribution for L=           0  read in
    real space projection operators read in
  non local Contribution for L=           0  read in
    real space projection operators read in
  non local Contribution for L=           1  read in
    real space projection operators read in
  non local Contribution for L=           1  read in
    real space projection operators read in
    PAW grid and wavefunctions read in
 
   number of l-projection  operators is LMAX  =           6
   number of lm-projection operators is LMMAX =          18
 
 POTCAR:    PAW_PBE Ni 02Aug2007                  
   VRHFIN =Ni:                                                                  
   LEXCH  = PE                                                                  
   EATOM  =  1077.6739 eV,   79.2068 Ry                                         
                                                                                
   TITEL  = PAW_PBE Ni 02Aug2007                                                
   LULTRA =        F    use ultrasoft PP ?                                      
   IUNSCR =        1    unscreen: 0-lin 1-nonlin 2-no                           
   RPACOR =    2.000    partial core radius                                     
   POMASS =   58.690; ZVAL   =   10.000    mass and valenz                      
   RCORE  =    2.300    outmost cutoff radius                                   
   RWIGS  =    2.430; RWIGS  =    1.286    wigner-seitz radius (au A)           
   ENMAX  =  269.532; ENMIN  =  202.149 eV                                      
   RCLOC  =    1.201    cutoff for local pot                                    
   LCOR   =        T    correct aug charges                                     
   LPAW   =        T    paw PP                                                  
   EAUG   =  544.565                                                            
   DEXC   =    0.000                                                            
   RMAX   =    2.357    core radius for proj-oper                               
   RAUG   =    1.300    factor for augmentation sphere                          
   RDEP   =    2.390    radius for radial grids                                 
   RDEPT  =    1.838    core radius for aug-charge                              
                                                                                
   Atomic configuration                                                         
    9 entries                                                                   
     n  l   j            E        occ.                                          
     1  0  0.50     -8206.4253   2.0000                                         
     2  0  0.50      -976.1748   2.0000                                         
     2  1  1.50      -839.0571   6.0000                                         
     3  0  0.50      -105.9991   2.0000                                         
     3  1  1.50       -66.4603   6.0000                                         
     3  2  2.50        -4.6458   9.0000                                         
     4  0  0.50        -4.4926   1.0000                                         
     4  1  1.50        -4.0817   0.0000                                         
     4  3  2.50        -1.3606   0.0000                                         
   Description                                                                  
     l       E           TYP  RCUT    TYP  RCUT                                 
     2     -4.6457903     23  2.300                                             
     2     -6.0063729     23  2.300                                             
     0     -4.4925590     23  2.300                                             
     0      5.0102601     23  2.300                                             
     1     -2.7211652     23  2.300                                             
     1     16.5183231     23  2.300                                             
  local pseudopotential read in
  partial core-charges read in
  partial kinetic energy density read in
  atomic valenz-charges read in
  non local Contribution for L=           2  read in
    real space projection operators read in
  non local Contribution for L=           2  read in
    real space projection operators read in
  non local Contribution for L=           0  read in
    real space projection operators read in
  non local Contribution for L=           0  read in
    real space projection operators read in
  non local Contribution for L=           1  read in
    real space projection operators read in
  non local Contribution for L=           1  read in
    real space projection operators read in
    PAW grid and wavefunctions read in
 
   number of l-projection  operators is LMAX  =           6
   number of lm-projection operators is LMMAX =          18
 
 POTCAR:    PAW_PBE H 15Jun2001                   
   VRHFIN =H: ultrasoft test                                                    
   LEXCH  = PE                                                                  
   EATOM  =    12.4884 eV,    0.9179 Ry                                         
                                                                                
   TITEL  = PAW_PBE H 15Jun2001                                                 
   LULTRA =        F    use ultrasoft PP ?                                      
   IUNSCR =        0    unscreen: 0-lin 1-nonlin 2-no                           
   RPACOR =    0.000    partial core radius                                     
   POMASS =    1.000; ZVAL   =    1.000    mass and valenz                      
   RCORE  =    1.100    outmost cutoff radius                                   
   RWIGS  =    0.700; RWIGS  =    0.370    wigner-seitz radius (au A)           
   ENMAX  =  250.000; ENMIN  =  200.000 eV                                      
   RCLOC  =    0.701    cutoff for local pot                                    
   LCOR   =        T    correct aug charges                                     
   LPAW   =        T    paw PP                                                  
   EAUG   =  400.000                                                            
   RMAX   =    1.123    core radius for proj-oper                               
   RAUG   =    1.200    factor for augmentation sphere                          
   RDEP   =    1.112    radius for radial grids                                 
   RDEPT  =    0.926    core radius for aug-charge                              
                                                                                
   Atomic configuration                                                         
    2 entries                                                                   
     n  l   j            E        occ.                                          
     1  0  0.50        -6.4927   1.0000                                         
     2  1  0.50        -3.4015   0.0000                                         
   Description                                                                  
     l       E           TYP  RCUT    TYP  RCUT                                 
     0     -6.4927494     23  1.100                                             
     0      6.8029130     23  1.100                                             
     1     -4.0817478     23  1.100                                             
  local pseudopotential read in
  atomic valenz-charges read in
  non local Contribution for L=           0  read in
    real space projection operators read in
  non local Contribution for L=           0  read in
    real space projection operators read in
  non local Contribution for L=           1  read in
    real space projection operators read in
    PAW grid and wavefunctions read in
 
   number of l-projection  operators is LMAX  =           3
   number of lm-projection operators is LMMAX =           5
 
 Optimization of the real space projectors (new method)

 maximal supplied QI-value         = 14.36
 optimisation between [QCUT,QGAM] = [ 11.92, 23.98] = [ 39.79,161.09] Ry 
 Optimized for a Real-space Cutoff    1.49 Angstroem

   l    n(q)    QCUT    max X(q) W(low)/X(q) W(high)/X(q)  e(spline) 
   2     10    11.920    66.195    0.79E-04    0.18E-03    0.24E-06
   2     10    11.920    64.643    0.81E-04    0.19E-03    0.24E-06
   0     11    11.920    95.520    0.28E-04    0.54E-04    0.18E-06
   0     11    11.920    63.403    0.27E-04    0.52E-04    0.17E-06
   1     10    11.920    19.961    0.18E-04    0.11E-03    0.23E-06
   1     10    11.920    13.289    0.25E-04    0.87E-04    0.19E-06
 Optimization of the real space projectors (new method)

 maximal supplied QI-value         = 16.25
 optimisation between [QCUT,QGAM] = [ 11.86, 23.89] = [ 39.41,159.82] Ry 
 Optimized for a Real-space Cutoff    1.33 Angstroem

   l    n(q)    QCUT    max X(q) W(low)/X(q) W(high)/X(q)  e(spline) 
   2      9    11.864    65.824    0.22E-03    0.53E-03    0.26E-06
   2      9    11.864    61.429    0.22E-03    0.53E-03    0.26E-06
   0      9    11.864    56.174    0.21E-03    0.32E-04    0.15E-06
   0      9    11.864    31.263    0.19E-03    0.30E-04    0.14E-06
   1      9    11.864    19.828    0.63E-04    0.30E-03    0.16E-06
   1      9    11.864    15.139    0.49E-04    0.25E-03    0.13E-06
 Optimization of the real space projectors (new method)

 maximal supplied QI-value         = 16.25
 optimisation between [QCUT,QGAM] = [ 11.86, 23.89] = [ 39.41,159.82] Ry 
 Optimized for a Real-space Cutoff    1.33 Angstroem

   l    n(q)    QCUT    max X(q) W(low)/X(q) W(high)/X(q)  e(spline) 
   2      9    11.864    60.317    0.21E-03    0.51E-03    0.25E-06
   2      9    11.864    55.921    0.21E-03    0.51E-03    0.26E-06
   0      9    11.864    51.690    0.22E-03    0.30E-04    0.17E-06
   0      9    11.864    30.015    0.20E-03    0.28E-04    0.15E-06
   1      9    11.864    18.849    0.76E-04    0.33E-03    0.17E-06
   1      9    11.864    14.624    0.60E-04    0.28E-03    0.15E-06
 Optimization of the real space projectors (new method)

 maximal supplied QI-value         = 34.20
 optimisation between [QCUT,QGAM] = [ 11.97, 23.94] = [ 40.13,160.53] Ry 
 Optimized for a Real-space Cutoff    1.18 Angstroem

   l    n(q)    QCUT    max X(q) W(low)/X(q) W(high)/X(q)  e(spline) 
   0      8    11.971    19.460    0.15E-03    0.31E-03    0.25E-06
   0      8    11.971    12.209    0.13E-03    0.29E-03    0.25E-06
   1      8    11.971     4.655    0.22E-03    0.24E-03    0.21E-06
  PAW_PBE Pt 04Feb2005                  :
 energy of atom  1       EATOM= -729.1176
 kinetic energy error for atom=    0.0021 (will be added to EATOM!!)
  PAW_PBE Co 02Aug2007                  :
 energy of atom  2       EATOM= -813.3670
 kinetic energy error for atom=    0.0026 (will be added to EATOM!!)
  PAW_PBE Ni 02Aug2007                  :
 energy of atom  3       EATOM=-1077.6739
 kinetic energy error for atom=    0.0027 (will be added to EATOM!!)
  PAW_PBE H 15Jun2001                   :
 energy of atom  4       EATOM=  -12.4884
 kinetic energy error for atom=    0.0008 (will be added to EATOM!!)
 
 
 POSCAR: 11.26                                   
  positions in direct lattice
  velocities in cartesian coordinates
 exchange correlation table for  LEXCH =        8
   RHO(1)=    0.500       N(1)  =     2000
   RHO(2)=  100.500       N(2)  =     4000
 


--------------------------------------------------------------------------------------------------------


 ion  position               nearest neighbor table
   1  0.789  0.879  0.301-  49 2.47  59 2.56  60 2.64  28 2.69   4 2.73   2 2.74  29 2.75  19 2.80
                            11 2.85  12 2.85  61 2.89  33 2.94
   2  0.033  0.879  0.293-  79 2.49  77 2.57  60 2.72   1 2.74  28 2.76   4 2.81   6 2.89  30 2.90
                            16 2.94  33 2.99  22 3.17  52 3.23
   3  0.276  0.362  0.311-  64 2.54  68 2.62  31 2.63  39 2.67  33 2.70   5 2.71  30 2.76  13 2.76
                            25 2.78  19 2.81  43 2.82  18 2.87
   4  0.875  0.964  0.400-  81 1.71  60 2.71   9 2.72  17 2.72   1 2.73   6 2.79  16 2.79  12 2.81
                             2 2.81  11 2.83
   5  0.113  0.467  0.410-  39 2.60  33 2.70   3 2.71  12 2.72  16 2.73  10 2.76   7 2.77  25 2.85
                            13 2.98
   6  0.125  0.959  0.400-  52 2.62  22 2.70   4 2.79   8 2.83  16 2.86   9 2.88   2 2.89  10 2.90
                            14 2.91
   7  0.873  0.455  0.412-  75 2.54  39 2.58   5 2.77  10 2.79  27 2.80   9 2.80  29 2.82  15 2.84
                            12 2.93
   8  0.377  0.956  0.415-  43 2.53  52 2.56  61 2.68  13 2.75  27 2.80  11 2.81   6 2.83  10 2.84
                            14 2.90
   9  0.864  0.211  0.396-  81 1.94  75 2.60  22 2.67   4 2.72  17 2.73  15 2.74  60 2.77   7 2.80
                             6 2.88  10 3.01
  10  0.129  0.214  0.413-  22 2.64  43 2.69  13 2.72   5 2.76  39 2.77   7 2.79   8 2.84   6 2.90
                             9 3.01
  11  0.629  0.952  0.410-  61 2.65  12 2.71  19 2.73  27 2.76  17 2.79  13 2.81   8 2.81   4 2.83
                             1 2.85
  12  0.875  0.714  0.408-  29 2.66  16 2.68  11 2.71   5 2.72   4 2.81  33 2.81  27 2.83   1 2.85
                             7 2.93
  13  0.378  0.200  0.413-  43 2.70  10 2.72  19 2.73   8 2.75   3 2.76  25 2.78  17 2.80  11 2.81
                             5 2.98
  14  0.381  0.696  0.403-  52 2.55  44 2.56  15 2.69  25 2.81  27 2.84  30 2.88  16 2.90   8 2.90
                             6 2.91
  15  0.620  0.456  0.399-  75 2.53  44 2.61  14 2.69   9 2.74  25 2.79  17 2.83   7 2.84  18 2.85
                            27 2.87
  16  0.116  0.709  0.404-  12 2.68  30 2.69   5 2.73  33 2.76   4 2.79   6 2.86  14 2.90  25 2.92
                             2 2.94
  17  0.627  0.201  0.404-  81 1.72  18 2.69   4 2.72   9 2.73  19 2.79  11 2.79  25 2.79  13 2.80
                            60 2.82  15 2.83
  18  0.538  0.348  0.301-  67 2.46  26 2.59  68 2.67  17 2.69  60 2.69  19 2.70  25 2.82  15 2.85
                             3 2.87  30 2.95  75 3.20
  19  0.527  0.113  0.308-  59 2.47  80 2.51  68 2.57  43 2.61  61 2.63  18 2.70  13 2.73  11 2.73
                            17 2.79   1 2.80   3 2.81  60 2.92
  20  0.546  0.126  0.067-  48 2.50  57 2.52  47 2.52  62 2.53  37 2.60  56 2.66  34 2.70  63 2.89

  21  0.118  0.408  0.119-  47 2.44  40 2.48  36 2.49  69 2.60  57 2.64  42 2.67  64 2.70  70 2.72
                            31 2.74  50 3.30
  22  0.055  0.148  0.310-  77 2.43  65 2.51  55 2.51  43 2.57  39 2.62  10 2.64   9 2.67   6 2.70
                            75 2.90  31 3.04  52 3.05   2 3.17  60 3.23
  23  0.009  0.102  0.049-  40 2.49  62 2.55  70 2.57  41 2.59  45 2.66  76 2.69  24 2.70  35 2.74
                            53 3.07
  24  0.138  0.927  0.142-  79 2.46  35 2.50  77 2.54  58 2.54  53 2.56  55 2.59  38 2.59  73 2.64
                            70 2.65  23 2.70  66 2.83
  25  0.376  0.448  0.407-  30 2.76  13 2.78   3 2.78  15 2.79  17 2.79  14 2.81  18 2.82   5 2.85
                            16 2.92
  26  0.480  0.554  0.230-  74 2.50  73 2.52  44 2.52  51 2.59  18 2.59  79 2.60  78 2.62  30 2.63
                            32 2.66  67 2.70
  27  0.627  0.707  0.413-  44 2.49  61 2.70  11 2.76   7 2.80   8 2.80  29 2.80  12 2.83  14 2.84
                            15 2.87
  28  0.953  0.759  0.204-  58 2.53  50 2.61  66 2.61  42 2.62  36 2.63  33 2.66   1 2.69   2 2.76
                            64 2.80  49 2.88  34 3.22  59 3.23  35 3.30
  29  0.797  0.631  0.311-  39 2.59  32 2.61  49 2.62  75 2.62  42 2.63  33 2.64  44 2.65  12 2.66
                             1 2.75  27 2.80   7 2.82  61 2.84
  30  0.274  0.608  0.304-  79 2.43  33 2.60  26 2.63  64 2.65  16 2.69  25 2.76   3 2.76  14 2.88
                             2 2.90  18 2.95  52 3.26
  31  0.187  0.262  0.225-  70 2.52  57 2.57  65 2.58  55 2.59  39 2.62   3 2.63  43 2.63  42 2.72
                            80 2.73  21 2.74  68 2.76  64 2.79  22 3.04
  32  0.711  0.561  0.214-  69 2.53  51 2.56  54 2.61  29 2.61  49 2.62  26 2.66  65 2.66  50 2.66
                            42 2.68  75 2.69  78 2.71  67 2.73  44 2.73
  33  0.042  0.609  0.305-  42 2.47  64 2.50  39 2.51  30 2.60  29 2.64  28 2.66   5 2.70   3 2.70
                            16 2.76  12 2.81   1 2.94   2 2.99
  34  0.782  0.884  0.080-  48 2.38  35 2.38  50 2.53  66 2.54  36 2.55  62 2.67  20 2.70  28 3.22

  35  0.002  0.866  0.072-  36 2.37  34 2.38  66 2.43  24 2.50  58 2.60  23 2.74  62 2.75  28 3.30

  36  0.006  0.657  0.094-  50 2.33  35 2.37  58 2.38  21 2.49  34 2.55  28 2.63
  37  0.628  0.234  0.150-  41 2.41  56 2.42  59 2.43  67 2.44  62 2.45  68 2.50  51 2.50  74 2.51
                            20 2.60  66 2.60
  38  0.361  0.942  0.135-  53 2.40  45 2.41  63 2.42  57 2.43  48 2.45  55 2.45  54 2.46  78 2.48
                            80 2.54  73 2.59  24 2.59  70 2.83
  39  0.024  0.396  0.316-  42 2.46  33 2.51   7 2.58  75 2.58  65 2.58  29 2.59   5 2.60  31 2.62
                            22 2.62   3 2.67  10 2.77
  40  0.013  0.321  0.044-  69 2.32  76 2.45  21 2.48  23 2.49  70 2.51  45 2.63  71 2.93
  41  0.844  0.228  0.139-  67 2.35  76 2.37  77 2.38  37 2.41  62 2.44  51 2.48  69 2.48  66 2.49
                            65 2.58  23 2.59  70 2.61
  42  0.967  0.520  0.219-  39 2.46  33 2.47  50 2.48  64 2.48  65 2.50  28 2.62  29 2.63  69 2.65
                            21 2.67  32 2.68  31 2.72
  43  0.303  0.099  0.319-  52 2.45  80 2.46  55 2.51   8 2.53  61 2.56  22 2.57  19 2.61  31 2.63
                            10 2.69  13 2.70   3 2.82
  44  0.553  0.648  0.317-  61 2.45  78 2.47  27 2.49  26 2.52  14 2.56  52 2.57  15 2.61  29 2.65
                            75 2.73  32 2.73
  45  0.251  0.091  0.049-  38 2.41  57 2.45  53 2.48  70 2.50  63 2.54  40 2.63  23 2.66
  46  0.529  0.612  0.047-  54 2.37  73 2.44  51 2.45  71 2.47  72 2.53  53 2.63  56 2.72  76 2.87
                            63 3.07
  47  0.334  0.361  0.072-  74 2.29  56 2.44  21 2.44  57 2.50  72 2.50  20 2.52
  48  0.581  0.937  0.137-  49 2.29  63 2.35  34 2.38  54 2.38  80 2.38  38 2.45  59 2.46  20 2.50
                            57 2.63  50 2.74
  49  0.677  0.809  0.223-  48 2.29  50 2.34  61 2.46  78 2.47   1 2.47  59 2.54  80 2.57  29 2.62
                            32 2.62  54 2.79  28 2.88
  50  0.810  0.679  0.140-  36 2.33  49 2.34  54 2.38  71 2.39  42 2.48  69 2.52  34 2.53  28 2.61
                            32 2.66  48 2.74  21 3.30
  51  0.629  0.454  0.133-  56 2.40  76 2.44  46 2.45  41 2.48  37 2.50  67 2.53  32 2.56  26 2.59
                            74 2.59  69 2.66  73 2.78  54 2.83
  52  0.320  0.872  0.317-  55 2.38  79 2.41  61 2.43  43 2.45  78 2.46  14 2.55   8 2.56  44 2.57
                             6 2.62  22 3.05   2 3.23  30 3.26
  53  0.299  0.850  0.050-  73 2.39  38 2.40  45 2.48  24 2.56  63 2.58  46 2.63  72 2.82  23 3.07

  54  0.581  0.726  0.124-  46 2.37  50 2.38  48 2.38  73 2.40  71 2.42  63 2.42  38 2.46  78 2.50
                            32 2.61  49 2.79  51 2.83
  55  0.229  0.013  0.230-  52 2.38  80 2.44  79 2.44  38 2.45  43 2.51  22 2.51  78 2.56  24 2.59
                            31 2.59  77 2.61  70 2.62
  56  0.549  0.361  0.055-  51 2.40  37 2.42  47 2.44  74 2.52  76 2.56  62 2.60  72 2.61  20 2.66
                            46 2.72
  57  0.344  0.167  0.132-  38 2.43  45 2.45  80 2.47  47 2.50  20 2.52  68 2.55  31 2.57  48 2.63
                            21 2.64  70 2.71
  58  0.176  0.684  0.148-  36 2.38  72 2.39  64 2.41  73 2.43  28 2.53  79 2.53  24 2.54  74 2.56
                            35 2.60
  59  0.661  0.042  0.213-  66 2.38  37 2.43  48 2.46  19 2.47  49 2.54  68 2.55   1 2.56  80 2.59
                            60 2.68  28 3.23
  60  0.785  0.116  0.297-  67 2.47  77 2.53   1 2.64  59 2.68  18 2.69   4 2.71   2 2.72   9 2.77
                            17 2.82  19 2.92  22 3.23
  61  0.536  0.875  0.316-  52 2.43  44 2.45  49 2.46  78 2.48  80 2.51  43 2.56  19 2.63  11 2.65
                             8 2.68  27 2.70  29 2.84   1 2.89
  62  0.773  0.123  0.060-  66 2.43  41 2.44  37 2.45  20 2.53  23 2.55  56 2.60  76 2.63  34 2.67
                            35 2.75
  63  0.500  0.898  0.045-  48 2.35  54 2.42  38 2.42  45 2.54  53 2.58  20 2.89  46 3.07
  64  0.196  0.505  0.214-  58 2.41  42 2.48  33 2.50  74 2.52   3 2.54  30 2.65  68 2.66  21 2.70
                            31 2.79  28 2.80
  65  0.935  0.315  0.226-  75 2.39  69 2.40  67 2.41  77 2.43  42 2.50  22 2.51  70 2.53  41 2.58
                            31 2.58  39 2.58  32 2.66
  66  0.858  0.002  0.156-  77 2.38  59 2.38  62 2.43  35 2.43  41 2.49  34 2.54  37 2.60  28 2.61
                            24 2.83
  67  0.721  0.315  0.230-  41 2.35  75 2.39  65 2.41  37 2.44  18 2.46  60 2.47  51 2.53  26 2.70
                            77 2.70  32 2.73
  68  0.430  0.266  0.214-  74 2.43  37 2.50  57 2.55  59 2.55  19 2.57   3 2.62  80 2.64  64 2.66
                            18 2.67  31 2.76
  69  0.877  0.430  0.129-  40 2.32  71 2.34  65 2.40  41 2.48  76 2.49  50 2.52  32 2.53  21 2.60
                            42 2.65  70 2.65  51 2.66
  70  0.096  0.181  0.140-  45 2.50  40 2.51  31 2.52  65 2.53  23 2.57  41 2.61  55 2.62  24 2.65
                            69 2.65  57 2.71  21 2.72  77 2.83  38 2.83
  71  0.760  0.589  0.052-  69 2.34  50 2.39  54 2.42  46 2.47  76 2.56  40 2.93
  72  0.315  0.592  0.059-  58 2.39  74 2.39  73 2.42  47 2.50  46 2.53  56 2.61  53 2.82
  73  0.382  0.701  0.136-  53 2.39  54 2.40  72 2.42  58 2.43  46 2.44  79 2.49  26 2.52  38 2.59
                            78 2.60  24 2.64  74 2.69  51 2.78
  74  0.400  0.454  0.149-  47 2.29  72 2.39  68 2.43  26 2.50  37 2.51  56 2.52  64 2.52  58 2.56
                            51 2.59  73 2.69
  75  0.792  0.401  0.314-  67 2.39  65 2.39  15 2.53   7 2.54  39 2.58   9 2.60  29 2.62  32 2.69
                            44 2.73  22 2.90  18 3.20
  76  0.781  0.351  0.046-  41 2.37  51 2.44  40 2.45  69 2.49  71 2.56  56 2.56  62 2.63  23 2.69
                            46 2.87
  77  0.970  0.084  0.222-  41 2.38  66 2.38  65 2.43  22 2.43  60 2.53  24 2.54   2 2.57  55 2.61
                            67 2.70  70 2.83
  78  0.465  0.795  0.225-  52 2.46  49 2.47  44 2.47  61 2.48  79 2.48  38 2.48  80 2.48  54 2.50
                            55 2.56  73 2.60  26 2.62  32 2.71
  79  0.249  0.786  0.233-  52 2.41  30 2.43  55 2.44  24 2.46  78 2.48  73 2.49   2 2.49  58 2.53
                            26 2.60
  80  0.439  0.028  0.225-  48 2.38  55 2.44  43 2.46  57 2.47  78 2.48  19 2.51  61 2.51  38 2.54
                            49 2.57  59 2.59  68 2.64  31 2.73
  81  0.785  0.116  0.438-   4 1.71  17 1.72   9 1.94
 
  LATTYP: Found a hexagonal cell.
 ALAT       =    11.2227001190
 C/A-ratio  =     1.9603125600
  
  Lattice vectors:
  
 A1 = (   5.6113500595,  -9.7191434021,   0.0000000000)
 A2 = ( -11.2227001190,   0.0000000000,   0.0000000000)
 A3 = (   0.0000000000,   0.0000000000, -22.0000000000)


Analysis of symmetry for initial positions (statically):
=====================================================================
 Subroutine PRICEL returns:
 Original cell was already a primitive cell.
 

 Routine SETGRP: Setting up the symmetry group for a 
 hexagonal supercell.


 Subroutine GETGRP returns: Found  1 space group operations
 (whereof  1 operations were pure point group operations)
 out of a pool of 24 trial point group operations.


The static configuration has the point symmetry C_1 .


Analysis of symmetry for dynamics (positions and initial velocities):
=====================================================================
 Subroutine PRICEL returns:
 Original cell was already a primitive cell.
 

 Routine SETGRP: Setting up the symmetry group for a 
 hexagonal supercell.


 Subroutine GETGRP returns: Found  1 space group operations
 (whereof  1 operations were pure point group operations)
 out of a pool of 24 trial point group operations.


The dynamic configuration has the point symmetry C_1 .


Analysis of constrained symmetry for selective dynamics:
=====================================================================
 Subroutine PRICEL returns:
 Original cell was already a primitive cell.
 

 Routine SETGRP: Setting up the symmetry group for a 
 hexagonal supercell.


 Subroutine GETGRP returns: Found  1 space group operations
 (whereof  1 operations were pure point group operations)
 out of a pool of 24 trial point group operations.


The constrained configuration has the point symmetry C_1 .


Analysis of structural, dynamic, and magnetic symmetry:
=====================================================================
 Subroutine PRICEL returns:
 Original cell was already a primitive cell.
 

 Routine SETGRP: Setting up the symmetry group for a 
 hexagonal supercell.


 Subroutine GETGRP returns: Found  1 space group operations
 (whereof  1 operations were pure point group operations)
 out of a pool of 24 trial point group operations.


The magnetic configuration has the point symmetry C_1 .


 Subroutine INISYM returns: Found  1 space group operations
 (whereof  1 operations are pure point group operations),
 and found     1 'primitive' translations

 
 
 KPOINTS: mesh auto                               

Automatic generation of k-mesh.
Space group operators:
 irot       det(A)        alpha          n_x          n_y          n_z        tau_x        tau_y        tau_z
    1     1.000000     0.000000     1.000000     0.000000     0.000000     0.000000     0.000000     0.000000
 
 Subroutine IBZKPT returns following result:
 ===========================================
 
 Found      4 irreducible k-points:
 
 Following reciprocal coordinates:
            Coordinates               Weight
  0.000000  0.000000  0.000000      1.000000
  0.500000  0.000000  0.000000      1.000000
  0.000000  0.500000  0.000000      1.000000
  0.500000  0.500000  0.000000      1.000000
 
 Following cartesian coordinates:
            Coordinates               Weight
  0.000000  0.000000  0.000000      1.000000
  0.044553 -0.025722  0.000000      1.000000
  0.000000  0.051445  0.000000      1.000000
  0.044553  0.025722  0.000000      1.000000
 


--------------------------------------------------------------------------------------------------------




 Dimension of arrays:
   k-points           NKPTS =      4   k-points in BZ     NKDIM =      4   number of bands    NBANDS=    576
   number of dos      NEDOS =    301   number of ions     NIONS =     81
   non local maximal  LDIM  =      6   non local SUM 2l+1 LMDIM =     18
   total plane-waves  NPLWV = ******
   max r-space proj   IRMAX =   7929   max aug-charges    IRDMAX=  34542
   dimension x,y,z NGX =    90 NGY =   90 NGZ =  168
   dimension x,y,z NGXF=   180 NGYF=  180 NGZF=  336
   support grid    NGXF=   180 NGYF=  180 NGZF=  336
   ions per type =              32  23  25   1
   NGX,Y,Z   is equivalent  to a cutoff of  13.33, 13.33, 12.70 a.u.
   NGXF,Y,Z  is equivalent  to a cutoff of  26.66, 26.66, 25.39 a.u.

 SYSTEM =  Pt111                                   
 POSCAR =  11.26                                   

 Startparameter for this run:
   NWRITE =      2    write-flag & timer
   PREC   = accura    normal or accurate (medium, high low for compatibility)
   ISTART =      0    job   : 0-new  1-cont  2-samecut
   ICHARG =      2    charge: 1-file 2-atom 10-const
   ISPIN  =      2    spin polarized calculation?
   LNONCOLLINEAR =      F non collinear calculations
   LSORBIT =      F    spin-orbit coupling
   INIWAV =      1    electr: 0-lowe 1-rand  2-diag
   LASPH  =      F    aspherical Exc in radial PAW
   METAGGA=      F    non-selfconsistent MetaGGA calc.

 Electronic Relaxation 1
   ENCUT  =  550.0 eV  40.42 Ry    6.36 a.u.  21.46 21.46 42.07*2*pi/ulx,y,z
   ENINI  =  550.0     initial cutoff
   ENAUG  =  544.6 eV  augmentation charge cutoff
   NELM   =    200;   NELMIN=  2; NELMDL= -5     # of ELM steps 
   EDIFF  = 0.1E-04   stopping-criterion for ELM
   LREAL  =      T    real-space projection
   NLSPLINE    = F    spline interpolate recip. space projectors
   LCOMPAT=      F    compatible to vasp.4.4
   GGA_COMPAT  = T    GGA compatible to vasp.4.4-vasp.4.6
   LMAXPAW     = -100 max onsite density
   LMAXMIX     =    2 max onsite mixed and CHGCAR
   VOSKOWN=      0    Vosko Wilk Nusair interpolation
   ROPT   =   -0.00025  -0.00025  -0.00025  -0.00025
 Ionic relaxation
   EDIFFG = -.5E-01   stopping-criterion for IOM
   NSW    =    300    number of steps for IOM
   NBLOCK =      1;   KBLOCK =    300    inner block; outer block 
   IBRION =      2    ionic relax: 0-MD 1-quasi-New 2-CG
   NFREE  =      1    steps in history (QN), initial steepest desc. (CG)
   ISIF   =      2    stress and relaxation
   IWAVPR =     11    prediction:  0-non 1-charg 2-wave 3-comb
   ISYM   =      2    0-nonsym 1-usesym 2-fastsym
   LCORR  =      T    Harris-Foulkes like correction to forces

   POTIM  = 0.5000    time-step for ionic-motion
   TEIN   =    0.0    initial temperature
   TEBEG  =    0.0;   TEEND  =   0.0 temperature during run
   SMASS  =  -3.00    Nose mass-parameter (am)
   estimated Nose-frequenzy (Omega)   =  0.10E-29 period in steps =****** mass=  -0.288E-26a.u.
   SCALEE = 1.0000    scale energy and forces
   NPACO  =    256;   APACO  = 16.0  distance and # of slots for P.C.
   PSTRESS=    0.0 pullay stress

  Mass of Ions in am
   POMASS = 195.08 58.93 58.69  1.00
  Ionic Valenz
   ZVAL   =  10.00  9.00 10.00  1.00
  Atomic Wigner-Seitz radii
   RWIGS  =  -1.00 -1.00 -1.00 -1.00
  virtual crystal weights 
   VCA    =   1.00  1.00  1.00  1.00
   NELECT =     778.0000    total number of electrons
   NUPDOWN=      -1.0000    fix difference up-down

 DOS related values:
   EMIN   =  10.00;   EMAX   =-10.00  energy-range for DOS
   EFERMI =   0.00
   ISMEAR =     1;   SIGMA  =   0.10  broadening in eV -4-tet -1-fermi 0-gaus

 Electronic relaxation 2 (details)
   IALGO  =     68    algorithm
   LDIAG  =      T    sub-space diagonalisation (order eigenvalues)
   LSUBROT=      F    optimize rotation matrix (better conditioning)
   TURBO    =      0    0=normal 1=particle mesh
   IRESTART =      0    0=no restart 2=restart with 2 vectors
   NREBOOT  =      0    no. of reboots
   NMIN     =      0    reboot dimension
   EREF     =   0.00    reference energy to select bands
   IMIX   =      4    mixing-type and parameters
     AMIX     =   0.40;   BMIX     =  1.00
     AMIX_MAG =   1.60;   BMIX_MAG =  1.00
     AMIN     =   0.10
     WC   =   100.;   INIMIX=   1;  MIXPRE=   1;  MAXMIX= -45

 Intra band minimization:
   WEIMIN = 0.0010     energy-eigenvalue tresh-hold
   EBREAK =  0.43E-08  absolut break condition
   DEPER  =   0.30     relativ break condition  

   TIME   =   0.40     timestep for ELM

  volume/ion in A,a.u.               =      29.63       199.92
  Fermi-wavevector in a.u.,A,eV,Ry     =   1.124653  2.125287 17.209264  1.264845
  Thomas-Fermi vector in A             =   2.261326
 
 Write flags
   LWAVE        =      F    write WAVECAR
   LDOWNSAMPLE  =      F    k-point downsampling of WAVECAR
   LCHARG       =      F    write CHGCAR
   LVTOT        =      F    write LOCPOT, total local potential
   LVHAR        =      F    write LOCPOT, Hartree potential only
   LELF         =      F    write electronic localiz. function (ELF)
   LORBIT       =      0    0 simple, 1 ext, 2 COOP (PROOUT), +10 PAW based schemes


 Dipole corrections
   LMONO  =      F    monopole corrections only (constant potential shift)
   LDIPOL =      F    correct potential (dipole corrections)
   IDIPOL =      0    1-x, 2-y, 3-z, 4-all directions 
   EPSILON=  1.0000000 bulk dielectric constant

 Exchange correlation treatment:
   GGA     =    --    GGA type
   LEXCH   =     8    internal setting for exchange type
   VOSKOWN=      0    Vosko Wilk Nusair interpolation
   LHFCALC =     F    Hartree Fock is set to
   LHFONE  =     F    Hartree Fock one center treatment
   AEXX    =    0.0000 exact exchange contribution

 Linear response parameters
   LEPSILON=     F    determine dielectric tensor
   LRPA    =     F    only Hartree local field effects (RPA)
   LNABLA  =     F    use nabla operator in PAW spheres
   LVEL    =     F    velocity operator in full k-point grid
   LINTERFAST=   F  fast interpolation
   KINTER  =     0    interpolate to denser k-point grid
   CSHIFT  =0.1000    complex shift for real part using Kramers Kronig
   OMEGAMAX=  -1.0    maximum frequency
   DEG_THRESHOLD= 0.2000000E-02 threshold for treating states as degnerate
   RTIME   =   -0.100 relaxation time in fs
  (WPLASMAI=    0.000 imaginary part of plasma frequency in eV, 0.658/RTIME)
   DFIELD  = 0.0000000 0.0000000 0.0000000 field for delta impulse in time
 
 Orbital magnetization related:
   ORBITALMAG=     F  switch on orbital magnetization
   LCHIMAG   =     F  perturbation theory with respect to B field
   DQ        =  0.001000  dq finite difference perturbation B field
   LLRAUG    =     F  two centre corrections for induced B field



--------------------------------------------------------------------------------------------------------


 conjugate gradient relaxation of ions
   using selective dynamics as specified on POSCAR
 charge density and potential will be updated during run
 spin polarized calculation
 RMM-DIIS sequential band-by-band and
  variant of blocked Davidson during initial phase
 perform sub-space diagonalisation
    before iterative eigenvector-optimisation
 modified Broyden-mixing scheme, WC =      100.0
 initial mixing is a Kerker type mixing with AMIX =  0.4000 and BMIX =      1.0000
 Hartree-type preconditioning will be used
 using additional bands          187
 real space projection scheme for non local part
 use partial core corrections
 calculate Harris-corrections to forces 
   (improved forces if not selfconsistent)
 use gradient corrections 
 use of overlap-Matrix (Vanderbilt PP)
 Methfessel and Paxton  Order N= 1 SIGMA  =   0.10


--------------------------------------------------------------------------------------------------------


  energy-cutoff  :      550.00
  volume of cell :     2399.65
      direct lattice vectors                 reciprocal lattice vectors
    11.222700119  0.000000000  0.000000000     0.089105116 -0.051444863  0.000000000
     5.611350060  9.719143402  0.000000000     0.000000000  0.102889726  0.000000000
     0.000000000  0.000000000 22.000000000     0.000000000  0.000000000  0.045454545

  length of vectors
    11.222700119 11.222700119 22.000000000     0.102889726  0.102889726  0.045454545


 
 k-points in units of 2pi/SCALE and weight: mesh auto                               
   0.00000000  0.00000000  0.00000000       0.250
   0.04455256 -0.02572243  0.00000000       0.250
   0.00000000  0.05144486  0.00000000       0.250
   0.04455256  0.02572243  0.00000000       0.250
 
 k-points in reciprocal lattice and weights: mesh auto                               
   0.00000000  0.00000000  0.00000000       0.250
   0.50000000  0.00000000  0.00000000       0.250
   0.00000000  0.50000000  0.00000000       0.250
   0.50000000  0.50000000  0.00000000       0.250
 
 position of ions in fractional coordinates (direct lattice) 
   0.78925998  0.87878802  0.30121222
   0.03270259  0.87918048  0.29281978
   0.27595481  0.36227641  0.31085980
   0.87452803  0.96417189  0.39986541
   0.11347695  0.46739997  0.41031125
   0.12514630  0.95929033  0.39950627
   0.87301284  0.45480225  0.41217167
   0.37701318  0.95585584  0.41523770
   0.86441231  0.21135176  0.39649291
   0.12938104  0.21430742  0.41300922
   0.62945289  0.95163036  0.40962071
   0.87531965  0.71431373  0.40848710
   0.37811308  0.20035718  0.41347329
   0.38084327  0.69648099  0.40256170
   0.62040281  0.45628506  0.39873021
   0.11607802  0.70916439  0.40358339
   0.62681720  0.20137626  0.40429930
   0.53828593  0.34754319  0.30086371
   0.52741195  0.11320966  0.30844004
   0.54569241  0.12647739  0.06683304
   0.11791659  0.40792499  0.11908862
   0.05457374  0.14826096  0.31034432
   0.00892895  0.10176852  0.04917651
   0.13783207  0.92691145  0.14197368
   0.37604756  0.44835740  0.40652188
   0.47979716  0.55399880  0.22971747
   0.62713798  0.70737237  0.41347945
   0.95252345  0.75898977  0.20420405
   0.79731901  0.63088403  0.31069021
   0.27421233  0.60849866  0.30376107
   0.18749030  0.26198206  0.22539890
   0.71089206  0.56100734  0.21410215
   0.04247202  0.60866576  0.30471865
   0.78196837  0.88367072  0.08012597
   0.00167860  0.86570870  0.07172203
   0.00649475  0.65686199  0.09367822
   0.62789021  0.23379040  0.14972974
   0.36050112  0.94235243  0.13470415
   0.02367156  0.39570538  0.31624423
   0.01296097  0.32139498  0.04442433
   0.84423970  0.22761319  0.13891977
   0.96744603  0.52048649  0.21885007
   0.30318925  0.09874004  0.31911861
   0.55336689  0.64796514  0.31680171
   0.25085454  0.09128101  0.04878728
   0.52913784  0.61162204  0.04697948
   0.33389242  0.36126594  0.07221963
   0.58147332  0.93651314  0.13694302
   0.67732667  0.80921239  0.22305304
   0.80979447  0.67906481  0.14024348
   0.62937817  0.45366950  0.13325724
   0.32036889  0.87194096  0.31726179
   0.29919813  0.84983568  0.05000644
   0.58103448  0.72612545  0.12392179
   0.22907234  0.01294552  0.22967573
   0.54871865  0.36069037  0.05545242
   0.34411655  0.16690962  0.13164412
   0.17554400  0.68420617  0.14761894
   0.66082635  0.04249037  0.21304482
   0.78516879  0.11592854  0.29690217
   0.53581451  0.87478900  0.31589053
   0.77284397  0.12278263  0.06048458
   0.50030742  0.89844953  0.04455515
   0.19571508  0.50522867  0.21438636
   0.93546177  0.31542046  0.22552712
   0.85824468  0.00195101  0.15611973
   0.72104290  0.31497628  0.22969726
   0.43002289  0.26577701  0.21377066
   0.87703755  0.42955743  0.12878365
   0.09634819  0.18069822  0.13969274
   0.75988870  0.58867799  0.05155611
   0.31527374  0.59151669  0.05925234
   0.38179216  0.70126590  0.13646584
   0.40042658  0.45377032  0.14884727
   0.79153862  0.40082537  0.31361618
   0.78089926  0.35148021  0.04598080
   0.96954404  0.08430315  0.22196820
   0.46486898  0.79463888  0.22533144
   0.24890496  0.78598962  0.23267623
   0.43862206  0.02771317  0.22450195
   0.78530680  0.11551968  0.43844976
 
 position of ions in cartesian coordinates  (Angst):
  13.78881523  8.54106679  6.62666878
   5.30040079  8.54488114  6.44203507
   5.12981781  3.52101637  6.83891552
  15.22487182  9.37092486  8.79703905
   3.89626264  4.54272733  9.02684743
   6.78739321  9.32348026  8.78913801
  12.34961596  4.42028825  9.06777677
   9.59474762  9.29009995  9.13522950
  10.88700891  2.05415809  8.72284412
   2.65455856  2.08288452  9.08620280
  12.40409210  9.24903192  9.01165573
  13.83171432  6.94251760  8.98671616
   5.36772404  1.94730018  9.09641244
   8.18228845  6.76919863  8.85635749
   9.52296988  4.43469994  8.77206466
   5.28207851  6.89247041  8.87883451
   8.16457415  1.95720479  8.89458451
   7.99120805  3.37782207  6.61900172
   6.55424518  1.10030096  6.78568086
   6.83385120  1.22925189  1.47032698
   3.61235247  3.96468152  2.61994962
   1.44440888  1.44096951  6.82757507
   0.67126575  0.98910281  1.08188317
   6.74807265  9.00878530  3.12342105
   6.73615930  4.35764984  8.94348133
   8.49330084  5.38439383  5.05378437
  11.00749549  6.87505349  9.09654801
  14.94884239  7.37673046  4.49248916
  12.48818327  6.13165233  6.83518465
   6.49190180  5.91408578  6.68274363
   3.57422044  2.54624125  4.95877580
  11.12613698  5.45251083  4.71024739
   3.89208734  5.91570976  6.70381020
  13.73438227  8.58852246  1.76277137
   4.87663302  8.41394697  1.57788465
   3.75877116  6.38413590  2.06092090
   8.35850333  2.27224245  3.29405432
   9.33366537  9.15885838  2.96349132
   2.48610016  3.84591731  6.95737300
   1.94891684  3.12368389  0.97733531
  10.75186628  2.21220519  3.05623495
  13.77798860  5.05868282  4.81470165
   3.95666700  0.95966865  7.02060946
   9.84622993  6.29766610  6.96963760
   3.32747495  0.88717326  1.07332023
   9.37038068  5.94444230  1.03354859
   5.77436416  3.51119550  1.58883193
  11.78080373  9.10210551  3.01274644
  12.14220806  7.86485128  4.90716692
  12.89855082  6.59992829  3.08535659
   9.60902083  4.40927897  2.93165935
   8.48817002  8.47451927  6.97975946
   8.12653637  8.25967484  1.10014163
  10.59531978  7.05731733  2.72627938
   2.64345207  0.12581940  5.05286608
   8.18206475  3.50560142  1.21995326
   4.79850516  1.62221856  2.89617069
   5.80939796  6.64989784  3.24761674
   7.65468432  0.41297001  4.68698615
   9.46222948  1.12672610  6.53184779
  10.92203289  8.50219970  6.94959171
   9.36237240  1.19334199  1.33066085
  10.65631497  8.73215981  0.98021322
   5.03146660  4.91038993  4.71649990
  12.26834149  3.06561666  4.96159659
   9.64277050  0.01896212  3.43463404
   9.85949038  3.06129963  5.05333976
   6.31738572  2.58312482  4.70295446
  12.25312658  4.17493029  2.83324027
   2.09524784  1.75623189  3.07324021
  11.83128130  5.72144585  1.13423452
   6.85742987  5.74903551  1.30355140
   8.21978744  6.81570388  3.00224843
   7.04013147  4.41025877  3.27463986
  11.13237201  3.89567921  6.89955600
  10.73607676  3.41608656  1.01157751
  11.35395654  0.81935443  4.88330047
   9.67608211  7.72320924  4.95729164
   7.20384860  7.63914586  5.11887697
   5.07803210  0.26934830  4.93904295
   9.46148406  1.12275233  9.64589479
 


--------------------------------------------------------------------------------------------------------


 k-point  1 :   0.0000 0.0000 0.0000  plane waves:   70321
 k-point  2 :   0.5000 0.0000 0.0000  plane waves:   70264
 k-point  3 :   0.0000 0.5000 0.0000  plane waves:   70264
 k-point  4 :   0.5000 0.5000 0.0000  plane waves:   70264

 maximum and minimum number of plane-waves per node :     17611    17530

 maximum number of plane-waves:     70321
 maximum index in each direction: 
   IXMAX=   21   IYMAX=   21   IZMAX=   42
   IXMIN=  -21   IYMIN=  -21   IZMIN=  -42


 real space projection operators:
  total allocation   :      70751.95 KBytes
  max/ min on nodes  :      18089.88      17295.52


 parallel 3D FFT for wavefunctions:
    minimum data exchange during FFTs selected (reduces bandwidth)
 parallel 3D FFT for charge:
    minimum data exchange during FFTs selected (reduces bandwidth)


 total amount of memory used by VASP MPI-rank0   243556. kBytes
=======================================================================

   base      :      30000. kBytes
   nonlr-proj:      33157. kBytes
   fftplans  :      18297. kBytes
   grid      :      51226. kBytes
   one-center:        653. kBytes
   wavefun   :     110223. kBytes
 
     INWAV:  cpu time    0.0001: real time    0.0006
 Broyden mixing: mesh for mixing (old mesh)
   NGX = 43   NGY = 43   NGZ = 85
  (NGX  =180   NGY  =180   NGZ  =336)
  gives a total of 157165 points

 initial charge density was supplied:
 charge density of overlapping atoms calculated
 number of electron     778.0000000 magnetization     206.0000000
 keeping initial charge density in first step


--------------------------------------------------------------------------------------------------------


 Maximum index for non-local projection operator         2137
 Maximum index for augmentation-charges         1121 (set IRDMAX)


--------------------------------------------------------------------------------------------------------


 First call to EWALD:  gamma=   0.132
 Maximum number of real-space cells 4x 4x 2
 Maximum number of reciprocal cells 2x 2x 4

    FEWALD:  cpu time    0.0042: real time    0.0042


--------------------------------------- Iteration      1(   1)  ---------------------------------------


    POTLOK:  cpu time    0.4243: real time    0.4268
    SETDIJ:  cpu time    0.0321: real time    0.0322
     EDDAV:  cpu time   63.6257: real time   63.8037
       DOS:  cpu time    0.0026: real time    0.0031
    --------------------------------------------
      LOOP:  cpu time   64.0847: real time   64.2658

 eigenvalue-minimisations  :  9216
 total energy-change (2. order) : 0.6869502E+04  (-0.3404394E+05)
 number of electron     778.0000000 magnetization     206.0000000
 augmentation part      778.0000000 magnetization     206.0000000

 Free energy of the ion-electron system (eV)
  ---------------------------------------------------
  alpha Z        PSCENC =      1751.32544349
  Ewald energy   TEWEN  =    237196.91679040
  -Hartree energ DENC   =   -307253.38383605
  -exchange      EXHF   =         0.00000000
  -V(xc)+E(xc)   XCENC  =      1334.73093740
  PAW double counting   =     62871.68470781   -64853.88848185
  entropy T*S    EENTRO =         0.00376730
  eigenvalues    EBANDS =      6828.76662282
  atomic energy  EATOM  =     68993.34587830
  Solvation  Ediel_sol  =         0.00000000
  ---------------------------------------------------
  free energy    TOTEN  =      6869.50182962 eV

  energy without entropy =     6869.49806232  energy(sigma->0) =     6869.50057386


--------------------------------------------------------------------------------------------------------




--------------------------------------- Iteration      1(   2)  ---------------------------------------


     EDDAV:  cpu time   63.6471: real time   63.8067
       DOS:  cpu time    0.0027: real time    0.0028
    --------------------------------------------
      LOOP:  cpu time   63.6498: real time   63.8096

 eigenvalue-minimisations  :  9216
 total energy-change (2. order) :-0.6437145E+04  (-0.5813388E+04)
 number of electron     778.0000000 magnetization     206.0000000
 augmentation part      778.0000000 magnetization     206.0000000

 Free energy of the ion-electron system (eV)
  ---------------------------------------------------
  alpha Z        PSCENC =      1751.32544349
  Ewald energy   TEWEN  =    237196.91679040
  -Hartree energ DENC   =   -307253.38383605
  -exchange      EXHF   =         0.00000000
  -V(xc)+E(xc)   XCENC  =      1334.73093740
  PAW double counting   =     62871.68470781   -64853.88848185
  entropy T*S    EENTRO =        -0.00576839
  eigenvalues    EBANDS =       391.63087128
  atomic energy  EATOM  =     68993.34587830
  Solvation  Ediel_sol  =         0.00000000
  ---------------------------------------------------
  free energy    TOTEN  =       432.35654239 eV

  energy without entropy =      432.36231078  energy(sigma->0) =      432.35846518


--------------------------------------------------------------------------------------------------------




--------------------------------------- Iteration      1(   3)  ---------------------------------------


     EDDAV:  cpu time   66.2809: real time   66.4463
       DOS:  cpu time    0.0029: real time    0.0034
    --------------------------------------------
      LOOP:  cpu time   66.2837: real time   66.4497

 eigenvalue-minimisations  :  9732
 total energy-change (2. order) :-0.8795854E+03  (-0.7314008E+03)
 number of electron     778.0000000 magnetization     206.0000000
 augmentation part      778.0000000 magnetization     206.0000000

 Free energy of the ion-electron system (eV)
  ---------------------------------------------------
  alpha Z        PSCENC =      1751.32544349
  Ewald energy   TEWEN  =    237196.91679040
  -Hartree energ DENC   =   -307253.38383605
  -exchange      EXHF   =         0.00000000
  -V(xc)+E(xc)   XCENC  =      1334.73093740
  PAW double counting   =     62871.68470781   -64853.88848185
  entropy T*S    EENTRO =         0.00672907
  eigenvalues    EBANDS =      -487.96705919
  atomic energy  EATOM  =     68993.34587830
  Solvation  Ediel_sol  =         0.00000000
  ---------------------------------------------------
  free energy    TOTEN  =      -447.22889061 eV

  energy without entropy =     -447.23561969  energy(sigma->0) =     -447.23113364


--------------------------------------------------------------------------------------------------------




--------------------------------------- Iteration      1(   4)  ---------------------------------------


     EDDAV:  cpu time   69.1840: real time   69.3582
       DOS:  cpu time    0.0029: real time    0.0035
    --------------------------------------------
      LOOP:  cpu time   69.1869: real time   69.3616

 eigenvalue-minimisations  : 10284
 total energy-change (2. order) :-0.5700350E+02  (-0.5483237E+02)
 number of electron     778.0000000 magnetization     206.0000000
 augmentation part      778.0000000 magnetization     206.0000000

 Free energy of the ion-electron system (eV)
  ---------------------------------------------------
  alpha Z        PSCENC =      1751.32544349
  Ewald energy   TEWEN  =    237196.91679040
  -Hartree energ DENC   =   -307253.38383605
  -exchange      EXHF   =         0.00000000
  -V(xc)+E(xc)   XCENC  =      1334.73093740
  PAW double counting   =     62871.68470781   -64853.88848185
  entropy T*S    EENTRO =         0.00291696
  eigenvalues    EBANDS =      -544.96675156
  atomic energy  EATOM  =     68993.34587830
  Solvation  Ediel_sol  =         0.00000000
  ---------------------------------------------------
  free energy    TOTEN  =      -504.23239509 eV

  energy without entropy =     -504.23531206  energy(sigma->0) =     -504.23336741


--------------------------------------------------------------------------------------------------------




--------------------------------------- Iteration      1(   5)  ---------------------------------------


     EDDAV:  cpu time   72.4848: real time   72.6710
       DOS:  cpu time    0.0030: real time    0.0036
    CHARGE:  cpu time    4.4448: real time    4.4677
    MIXING:  cpu time    0.0113: real time    0.0116
    --------------------------------------------
      LOOP:  cpu time   76.9439: real time   77.1540

 eigenvalue-minimisations  : 10920
 total energy-change (2. order) :-0.1108989E+01  (-0.1107006E+01)
 number of electron     778.0000030 magnetization     194.1432743
 augmentation part      338.1018342 magnetization     164.4771729

 Broyden mixing:
  rms(total) = 0.10663E+02    rms(broyden)= 0.10663E+02
  rms(prec ) = 0.11032E+02
  weight for this iteration     100.00

 Free energy of the ion-electron system (eV)
  ---------------------------------------------------
  alpha Z        PSCENC =      1751.32544349
  Ewald energy   TEWEN  =    237196.91679040
  -Hartree energ DENC   =   -307253.38383605
  -exchange      EXHF   =         0.00000000
  -V(xc)+E(xc)   XCENC  =      1334.73093740
  PAW double counting   =     62871.68470781   -64853.88848185
  entropy T*S    EENTRO =         0.00282360
  eigenvalues    EBANDS =      -546.07564712
  atomic energy  EATOM  =     68993.34587830
  Solvation  Ediel_sol  =         0.00000000
  ---------------------------------------------------
  free energy    TOTEN  =      -505.34138402 eV

  energy without entropy =     -505.34420762  energy(sigma->0) =     -505.34232522


--------------------------------------------------------------------------------------------------------




--------------------------------------- Iteration      1(   6)  ---------------------------------------


    POTLOK:  cpu time    0.4046: real time    0.4068
    SETDIJ:  cpu time    0.0338: real time    0.0339
    EDDIAG:  cpu time   11.7629: real time   11.8138
  RMM-DIIS:  cpu time   40.6376: real time   41.9477
    ORTHCH:  cpu time    1.2405: real time    1.2439
       DOS:  cpu time    0.0025: real time    0.0026
    CHARGE:  cpu time    4.3013: real time    4.3147
    MIXING:  cpu time    0.0119: real time    0.0125
    --------------------------------------------
      LOOP:  cpu time   58.3951: real time   59.7757

 eigenvalue-minimisations  :  9407
 total energy-change (2. order) :-0.2515156E+03  (-0.9961957E+02)
 number of electron     778.0000040 magnetization     190.8418271
 augmentation part      408.7106809 magnetization     162.4419700

 Broyden mixing:
  rms(total) = 0.20837E+02    rms(broyden)= 0.20837E+02
  rms(prec ) = 0.25941E+02
  weight for this iteration     100.00

 eigenvalues of (default mixing * dielectric matrix)
  average eigenvalue GAMMA=   0.1754
  0.1754

 Free energy of the ion-electron system (eV)
  ---------------------------------------------------
  alpha Z        PSCENC =      1751.32544349
  Ewald energy   TEWEN  =    237196.91679040
  -Hartree energ DENC   =   -305969.19687814
  -exchange      EXHF   =         0.00000000
  -V(xc)+E(xc)   XCENC  =      1289.06237334
  PAW double counting   =     67972.55998102   -69724.85198353
  entropy T*S    EENTRO =        -0.00238888
  eigenvalues    EBANDS =     -2266.01622765
  atomic energy  EATOM  =     68993.34587830
  Solvation  Ediel_sol  =         0.00000000
  ---------------------------------------------------
  free energy    TOTEN  =      -756.85701166 eV

  energy without entropy =     -756.85462278  energy(sigma->0) =     -756.85621536


--------------------------------------------------------------------------------------------------------




--------------------------------------- Iteration      1(   7)  ---------------------------------------


    POTLOK:  cpu time    0.4108: real time    0.4125
    SETDIJ:  cpu time    0.0338: real time    0.0339
    EDDIAG:  cpu time   11.7626: real time   11.7925
  RMM-DIIS:  cpu time   40.6859: real time   40.7849
    ORTHCH:  cpu time    1.2392: real time    1.2422
       DOS:  cpu time    0.0027: real time    0.0027
    CHARGE:  cpu time    4.3082: real time    4.3191
    MIXING:  cpu time    0.0124: real time    0.0124
    --------------------------------------------
      LOOP:  cpu time   58.4556: real time   58.6003

 eigenvalue-minimisations  :  9235
 total energy-change (2. order) : 0.2394830E+03  (-0.1715494E+02)
 number of electron     778.0000031 magnetization     187.9072901
 augmentation part      372.1715343 magnetization     153.0272772

 Broyden mixing:
  rms(total) = 0.14972E+02    rms(broyden)= 0.14972E+02
  rms(prec ) = 0.18170E+02
  weight for this iteration     100.00

 eigenvalues of (default mixing * dielectric matrix)
  average eigenvalue GAMMA=   0.2159
  0.2159  0.2159

 Free energy of the ion-electron system (eV)
  ---------------------------------------------------
  alpha Z        PSCENC =      1751.32544349
  Ewald energy   TEWEN  =    237196.91679040
  -Hartree energ DENC   =   -306575.52413025
  -exchange      EXHF   =         0.00000000
  -V(xc)+E(xc)   XCENC  =      1305.57200392
  PAW double counting   =     69018.06414169   -70934.86461704
  entropy T*S    EENTRO =        -0.00412612
  eigenvalues    EBANDS =     -1272.20544230
  atomic energy  EATOM  =     68993.34587830
  Solvation  Ediel_sol  =         0.00000000
  ---------------------------------------------------
  free energy    TOTEN  =      -517.37405790 eV

  energy without entropy =     -517.36993178  energy(sigma->0) =     -517.37268253


--------------------------------------------------------------------------------------------------------




--------------------------------------- Iteration      1(   8)  ---------------------------------------


    POTLOK:  cpu time    0.4068: real time    0.4087
    SETDIJ:  cpu time    0.0334: real time    0.0335
    EDDIAG:  cpu time   11.7890: real time   11.8323
  RMM-DIIS:  cpu time   40.7440: real time   40.8864
    ORTHCH:  cpu time    1.2627: real time    1.2673
       DOS:  cpu time    0.0025: real time    0.0025
    CHARGE:  cpu time    4.3462: real time    4.3595
    MIXING:  cpu time    0.0126: real time    0.0128
    --------------------------------------------
      LOOP:  cpu time   58.5973: real time   58.8030

 eigenvalue-minimisations  :  9264
 total energy-change (2. order) : 0.8641735E+02  (-0.1326626E+02)
 number of electron     778.0000040 magnetization     180.8556993
 augmentation part      380.6848470 magnetization     142.5285712

 Broyden mixing:
  rms(total) = 0.11844E+02    rms(broyden)= 0.11844E+02
  rms(prec ) = 0.13857E+02
  weight for this iteration     100.00

 eigenvalues of (default mixing * dielectric matrix)
  average eigenvalue GAMMA=   0.3164
  0.5745  0.2826  0.0922

 Free energy of the ion-electron system (eV)
  ---------------------------------------------------
  alpha Z        PSCENC =      1751.32544349
  Ewald energy   TEWEN  =    237196.91679040
  -Hartree energ DENC   =   -306436.87116928
  -exchange      EXHF   =         0.00000000
  -V(xc)+E(xc)   XCENC  =      1310.15835890
  PAW double counting   =     69727.44511525   -71666.55004382
  entropy T*S    EENTRO =         0.00076585
  eigenvalues    EBANDS =     -1306.72784911
  atomic energy  EATOM  =     68993.34587830
  Solvation  Ediel_sol  =         0.00000000
  ---------------------------------------------------
  free energy    TOTEN  =      -430.95671002 eV

  energy without entropy =     -430.95747586  energy(sigma->0) =     -430.95696530


--------------------------------------------------------------------------------------------------------




--------------------------------------- Iteration      1(   9)  ---------------------------------------


    POTLOK:  cpu time    0.4061: real time    0.4085
    SETDIJ:  cpu time    0.0338: real time    0.0339
    EDDIAG:  cpu time   11.7653: real time   11.7982
  RMM-DIIS:  cpu time   40.7395: real time   40.8386
    ORTHCH:  cpu time    1.2369: real time    1.2400
       DOS:  cpu time    0.0026: real time    0.0026
    CHARGE:  cpu time    4.2133: real time    4.2383
    MIXING:  cpu time    0.0130: real time    0.0131
    --------------------------------------------
      LOOP:  cpu time   58.4106: real time   58.5733

 eigenvalue-minimisations  :  9226
 total energy-change (2. order) :-0.1001175E+03  (-0.1723332E+02)
 number of electron     778.0000028 magnetization     174.7261339
 augmentation part      380.6314203 magnetization     141.1956024

 Broyden mixing:
  rms(total) = 0.16589E+02    rms(broyden)= 0.16589E+02
  rms(prec ) = 0.19047E+02
  weight for this iteration     100.00

 eigenvalues of (default mixing * dielectric matrix)
  average eigenvalue GAMMA=   0.3447
  0.8485  0.3094  0.1105  0.1105

 Free energy of the ion-electron system (eV)
  ---------------------------------------------------
  alpha Z        PSCENC =      1751.32544349
  Ewald energy   TEWEN  =    237196.91679040
  -Hartree energ DENC   =   -306185.69585757
  -exchange      EXHF   =         0.00000000
  -V(xc)+E(xc)   XCENC  =      1327.58313062
  PAW double counting   =     71364.45511943   -73367.58373747
  entropy T*S    EENTRO =         0.00679925
  eigenvalues    EBANDS =     -1611.42781174
  atomic energy  EATOM  =     68993.34587830
  Solvation  Ediel_sol  =         0.00000000
  ---------------------------------------------------
  free energy    TOTEN  =      -531.07424529 eV

  energy without entropy =     -531.08104454  energy(sigma->0) =     -531.07651171


--------------------------------------------------------------------------------------------------------




--------------------------------------- Iteration      1(  10)  ---------------------------------------


    POTLOK:  cpu time    0.4048: real time    0.4068
    SETDIJ:  cpu time    0.0337: real time    0.0338
    EDDIAG:  cpu time   11.7656: real time   11.7955
  RMM-DIIS:  cpu time   40.6790: real time   40.8061
    ORTHCH:  cpu time    1.2348: real time    1.2387
       DOS:  cpu time    0.0025: real time    0.0025
    CHARGE:  cpu time    4.2769: real time    4.2949
    MIXING:  cpu time    0.0129: real time    0.0130
    --------------------------------------------
      LOOP:  cpu time   58.4102: real time   58.5913

 eigenvalue-minimisations  :  9242
 total energy-change (2. order) : 0.1133039E+03  (-0.1241266E+02)
 number of electron     778.0000036 magnetization     169.2625559
 augmentation part      381.5623643 magnetization     126.0564439

 Broyden mixing:
  rms(total) = 0.10538E+02    rms(broyden)= 0.10538E+02
  rms(prec ) = 0.13480E+02
  weight for this iteration     100.00

 eigenvalues of (default mixing * dielectric matrix)
  average eigenvalue GAMMA=   0.3512
  0.9465  0.4262  0.1467  0.1467  0.0900

 Free energy of the ion-electron system (eV)
  ---------------------------------------------------
  alpha Z        PSCENC =      1751.32544349
  Ewald energy   TEWEN  =    237196.91679040
  -Hartree energ DENC   =   -306593.10282671
  -exchange      EXHF   =         0.00000000
  -V(xc)+E(xc)   XCENC  =      1336.79982652
  PAW double counting   =     72678.09747368   -74742.28327186
  entropy T*S    EENTRO =        -0.00329121
  eigenvalues    EBANDS =     -1038.86634269
  atomic energy  EATOM  =     68993.34587830
  Solvation  Ediel_sol  =         0.00000000
  ---------------------------------------------------
  free energy    TOTEN  =      -417.77032008 eV

  energy without entropy =     -417.76702887  energy(sigma->0) =     -417.76922301


--------------------------------------------------------------------------------------------------------




--------------------------------------- Iteration      1(  11)  ---------------------------------------


    POTLOK:  cpu time    0.4062: real time    0.4083
    SETDIJ:  cpu time    0.0338: real time    0.0339
    EDDIAG:  cpu time   11.7860: real time   11.8388
  RMM-DIIS:  cpu time   40.7599: real time   40.8667
    ORTHCH:  cpu time    1.2422: real time    1.2455
       DOS:  cpu time    0.0026: real time    0.0026
    CHARGE:  cpu time    4.3358: real time    4.3464
    MIXING:  cpu time    0.0137: real time    0.0138
    --------------------------------------------
      LOOP:  cpu time   58.5802: real time   58.7560

 eigenvalue-minimisations  :  9261
 total energy-change (2. order) : 0.5964713E+02  (-0.8767537E+01)
 number of electron     778.0000033 magnetization     165.1304053
 augmentation part      373.5264923 magnetization     122.7918003

 Broyden mixing:
  rms(total) = 0.95900E+01    rms(broyden)= 0.95899E+01
  rms(prec ) = 0.10425E+02
  weight for this iteration     100.00

 eigenvalues of (default mixing * dielectric matrix)
  average eigenvalue GAMMA=   0.3539
  1.0693  0.4731  0.1671  0.1671  0.1538  0.0933

 Free energy of the ion-electron system (eV)
  ---------------------------------------------------
  alpha Z        PSCENC =      1751.32544349
  Ewald energy   TEWEN  =    237196.91679040
  -Hartree energ DENC   =   -306807.22488775
  -exchange      EXHF   =         0.00000000
  -V(xc)+E(xc)   XCENC  =      1336.88331796
  PAW double counting   =     73571.72671476   -75671.70743775
  entropy T*S    EENTRO =        -0.00168045
  eigenvalues    EBANDS =      -729.38732459
  atomic energy  EATOM  =     68993.34587830
  Solvation  Ediel_sol  =         0.00000000
  ---------------------------------------------------
  free energy    TOTEN  =      -358.12318562 eV

  energy without entropy =     -358.12150518  energy(sigma->0) =     -358.12262547


--------------------------------------------------------------------------------------------------------




--------------------------------------- Iteration      1(  12)  ---------------------------------------


    POTLOK:  cpu time    0.4049: real time    0.4069
    SETDIJ:  cpu time    0.0331: real time    0.0332
    EDDIAG:  cpu time   11.7687: real time   11.7986
  RMM-DIIS:  cpu time   40.8802: real time   40.9826
    ORTHCH:  cpu time    1.2354: real time    1.2407
       DOS:  cpu time    0.0025: real time    0.0025
    CHARGE:  cpu time    4.2821: real time    4.2925
    MIXING:  cpu time    0.0139: real time    0.0139
    --------------------------------------------
      LOOP:  cpu time   58.6208: real time   58.7709

 eigenvalue-minimisations  :  9265
 total energy-change (2. order) :-0.9904841E+01  (-0.5406008E+01)
 number of electron     778.0000033 magnetization     160.5855568
 augmentation part      372.3699725 magnetization     122.0350614

 Broyden mixing:
  rms(total) = 0.11342E+02    rms(broyden)= 0.11342E+02
  rms(prec ) = 0.12759E+02
  weight for this iteration     100.00

 eigenvalues of (default mixing * dielectric matrix)
  average eigenvalue GAMMA=   0.3544
  1.1952  0.4398  0.3462  0.1456  0.1456  0.0965  0.1119

 Free energy of the ion-electron system (eV)
  ---------------------------------------------------
  alpha Z        PSCENC =      1751.32544349
  Ewald energy   TEWEN  =    237196.91679040
  -Hartree energ DENC   =   -306789.59156828
  -exchange      EXHF   =         0.00000000
  -V(xc)+E(xc)   XCENC  =      1333.02043200
  PAW double counting   =     74086.24483286   -76199.42106330
  entropy T*S    EENTRO =         0.00608251
  eigenvalues    EBANDS =      -739.87485490
  atomic energy  EATOM  =     68993.34587830
  Solvation  Ediel_sol  =         0.00000000
  ---------------------------------------------------
  free energy    TOTEN  =      -368.02802692 eV

  energy without entropy =     -368.03410943  energy(sigma->0) =     -368.03005442


--------------------------------------------------------------------------------------------------------




--------------------------------------- Iteration      1(  13)  ---------------------------------------


    POTLOK:  cpu time    0.4063: real time    0.4082
    SETDIJ:  cpu time    0.0338: real time    0.0339
    EDDIAG:  cpu time   11.8503: real time   11.9210
  RMM-DIIS:  cpu time   40.7790: real time   40.8832
    ORTHCH:  cpu time    1.2349: real time    1.2380
       DOS:  cpu time    0.0026: real time    0.0026
    CHARGE:  cpu time    4.3399: real time    4.3505
    MIXING:  cpu time    0.0140: real time    0.0141
    --------------------------------------------
      LOOP:  cpu time   58.6608: real time   58.8514

 eigenvalue-minimisations  :  9261
 total energy-change (2. order) : 0.2228214E+01  (-0.3815185E+01)
 number of electron     778.0000029 magnetization     156.1184492
 augmentation part      372.7067763 magnetization     117.5305830

 Broyden mixing:
  rms(total) = 0.99215E+01    rms(broyden)= 0.99214E+01
  rms(prec ) = 0.11072E+02
  weight for this iteration     100.00

 eigenvalues of (default mixing * dielectric matrix)
  average eigenvalue GAMMA=   0.3536
  1.2867  0.4656  0.4656  0.1486  0.1486  0.1303  0.0966  0.0869

 Free energy of the ion-electron system (eV)
  ---------------------------------------------------
  alpha Z        PSCENC =      1751.32544349
  Ewald energy   TEWEN  =    237196.91679040
  -Hartree energ DENC   =   -306895.21489165
  -exchange      EXHF   =         0.00000000
  -V(xc)+E(xc)   XCENC  =      1328.86281583
  PAW double counting   =     74622.70557021   -76745.90242168
  entropy T*S    EENTRO =        -0.00352134
  eigenvalues    EBANDS =      -617.83547616
  atomic energy  EATOM  =     68993.34587830
  Solvation  Ediel_sol  =         0.00000000
  ---------------------------------------------------
  free energy    TOTEN  =      -365.79981259 eV

  energy without entropy =     -365.79629125  energy(sigma->0) =     -365.79863881


--------------------------------------------------------------------------------------------------------




--------------------------------------- Iteration      1(  14)  ---------------------------------------


    POTLOK:  cpu time    0.4078: real time    0.4130
    SETDIJ:  cpu time    0.0333: real time    0.0334
    EDDIAG:  cpu time   11.7613: real time   11.7916
  RMM-DIIS:  cpu time   40.6876: real time   40.8586
    ORTHCH:  cpu time    1.2362: real time    1.2393
       DOS:  cpu time    0.0027: real time    0.0027
    CHARGE:  cpu time    4.2879: real time    4.3061
    MIXING:  cpu time    0.0142: real time    0.0143
    --------------------------------------------
      LOOP:  cpu time   58.4310: real time   58.6590

 eigenvalue-minimisations  :  9260
 total energy-change (2. order) : 0.2695345E+02  (-0.2728523E+01)
 number of electron     778.0000034 magnetization     153.6791152
 augmentation part      371.3784340 magnetization     113.2335022

 Broyden mixing:
  rms(total) = 0.63318E+01    rms(broyden)= 0.63317E+01
  rms(prec ) = 0.68383E+01
  weight for this iteration     100.00

 eigenvalues of (default mixing * dielectric matrix)
  average eigenvalue GAMMA=   0.3383
  1.2962  0.5014  0.5014  0.1632  0.1632  0.1213  0.1213  0.0885  0.0885

 Free energy of the ion-electron system (eV)
  ---------------------------------------------------
  alpha Z        PSCENC =      1751.32544349
  Ewald energy   TEWEN  =    237196.91679040
  -Hartree energ DENC   =   -306960.48244280
  -exchange      EXHF   =         0.00000000
  -V(xc)+E(xc)   XCENC  =      1327.67357232
  PAW double counting   =     75121.26389226   -77254.03871516
  entropy T*S    EENTRO =        -0.01010779
  eigenvalues    EBANDS =      -514.84067565
  atomic energy  EATOM  =     68993.34587830
  Solvation  Ediel_sol  =         0.00000000
  ---------------------------------------------------
  free energy    TOTEN  =      -338.84636463 eV

  energy without entropy =     -338.83625684  energy(sigma->0) =     -338.84299537


--------------------------------------------------------------------------------------------------------




--------------------------------------- Iteration      1(  15)  ---------------------------------------


    POTLOK:  cpu time    0.4068: real time    0.4088
    SETDIJ:  cpu time    0.0337: real time    0.0339
    EDDIAG:  cpu time   11.7662: real time   11.8048
  RMM-DIIS:  cpu time   40.7824: real time   40.9314
    ORTHCH:  cpu time    1.2369: real time    1.2400
       DOS:  cpu time    0.0028: real time    0.0028
    CHARGE:  cpu time    4.3186: real time    4.3290
    MIXING:  cpu time    0.0146: real time    0.0147
    --------------------------------------------
      LOOP:  cpu time   58.5620: real time   58.7654

 eigenvalue-minimisations  :  9263
 total energy-change (2. order) : 0.3794711E+01  (-0.1142145E+01)
 number of electron     778.0000035 magnetization     150.8968468
 augmentation part      371.0868474 magnetization     111.8078565

 Broyden mixing:
  rms(total) = 0.51536E+01    rms(broyden)= 0.51536E+01
  rms(prec ) = 0.55426E+01
  weight for this iteration     100.00

 eigenvalues of (default mixing * dielectric matrix)
  average eigenvalue GAMMA=   0.3425
  1.3211  0.5734  0.5734  0.2071  0.2071  0.1321  0.1321  0.0992  0.0992  0.0803

 Free energy of the ion-electron system (eV)
  ---------------------------------------------------
[...]
   -.389E+02 0.204E+02 -.269E+04   0.394E+02 -.203E+02 0.269E+04   -.561E+00 0.669E-02 0.729E+00   -.317E-01 -.463E-01 0.464E-03
   -.663E+02 -.276E+02 -.283E+04   0.655E+02 0.283E+02 0.283E+04   0.829E+00 -.722E+00 0.248E+01   0.571E-02 0.432E-01 -.159E-02
   0.103E+03 0.584E+01 -.270E+04   -.103E+03 -.679E+01 0.270E+04   -.695E+00 0.103E+01 0.211E+01   0.875E-02 -.219E-01 0.480E-01
   0.110E+02 0.227E+01 -.291E+04   -.109E+02 -.322E+01 0.291E+04   -.912E-01 0.907E+00 0.275E+01   -.245E-02 0.346E-01 0.120E-01
   0.506E+02 0.630E+01 -.297E+04   -.509E+02 -.583E+01 0.297E+04   0.343E+00 -.435E+00 0.333E+01   0.330E-01 -.201E-01 0.310E-01
   0.236E+02 0.697E+02 -.271E+04   -.233E+02 -.686E+02 0.271E+04   -.316E+00 -.111E+01 0.180E+01   -.192E-01 -.218E-02 -.406E-02
   0.532E+02 0.102E+02 -.288E+04   -.523E+02 -.981E+01 0.288E+04   -.960E+00 -.390E+00 0.268E+01   0.294E-01 0.165E-01 0.465E-01
   -.102E+03 -.234E+02 -.283E+04   0.101E+03 0.226E+02 0.283E+04   0.737E+00 0.821E+00 0.183E+01   0.562E-02 -.209E-01 -.359E-01
   -.600E+02 -.321E+02 -.279E+04   0.602E+02 0.321E+02 0.278E+04   -.189E+00 0.299E-01 0.183E+01   -.812E-02 0.240E-02 -.214E-01
   -.432E+02 -.674E+02 -.286E+04   0.431E+02 0.668E+02 0.286E+04   0.157E+00 0.539E+00 0.213E+01   0.296E-01 -.281E-02 0.137E-01
   0.108E+03 0.566E+02 -.275E+04   -.108E+03 -.565E+02 0.275E+04   -.648E+00 -.125E+00 0.243E+01   0.335E-01 -.998E-02 0.269E-01
   0.825E+02 0.451E+02 -.273E+04   -.820E+02 -.441E+02 0.273E+04   -.498E+00 -.107E+01 0.215E+01   0.102E-01 0.329E-01 -.199E-01
   -.296E+02 -.299E+02 -.269E+04   0.291E+02 0.295E+02 0.269E+04   0.467E+00 0.406E+00 0.168E+01   -.220E-01 -.125E-01 0.306E-01
   -.293E+02 -.222E+02 -.276E+04   0.288E+02 0.224E+02 0.276E+04   0.604E+00 -.249E+00 0.979E+00   -.199E-01 -.268E-02 -.643E-02
   0.421E+02 -.560E+02 -.133E+04   -.409E+02 0.549E+02 0.133E+04   -.113E+01 0.110E+01 0.196E+01   -.549E-01 0.169E-01 -.260E-01
   -.115E+03 -.817E+02 -.148E+04   0.114E+03 0.813E+02 0.148E+04   0.107E+01 0.425E+00 0.223E+01   0.875E-02 -.379E-01 -.400E-01
   0.592E+02 0.541E+02 0.278E+04   -.584E+02 -.537E+02 -.278E+04   -.643E+00 -.427E+00 -.194E+01   0.277E-02 -.217E-01 0.202E-01
   -.118E+03 -.144E+03 0.197E+04   0.118E+03 0.145E+03 -.197E+04   -.151E+00 -.383E+00 0.138E+01   0.527E-01 -.171E-01 0.115E-01
   0.796E+02 0.671E+02 -.154E+04   -.790E+02 -.666E+02 0.153E+04   -.706E+00 -.481E+00 0.164E+01   -.476E-02 0.588E-02 -.219E-01
   0.813E+01 0.189E+03 0.297E+04   -.779E+01 -.187E+03 -.296E+04   -.212E+00 -.163E+01 -.199E+01   -.236E-01 -.512E-01 0.197E-03
   0.159E+03 0.248E+02 0.147E+04   -.159E+03 -.257E+02 -.147E+04   -.774E+00 0.947E+00 -.374E+00   0.119E-01 -.185E-01 -.466E-01
   -.180E+02 -.379E+02 -.276E+04   0.181E+02 0.374E+02 0.275E+04   -.114E+00 0.458E+00 0.180E+01   -.590E-02 0.132E-01 0.321E-02
   0.109E+03 0.927E+02 -.231E+03   -.109E+03 -.923E+02 0.231E+03   0.416E-01 -.354E+00 0.157E+00   0.587E-02 0.292E-01 0.117E-02
   -.757E+01 0.434E+02 -.293E+04   0.756E+01 -.430E+02 0.292E+04   -.613E-02 -.339E+00 0.267E+01   0.884E-02 0.158E-02 -.230E-01
   -.451E+02 -.476E+02 0.332E+03   0.449E+02 0.463E+02 -.333E+03   0.166E+00 0.125E+01 -.601E-01   -.206E-01 0.161E-01 0.643E-02
   -.869E+02 -.498E+02 -.144E+04   0.874E+02 0.491E+02 0.144E+04   -.439E+00 0.570E+00 0.201E+01   -.387E-02 0.643E-01 -.339E-02
   0.123E+02 0.779E+01 -.133E+04   -.130E+02 -.723E+01 0.133E+04   0.749E+00 -.488E+00 0.192E+01   0.500E-02 -.136E-01 -.929E-02
   -.648E+02 -.101E+03 -.255E+02   0.644E+02 0.100E+03 0.253E+02   0.372E+00 0.506E+00 0.244E+00   0.507E-01 -.726E-02 -.500E-01
   -.224E+02 -.275E+02 0.126E+03   0.230E+02 0.274E+02 -.127E+03   -.500E+00 -.661E-01 0.839E+00   -.196E-01 0.750E-01 0.982E-02
   -.642E+02 -.122E+03 -.120E+04   0.642E+02 0.121E+03 0.120E+04   0.179E-01 0.829E+00 0.731E+00   0.146E-02 0.266E-01 0.511E-02
   -.238E+01 0.110E+03 0.236E+04   0.367E+01 -.109E+03 -.236E+04   -.113E+01 -.349E+00 -.152E+01   -.150E-01 0.297E-01 -.431E-02
   0.794E+01 0.137E+03 0.248E+04   -.906E+01 -.136E+03 -.248E+04   0.107E+01 -.755E+00 -.244E+01   -.168E-01 0.187E-01 -.115E-01
   -.737E+01 0.872E+02 0.223E+04   0.724E+01 -.856E+02 -.223E+04   0.694E-01 -.139E+01 -.217E+01   0.626E-02 0.476E-01 -.447E-02
   0.125E+03 0.704E+02 0.107E+04   -.125E+03 -.704E+02 -.107E+04   -.283E+00 0.121E-01 0.366E-01   -.394E-01 -.254E-01 -.286E-01
   0.493E+02 -.605E+02 0.143E+04   -.489E+02 0.605E+02 -.143E+04   -.515E+00 0.188E-01 -.331E+00   0.376E-01 -.133E-01 -.229E-01
   -.693E+02 0.107E+02 -.140E+04   0.691E+02 -.106E+02 0.140E+04   0.139E+00 -.318E+00 0.300E+00   0.192E-01 0.493E-01 0.117E-01
   -.256E+03 -.128E+03 0.278E+04   0.255E+03 0.126E+03 -.277E+04   0.149E+01 0.153E+01 -.400E+01   0.638E-03 -.186E-01 0.794E-03
   -.160E+02 0.996E+02 0.131E+04   0.156E+02 -.994E+02 -.131E+04   0.440E+00 -.254E+00 -.677E+00   -.260E-01 -.182E-01 -.321E-01
   -.973E+02 -.859E+02 0.136E+03   0.972E+02 0.861E+02 -.135E+03   0.410E-01 -.178E+00 -.345E+00   0.114E-01 0.420E-01 0.865E-02
   0.156E+02 -.133E+03 -.147E+04   -.158E+02 0.133E+03 0.147E+04   0.147E+00 0.530E+00 0.302E+00   0.489E-01 -.166E-01 -.162E-01
   0.812E+02 0.134E+03 -.141E+04   -.812E+02 -.134E+03 0.141E+04   -.158E-01 -.584E+00 -.711E+00   0.192E-01 0.139E-01 -.205E-01
   -.796E+02 -.138E+03 0.273E+04   0.778E+02 0.137E+03 -.272E+04   0.156E+01 0.162E+01 -.326E+01   0.384E-01 -.559E-01 0.139E-01
   0.167E+02 -.252E+02 0.276E+04   -.173E+02 0.252E+02 -.276E+04   0.415E+00 -.118E+00 -.328E+01   -.138E-02 0.274E-01 0.176E-02
   0.227E+03 -.396E+02 0.247E+04   -.226E+03 0.394E+02 -.247E+04   -.130E+01 0.257E+00 -.201E+01   0.251E-01 -.309E-01 0.148E-01
   -.187E+03 -.301E+02 0.146E+04   0.186E+03 0.302E+02 -.146E+04   0.253E+00 -.256E-01 0.223E+00   0.653E-03 0.411E-02 0.357E-02
   -.194E+03 0.582E+02 0.738E+01   0.194E+03 -.579E+02 -.697E+01   0.381E+00 -.387E+00 -.478E+00   -.192E-01 0.267E-01 -.789E-02
   -.188E+03 -.406E+02 0.139E+04   0.188E+03 0.410E+02 -.139E+04   -.598E-01 -.427E+00 0.485E+00   -.285E-01 0.678E-01 0.547E-02
   0.265E+02 -.673E+02 0.135E+04   -.264E+02 0.670E+02 -.135E+04   -.572E-01 0.509E+00 -.417E-01   -.212E-01 -.428E-02 -.969E-02
   0.194E+03 0.430E+02 -.146E+04   -.193E+03 -.431E+02 0.146E+04   -.662E+00 0.128E+00 -.101E-01   0.338E-01 -.596E-01 -.269E-01
   0.180E+03 0.549E+01 0.274E+04   -.178E+03 -.563E+01 -.273E+04   -.188E+01 0.984E-01 -.326E+01   0.193E-01 0.219E-01 0.873E-02
   -.976E+02 0.354E+02 0.159E+04   0.978E+02 -.352E+02 -.159E+04   -.191E+00 -.417E+00 0.296E+00   -.155E-02 0.572E-01 0.185E-01
   0.114E+03 -.593E+02 -.997E+02   -.114E+03 0.593E+02 0.998E+02   -.372E+00 0.973E-01 -.167E+00   0.372E-01 -.315E-01 -.616E-01
   0.134E+03 0.313E+02 0.297E+04   -.134E+03 -.308E+02 -.297E+04   -.152E+00 -.315E+00 -.150E+01   -.189E-01 -.363E-01 0.884E-02
   -.531E+02 -.163E+03 0.172E+04   0.530E+02 0.162E+03 -.172E+04   -.647E-01 0.340E+00 0.145E+00   0.363E-01 -.410E-01 -.102E-01
   0.193E+03 -.102E+02 0.134E+04   -.193E+03 0.103E+02 -.134E+04   0.391E+00 -.395E-01 0.497E+00   0.893E-02 0.294E-02 -.358E-04
   -.128E+03 0.266E+02 0.198E+03   0.128E+03 -.265E+02 -.198E+03   0.470E+00 -.892E-01 -.352E+00   -.516E-01 -.232E-01 -.376E-01
   0.539E+00 0.540E+02 -.130E+04   -.433E+00 -.542E+02 0.130E+04   -.361E-01 0.220E+00 0.812E+00   -.509E-01 -.314E-01 -.213E-01
   -.133E+03 0.149E+02 -.161E+04   0.133E+03 -.146E+02 0.161E+04   0.299E+00 -.282E+00 0.529E+00   0.366E-01 -.492E-01 -.460E-01
   0.827E+02 0.199E+03 0.290E+04   -.827E+02 -.199E+03 -.290E+04   -.321E-01 -.680E-01 -.122E+01   -.322E-01 -.202E-01 0.562E-02
   -.194E+03 -.247E+02 0.312E+04   0.192E+03 0.251E+02 -.312E+04   0.216E+01 -.416E+00 -.406E+01   -.163E-03 0.175E-01 0.262E-01
   -.511E+01 -.415E+02 0.206E+03   0.536E+01 0.416E+02 -.206E+03   -.360E+00 -.775E-01 -.307E+00   0.270E-01 0.313E-02 -.313E-02
   -.817E+02 -.101E+02 -.779E+02   0.814E+02 0.961E+01 0.780E+02   0.307E+00 0.443E+00 -.505E-01   -.695E-02 0.386E-02 -.350E-01
   0.314E+02 0.202E+03 0.111E+04   -.316E+02 -.202E+03 -.111E+04   0.278E+00 -.425E+00 0.493E-01   -.497E-01 -.887E-02 -.464E-01
   0.145E+03 0.219E+02 -.220E+03   -.145E+03 -.225E+02 0.221E+03   0.222E+00 0.697E+00 -.542E+00   -.292E-01 0.139E-01 -.455E-01
   -.133E+02 -.943E+02 0.170E+03   0.138E+02 0.942E+02 -.169E+03   -.497E+00 -.714E-02 -.332E+00   0.139E-01 -.247E-01 -.408E-01
   -.170E+03 -.109E+03 0.165E+04   0.170E+03 0.109E+03 -.165E+04   0.328E-01 -.193E+00 -.318E+00   -.302E-01 0.154E-01 0.129E-01
   -.694E+02 0.662E+01 0.148E+04   0.698E+02 -.652E+01 -.148E+04   -.250E+00 -.128E+00 -.679E+00   0.201E-01 -.410E-01 -.132E-01
   -.272E+03 -.156E+03 0.302E+04   0.270E+03 0.155E+03 -.302E+04   0.224E+01 0.136E+01 -.367E+01   -.147E-01 0.477E-01 0.373E-02
   0.296E+03 -.678E+02 0.296E+04   -.294E+03 0.670E+02 -.296E+04   -.220E+01 0.763E+00 -.281E+01   0.214E-02 -.925E-03 0.103E-01
   0.876E+02 0.281E+02 0.151E+04   -.877E+02 -.283E+02 -.151E+04   0.128E+00 0.188E+00 -.817E-03   0.196E-01 0.330E-01 0.165E-02
   0.140E+03 0.128E+02 0.119E+04   -.140E+03 -.127E+02 -.119E+04   0.109E+00 -.216E-01 -.328E+00   -.100E-01 -.262E-01 -.173E-02
   0.905E+02 0.259E+02 -.156E+04   -.904E+02 -.260E+02 0.156E+04   -.137E+00 0.346E-01 -.344E+00   -.157E-01 0.626E-01 0.125E-01
   -.673E+00 -.970E+01 0.308E+04   0.716E+00 0.102E+02 -.307E+04   -.799E-01 -.418E+00 -.174E+01   -.501E-01 -.194E-01 0.930E-03
   0.689E+02 0.175E+03 -.553E+02   -.693E+02 -.175E+03 0.561E+02   0.381E+00 0.248E+00 -.853E+00   -.614E-02 -.138E-01 -.544E-01
   0.668E+01 0.969E+02 -.256E+02   -.692E+01 -.963E+02 0.257E+02   0.233E+00 -.681E+00 -.215E+00   0.529E-01 -.129E-01 -.265E-01
   0.231E+03 0.512E+02 -.242E+03   -.231E+03 -.508E+02 0.243E+03   0.320E+00 -.345E+00 -.560E+00   0.225E-01 -.303E-01 -.345E-01
   -.631E+02 -.118E+03 -.730E+01   0.632E+02 0.118E+03 0.711E+01   -.131E+00 0.318E+00 0.160E+00   0.577E-01 -.388E-01 -.643E-01
   -.648E+01 -.338E+00 -.326E+03   0.684E+01 0.530E+00 0.328E+03   -.319E+00 -.165E+00 -.144E+01   -.205E-02 0.342E-03 0.176E-02
 -----------------------------------------------------------------------------------------------
   -.180E+01 -.775E+00 -.561E+01   -.622E-13 0.649E-12 -.127E-10   0.168E+01 0.861E+00 0.623E+01   0.918E-01 -.381E-01 -.635E+00
 
 
 POSITION                                       TOTAL-FORCE (eV/Angst)
 -----------------------------------------------------------------------------------
     13.78628      8.54631      6.63713        -0.008514      0.004900     -0.012524
      5.28786      8.55784      6.42183         0.006581     -0.005859      0.005162
      5.12945      3.50930      6.83772         0.010563     -0.010631      0.009618
     15.26759      9.31298      8.83595        -0.030836      0.018069     -0.017185
      3.90306      4.53572      9.02397        -0.015080     -0.014462     -0.007302
      6.80323      9.23014      8.74372        -0.017673      0.028499      0.005785
     12.35517      4.43196      9.06631        -0.006629      0.016691      0.009713
      9.55630      9.27010      9.13685         0.014354      0.009264      0.009921
     10.92843      2.08541      8.76246        -0.007471      0.008883      0.041116
      2.62826      2.06586      9.09096        -0.004556      0.002418      0.003613
     12.37174      9.23597      9.01091         0.007423      0.019997      0.012263
     13.83991      6.93426      8.98839        -0.024809     -0.006005     -0.000150
      5.34460      1.94991      9.09650        -0.007550     -0.016559      0.007068
      8.12441      6.80946      8.80813        -0.013821     -0.033784     -0.021473
      9.50916      4.47354      8.77378         0.020570     -0.006819      0.012406
      5.32215      6.89941      8.81991        -0.021130      0.009644     -0.006354
      8.11340      1.98594      8.95513        -0.003402     -0.025743     -0.001272
      7.99562      3.36401      6.61942        -0.006006      0.005777      0.007390
      6.55579      1.09628      6.79155         0.018021      0.033413      0.015534
      6.83385      1.22925      1.47033        -0.003394      0.035957      0.002700
      3.61235      3.96468      2.61995        -0.007353      0.002991      0.004797
      1.43169      1.43172      6.83259        -0.000782     -0.000551     -0.016677
      0.67127      0.98910      1.08188        -0.013904     -0.017104     -0.001125
      6.74807      9.00879      3.12342        -0.013864      0.015083     -0.013282
      6.73707      4.38388      8.93324        -0.017137     -0.029707     -0.004152
      8.49330      5.38439      5.05378         0.009134     -0.005598      0.001160
     10.99906      6.87013      9.10045         0.006864      0.001922     -0.003746
     14.94884      7.37673      4.49249         0.028339      0.013395      0.008729
     12.48186      6.14167      6.83556        -0.008345     -0.029092      0.000046
      6.48182      5.89564      6.64995         0.007560      0.011157     -0.005322
      3.57422      2.54624      4.95878        -0.010834     -0.023857     -0.039880
     11.12614      5.45251      4.71025         0.034543      0.004241      0.007627
      3.88727      5.91467      6.70773        -0.028548     -0.020075     -0.007886
     13.73438      8.58852      1.76277        -0.004575     -0.025392     -0.037691
      4.87663      8.41395      1.57788         0.005193      0.006622      0.022931
      3.75877      6.38414      2.06092         0.020093     -0.003653      0.016615
      8.35850      2.27224      3.29405        -0.011470     -0.002084      0.011334
      9.33367      9.15886      2.96349         0.006896      0.002502      0.034040
      2.48278      3.84496      6.95782        -0.013922     -0.005343     -0.006931
      1.94892      3.12368      0.97734        -0.004394      0.007294      0.003962
     10.75187      2.21221      3.05623         0.011828      0.007874      0.008134
     13.77799      5.05868      4.81470        -0.013877      0.020161     -0.002954
      3.95929      0.96477      7.02512        -0.019837      0.016190     -0.001395
      9.82564      6.30091      6.97556         0.024300     -0.004525     -0.005890
      3.32747      0.88717      1.07332         0.001175      0.002399     -0.010755
      9.37038      5.94444      1.03355         0.023042      0.014346     -0.041585
      5.77436      3.51120      1.58883         0.007686      0.005519      0.001598
     11.78080      9.10211      3.01275        -0.015096     -0.010513      0.030875
     12.14221      7.86485      4.90717        -0.017302     -0.003015     -0.018038
     12.89855      6.59993      3.08536         0.007151     -0.003958      0.019979
      9.60902      4.40928      2.93166        -0.007741     -0.014926      0.010580
      8.50634      8.48479      6.95919        -0.008980     -0.004447     -0.001000
      8.12654      8.25967      1.10014        -0.018329      0.003104     -0.012183
     10.59532      7.05732      2.72628        -0.000086     -0.008021      0.014977
      2.64345      0.12582      5.05287         0.026204     -0.004809     -0.044922
      8.18206      3.50560      1.21995        -0.009649     -0.031413      0.007082
      4.79851      1.62222      2.89617        -0.008463     -0.004137      0.016401
      5.80940      6.64990      3.24762        -0.012315      0.013422     -0.020696
      7.65468      0.41297      4.68699         0.021764     -0.001637      0.029152
      9.45519      1.13259      6.55374         0.016683      0.016716      0.027182
     10.92767      8.49227      6.95067         0.018379      0.010409      0.004463
      9.36237      1.19334      1.33066         0.029608      0.006318      0.004846
     10.65631      8.73216      0.98021        -0.001205     -0.004685     -0.013588
      5.03147      4.91039      4.71650        -0.014051      0.011754     -0.019060
     12.26834      3.06562      4.96160         0.001023      0.013096     -0.009332
      9.64277      0.01896      3.43463         0.017457     -0.000867      0.017009
      9.85949      3.06130      5.05334         0.004839     -0.020456      0.021567
      6.31739      2.58312      4.70295        -0.006095     -0.023954     -0.010090
     12.25313      4.17493      2.83324        -0.005768      0.002241     -0.001868
      2.09525      1.75623      3.07324        -0.000412     -0.004464      0.021821
     11.83128      5.72145      1.13423         0.030844     -0.000447      0.000939
      6.85743      5.74904      1.30355        -0.003868     -0.005158      0.008546
      8.21979      6.81570      3.00225         0.006298      0.006125     -0.014458
      7.04013      4.41026      3.27464         0.011210      0.009242      0.000651
     11.12401      3.90192      6.90272        -0.000053     -0.002438     -0.004686
     10.73608      3.41609      1.01158         0.000840     -0.010134      0.001546
     11.35396      0.81935      4.88330        -0.037046      0.008771      0.008544
      9.67608      7.72321      4.95729         0.010085     -0.000042     -0.039823
      7.20385      7.63915      5.11888         0.025632      0.006153     -0.011948
      5.07803      0.26935      4.93904        -0.020891     -0.012349     -0.028481
      9.51860      1.15039      9.73418         0.034885      0.026150      0.006279
 -----------------------------------------------------------------------------------
    total drift:                               -0.026967      0.048144     -0.018107


--------------------------------------------------------------------------------------------------------



  FREE ENERGIE OF THE ION-ELECTRON SYSTEM (eV)
  ---------------------------------------------------
  free  energy   TOTEN  =      -503.43446092 eV

  energy  without entropy=     -503.46074350  energy(sigma->0) =     -503.44322178
 
 d Force = 0.3600195E-02[ 0.211E-02, 0.509E-02]  d Energy = 0.3567395E-02 0.328E-04
 d Force = 0.2090687E+01[ 0.209E+01, 0.209E+01]  d Ewald  = 0.2090702E+01-0.150E-04


--------------------------------------------------------------------------------------------------------


    POTLOK:  cpu time    0.4360: real time    0.4377


--------------------------------------------------------------------------------------------------------


 Conjugate gradient step on ions:
 trial-energy change:   -0.003567  1 .order   -0.003600   -0.005091   -0.002110
  (g-gl).g = 0.275E-02      g.g   = 0.311E-02  gl.gl    = 0.550E-02
 g(Force)  = 0.311E-02   g(Stress)= 0.000E+00 ortho     =-0.213E-04
 gamma     =   0.49947
 trial     =   1.63998
 opt step  =   2.80048  (harmonic =   2.80048) maximal distance =0.01371727
 next E    =  -503.435240   (d E  =  -0.00435)


--------------------------------------------------------------------------------------------------------


  
 reached required accuracy - stopping structural energy minimisation
     LOOP+:  cpu time  820.2907: real time  824.3972
    4ORBIT:  cpu time    0.0000: real time    0.0000

 total amount of memory used by VASP MPI-rank0   243556. kBytes
=======================================================================

   base      :      30000. kBytes
   nonlr-proj:      33157. kBytes
   fftplans  :      18297. kBytes
   grid      :      51226. kBytes
   one-center:        653. kBytes
   wavefun   :     110223. kBytes
 
  
  
 General timing and accounting informations for this job:
 ========================================================
  
                  Total CPU time used (sec):    12545.925
                            User time (sec):    12179.186
                          System time (sec):      366.739
                         Elapsed time (sec):    12610.242
  
                   Maximum memory used (kb):      426376.
                   Average memory used (kb):           0.
  
                          Minor page faults:      2694453
                          Major page faults:          165
                 Voluntary context switches:         8423
