 vasp.5.4.4.18Apr17-6-g9f103f2a35 (build Oct 25 2019 11:13:22) complex          
  
 executed on             LinuxIFC date 2021.10.14  12:36:21
 running on   48 total cores
 distrk:  each k-point on   48 cores,    1 groups
 distr:  one band on NCORES_PER_BAND=   4 cores,   12 groups


--------------------------------------------------------------------------------------------------------


 INCAR:
 POTCAR:    PAW_PBE Pt 04Feb2005                  
 POTCAR:    PAW_PBE Fe 06Sep2000                  
 POTCAR:    PAW_PBE Co 02Aug2007                  
 POTCAR:    PAW_PBE Cu 22Jun2005                  
 POTCAR:    PAW_PBE Ni 02Aug2007                  
 POTCAR:    PAW_PBE H 15Jun2001                   
 POTCAR:    PAW_PBE Pt 04Feb2005                  
   VRHFIN =Pt: s1d9                                                             
   LEXCH  = PE                                                                  
   EATOM  =   729.1176 eV,   53.5886 Ry                                         
                                                                                
   TITEL  = PAW_PBE Pt 04Feb2005                                                
   LULTRA =        F    use ultrasoft PP ?                                      
   IUNSCR =        1    unscreen: 0-lin 1-nonlin 2-no                           
   RPACOR =    2.330    partial core radius                                     
   POMASS =  195.080; ZVAL   =   10.000    mass and valenz                      
   RCORE  =    2.600    outmost cutoff radius                                   
   RWIGS  =    2.750; RWIGS  =    1.455    wigner-seitz radius (au A)           
   ENMAX  =  230.283; ENMIN  =  172.712 eV                                      
   ICORE  =        3    local potential                                         
   LCOR   =        T    correct aug charges                                     
   LPAW   =        T    paw PP                                                  
   EAUG   =  358.966                                                            
   DEXC   =    0.000                                                            
   RMAX   =    2.658    core radius for proj-oper                               
   RAUG   =    1.300    factor for augmentation sphere                          
   RDEP   =    2.761    radius for radial grids                                 
   RDEPT  =    2.203    core radius for aug-charge                              
                                                                                
   Atomic configuration                                                         
   16 entries                                                                   
     n  l   j            E        occ.                                          
     1  0  0.50    -78401.1885   2.0000                                         
     2  0  0.50    -13770.7750   2.0000                                         
     2  1  1.50    -11931.0468   6.0000                                         
     3  0  0.50     -3234.7234   2.0000                                         
     3  1  1.50     -2699.2216   6.0000                                         
     3  2  2.50     -2119.5714  10.0000                                         
     4  0  0.50      -695.1528   2.0000                                         
     4  1  1.50      -519.6034   6.0000                                         
     4  2  2.50      -306.6786  10.0000                                         
     4  3  3.50       -70.1041  14.0000                                         
     5  0  0.50      -101.7747   2.0000                                         
     5  1  1.50       -55.9873   6.0000                                         
     5  2  2.50        -6.1423   9.0000                                         
     6  0  0.50        -5.6573   1.0000                                         
     6  1  1.50        -6.8029   0.0000                                         
     5  3  2.50        -1.3606   0.0000                                         
   Description                                                                  
     l       E           TYP  RCUT    TYP  RCUT                                 
     2     -6.1423404     23  2.500                                             
     2     -7.5029230     23  2.500                                             
     0     -5.6573207     23  2.500                                             
     0      0.7416693     23  2.500                                             
     1     -2.7211652     23  2.600                                             
     1     20.4087390     23  2.600                                             
     3     -1.3605826     23  2.500                                             
  local pseudopotential read in
  partial core-charges read in
  partial kinetic energy density read in
  atomic valenz-charges read in
  non local Contribution for L=           2  read in
    real space projection operators read in
  non local Contribution for L=           2  read in
    real space projection operators read in
  non local Contribution for L=           0  read in
    real space projection operators read in
  non local Contribution for L=           0  read in
    real space projection operators read in
  non local Contribution for L=           1  read in
    real space projection operators read in
  non local Contribution for L=           1  read in
    real space projection operators read in
    PAW grid and wavefunctions read in
 
   number of l-projection  operators is LMAX  =           6
   number of lm-projection operators is LMMAX =          18
 
 POTCAR:    PAW_PBE Fe 06Sep2000                  
   VRHFIN =Fe:  d7 s1                                                           
   LEXCH  = PE                                                                  
   EATOM  =   594.3153 eV,   43.6809 Ry                                         
                                                                                
   TITEL  = PAW_PBE Fe 06Sep2000                                                
   LULTRA =        F    use ultrasoft PP ?                                      
   IUNSCR =        1    unscreen: 0-lin 1-nonlin 2-no                           
   RPACOR =    2.000    partial core radius                                     
   POMASS =   55.847; ZVAL   =    8.000    mass and valenz                      
   RCORE  =    2.300    outmost cutoff radius                                   
   RWIGS  =    2.460; RWIGS  =    1.302    wigner-seitz radius (au A)           
   ENMAX  =  267.882; ENMIN  =  200.911 eV                                      
   RCLOC  =    1.701    cutoff for local pot                                    
   LCOR   =        T    correct aug charges                                     
   LPAW   =        T    paw PP                                                  
   EAUG   =  511.368                                                            
   DEXC   =    0.000                                                            
   RMAX   =    2.356    core radius for proj-oper                               
   RAUG   =    1.300    factor for augmentation sphere                          
   RDEP   =    2.442    radius for radial grids                                 
   RDEPT  =    1.890    core radius for aug-charge                              
                                                                                
   Atomic configuration                                                         
    9 entries                                                                   
     n  l   j            E        occ.                                          
     1  0  0.50     -6993.8440   2.0000                                         
     2  0  0.50      -814.6047   2.0000                                         
     2  1  1.50      -693.3689   6.0000                                         
     3  0  0.50       -89.4732   2.0000                                         
     3  1  1.50       -55.6373   6.0000                                         
     3  2  2.50        -3.8151   7.0000                                         
     4  0  0.50        -4.2551   1.0000                                         
     4  1  1.50        -3.4015   0.0000                                         
     4  3  2.50        -1.3606   0.0000                                         
   Description                                                                  
     l       E           TYP  RCUT    TYP  RCUT                                 
     2     -3.8151135     23  2.300                                             
     2     -5.1756961     23  2.300                                             
     0     -4.2550963     23  2.300                                             
     0      7.2035603     23  2.300                                             
     1     -2.7211652     23  2.300                                             
     1     18.4316424     23  2.300                                             
  local pseudopotential read in
  partial core-charges read in
  partial kinetic energy density read in
  atomic valenz-charges read in
  non local Contribution for L=           2  read in
    real space projection operators read in
  non local Contribution for L=           2  read in
    real space projection operators read in
  non local Contribution for L=           0  read in
    real space projection operators read in
  non local Contribution for L=           0  read in
    real space projection operators read in
  non local Contribution for L=           1  read in
    real space projection operators read in
  non local Contribution for L=           1  read in
    real space projection operators read in
    PAW grid and wavefunctions read in
 
   number of l-projection  operators is LMAX  =           6
   number of lm-projection operators is LMMAX =          18
 
 POTCAR:    PAW_PBE Co 02Aug2007                  
   VRHFIN =Co: d8 s1                                                            
   LEXCH  = PE                                                                  
   EATOM  =   813.3670 eV,   59.7808 Ry                                         
                                                                                
   TITEL  = PAW_PBE Co 02Aug2007                                                
   LULTRA =        F    use ultrasoft PP ?                                      
   IUNSCR =        1    unscreen: 0-lin 1-nonlin 2-no                           
   RPACOR =    2.000    partial core radius                                     
   POMASS =   58.933; ZVAL   =    9.000    mass and valenz                      
   RCORE  =    2.300    outmost cutoff radius                                   
   RWIGS  =    2.460; RWIGS  =    1.302    wigner-seitz radius (au A)           
   ENMAX  =  267.968; ENMIN  =  200.976 eV                                      
   RCLOC  =    1.203    cutoff for local pot                                    
   LCOR   =        T    correct aug charges                                     
   LPAW   =        T    paw PP                                                  
   EAUG   =  477.818                                                            
   DEXC   =    0.000                                                            
   RMAX   =    2.360    core radius for proj-oper                               
   RAUG   =    1.300    factor for augmentation sphere                          
   RDEP   =    2.393    radius for radial grids                                 
   RDEPT  =    1.864    core radius for aug-charge                              
                                                                                
   Atomic configuration                                                         
    9 entries                                                                   
     n  l   j            E        occ.                                          
     1  0  0.50     -7587.6674   2.0000                                         
     2  0  0.50      -893.6084   2.0000                                         
     2  1  1.50      -764.5805   6.0000                                         
     3  0  0.50       -97.5973   2.0000                                         
     3  1  1.50       -60.9648   6.0000                                         
     3  2  2.50        -4.2382   8.0000                                         
     4  0  0.50        -4.3746   1.0000                                         
     4  1  1.50        -4.0817   0.0000                                         
     4  3  2.50        -1.3606   0.0000                                         
   Description                                                                  
     l       E           TYP  RCUT    TYP  RCUT                                 
     2     -4.2382362     23  2.300                                             
     2     -5.5988188     23  2.300                                             
     0     -4.3745797     23  2.300                                             
     0      5.7660125     23  2.300                                             
     1     -2.7211652     23  2.300                                             
     1     16.9860234     23  2.300                                             
  local pseudopotential read in
  partial core-charges read in
  partial kinetic energy density read in
  atomic valenz-charges read in
  non local Contribution for L=           2  read in
    real space projection operators read in
  non local Contribution for L=           2  read in
    real space projection operators read in
  non local Contribution for L=           0  read in
    real space projection operators read in
  non local Contribution for L=           0  read in
    real space projection operators read in
  non local Contribution for L=           1  read in
    real space projection operators read in
  non local Contribution for L=           1  read in
    real space projection operators read in
    PAW grid and wavefunctions read in
 
   number of l-projection  operators is LMAX  =           6
   number of lm-projection operators is LMMAX =          18
 
 POTCAR:    PAW_PBE Cu 22Jun2005                  
   VRHFIN =Cu: d10 p1                                                           
   LEXCH  = PE                                                                  
   EATOM  =  1390.9808 eV,  102.2342 Ry                                         
                                                                                
   TITEL  = PAW_PBE Cu 22Jun2005                                                
   LULTRA =        F    use ultrasoft PP ?                                      
   IUNSCR =        1    unscreen: 0-lin 1-nonlin 2-no                           
   RPACOR =    2.000    partial core radius                                     
   POMASS =   63.546; ZVAL   =   11.000    mass and valenz                      
   RCORE  =    2.300    outmost cutoff radius                                   
   RWIGS  =    2.200; RWIGS  =    1.164    wigner-seitz radius (au A)           
   ENMAX  =  295.446; ENMIN  =  221.585 eV                                      
   ICORE  =        3    local potential                                         
   LCOR   =        T    correct aug charges                                     
   LPAW   =        T    paw PP                                                  
   EAUG   =  586.980                                                            
   DEXC   =    0.000                                                            
   RMAX   =    2.344    core radius for proj-oper                               
   RAUG   =    1.300    factor for augmentation sphere                          
   RDEP   =    2.302    radius for radial grids                                 
   RDEPT  =    1.771    core radius for aug-charge                              
                                                                                
   Atomic configuration                                                         
    9 entries                                                                   
     n  l   j            E        occ.                                          
     1  0  0.50     -8850.2468   2.0000                                         
     2  0  0.50     -1062.3498   2.0000                                         
     2  1  1.50      -916.8226   6.0000                                         
     3  0  0.50      -114.6929   2.0000                                         
     3  1  1.50       -72.1325   6.0000                                         
     3  2  2.50        -5.0394  10.0000                                         
     4  0  0.50        -4.6097   1.0000                                         
     4  1  0.50        -4.0817   0.0000                                         
     4  3  2.50        -1.3606   0.0000                                         
   Description                                                                  
     l       E           TYP  RCUT    TYP  RCUT                                 
     2     -5.0393973     23  2.200                                             
     2     10.8846608     23  2.200                                             
     0     -4.6097109     23  2.200                                             
     0      8.2520465     23  2.200                                             
     1     -2.7211652     23  2.200                                             
     1     21.7055443     23  2.200                                             
     3      2.7211652     23  2.300                                             
  local pseudopotential read in
  partial core-charges read in
  partial kinetic energy density read in
  atomic valenz-charges read in
  non local Contribution for L=           2  read in
    real space projection operators read in
  non local Contribution for L=           2  read in
    real space projection operators read in
  non local Contribution for L=           0  read in
    real space projection operators read in
  non local Contribution for L=           0  read in
    real space projection operators read in
  non local Contribution for L=           1  read in
    real space projection operators read in
  non local Contribution for L=           1  read in
    real space projection operators read in
    PAW grid and wavefunctions read in
 
   number of l-projection  operators is LMAX  =           6
   number of lm-projection operators is LMMAX =          18
 
 POTCAR:    PAW_PBE Ni 02Aug2007                  
   VRHFIN =Ni:                                                                  
   LEXCH  = PE                                                                  
   EATOM  =  1077.6739 eV,   79.2068 Ry                                         
                                                                                
   TITEL  = PAW_PBE Ni 02Aug2007                                                
   LULTRA =        F    use ultrasoft PP ?                                      
   IUNSCR =        1    unscreen: 0-lin 1-nonlin 2-no                           
   RPACOR =    2.000    partial core radius                                     
   POMASS =   58.690; ZVAL   =   10.000    mass and valenz                      
   RCORE  =    2.300    outmost cutoff radius                                   
   RWIGS  =    2.430; RWIGS  =    1.286    wigner-seitz radius (au A)           
   ENMAX  =  269.532; ENMIN  =  202.149 eV                                      
   RCLOC  =    1.201    cutoff for local pot                                    
   LCOR   =        T    correct aug charges                                     
   LPAW   =        T    paw PP                                                  
   EAUG   =  544.565                                                            
   DEXC   =    0.000                                                            
   RMAX   =    2.357    core radius for proj-oper                               
   RAUG   =    1.300    factor for augmentation sphere                          
   RDEP   =    2.390    radius for radial grids                                 
   RDEPT  =    1.838    core radius for aug-charge                              
                                                                                
   Atomic configuration                                                         
    9 entries                                                                   
     n  l   j            E        occ.                                          
     1  0  0.50     -8206.4253   2.0000                                         
     2  0  0.50      -976.1748   2.0000                                         
     2  1  1.50      -839.0571   6.0000                                         
     3  0  0.50      -105.9991   2.0000                                         
     3  1  1.50       -66.4603   6.0000                                         
     3  2  2.50        -4.6458   9.0000                                         
     4  0  0.50        -4.4926   1.0000                                         
     4  1  1.50        -4.0817   0.0000                                         
     4  3  2.50        -1.3606   0.0000                                         
   Description                                                                  
     l       E           TYP  RCUT    TYP  RCUT                                 
     2     -4.6457903     23  2.300                                             
     2     -6.0063729     23  2.300                                             
     0     -4.4925590     23  2.300                                             
     0      5.0102601     23  2.300                                             
     1     -2.7211652     23  2.300                                             
     1     16.5183231     23  2.300                                             
  local pseudopotential read in
  partial core-charges read in
  partial kinetic energy density read in
  atomic valenz-charges read in
  non local Contribution for L=           2  read in
    real space projection operators read in
  non local Contribution for L=           2  read in
    real space projection operators read in
  non local Contribution for L=           0  read in
    real space projection operators read in
  non local Contribution for L=           0  read in
    real space projection operators read in
  non local Contribution for L=           1  read in
    real space projection operators read in
  non local Contribution for L=           1  read in
    real space projection operators read in
    PAW grid and wavefunctions read in
 
   number of l-projection  operators is LMAX  =           6
   number of lm-projection operators is LMMAX =          18
 
 POTCAR:    PAW_PBE H 15Jun2001                   
   VRHFIN =H: ultrasoft test                                                    
   LEXCH  = PE                                                                  
   EATOM  =    12.4884 eV,    0.9179 Ry                                         
                                                                                
   TITEL  = PAW_PBE H 15Jun2001                                                 
   LULTRA =        F    use ultrasoft PP ?                                      
   IUNSCR =        0    unscreen: 0-lin 1-nonlin 2-no                           
   RPACOR =    0.000    partial core radius                                     
   POMASS =    1.000; ZVAL   =    1.000    mass and valenz                      
   RCORE  =    1.100    outmost cutoff radius                                   
   RWIGS  =    0.700; RWIGS  =    0.370    wigner-seitz radius (au A)           
   ENMAX  =  250.000; ENMIN  =  200.000 eV                                      
   RCLOC  =    0.701    cutoff for local pot                                    
   LCOR   =        T    correct aug charges                                     
   LPAW   =        T    paw PP                                                  
   EAUG   =  400.000                                                            
   RMAX   =    1.123    core radius for proj-oper                               
   RAUG   =    1.200    factor for augmentation sphere                          
   RDEP   =    1.112    radius for radial grids                                 
   RDEPT  =    0.926    core radius for aug-charge                              
                                                                                
   Atomic configuration                                                         
    2 entries                                                                   
     n  l   j            E        occ.                                          
     1  0  0.50        -6.4927   1.0000                                         
     2  1  0.50        -3.4015   0.0000                                         
   Description                                                                  
     l       E           TYP  RCUT    TYP  RCUT                                 
     0     -6.4927494     23  1.100                                             
     0      6.8029130     23  1.100                                             
     1     -4.0817478     23  1.100                                             
  local pseudopotential read in
  atomic valenz-charges read in
  non local Contribution for L=           0  read in
    real space projection operators read in
  non local Contribution for L=           0  read in
    real space projection operators read in
  non local Contribution for L=           1  read in
    real space projection operators read in
    PAW grid and wavefunctions read in
 
   number of l-projection  operators is LMAX  =           3
   number of lm-projection operators is LMMAX =           5
 
 Optimization of the real space projectors (new method)

 maximal supplied QI-value         = 14.36
 optimisation between [QCUT,QGAM] = [ 11.92, 23.98] = [ 39.79,161.09] Ry 
 Optimized for a Real-space Cutoff    1.49 Angstroem

   l    n(q)    QCUT    max X(q) W(low)/X(q) W(high)/X(q)  e(spline) 
   2     10    11.920    66.195    0.79E-04    0.18E-03    0.24E-06
   2     10    11.920    64.643    0.81E-04    0.19E-03    0.24E-06
   0     11    11.920    95.520    0.28E-04    0.54E-04    0.18E-06
   0     11    11.920    63.403    0.27E-04    0.52E-04    0.17E-06
   1     10    11.920    19.961    0.18E-04    0.11E-03    0.23E-06
   1     10    11.920    13.289    0.25E-04    0.87E-04    0.19E-06
 Optimization of the real space projectors (new method)

 maximal supplied QI-value         = 16.25
 optimisation between [QCUT,QGAM] = [ 11.86, 23.89] = [ 39.41,159.82] Ry 
 Optimized for a Real-space Cutoff    1.49 Angstroem

   l    n(q)    QCUT    max X(q) W(low)/X(q) W(high)/X(q)  e(spline) 
   2     10    11.864    80.901    0.13E-03    0.23E-03    0.37E-06
   2     10    11.864    75.754    0.13E-03    0.23E-03    0.38E-06
   0     11    11.864    58.752    0.44E-04    0.11E-04    0.20E-06
   0     11    11.864    30.679    0.36E-04    0.10E-04    0.18E-06
   1     10    11.864    17.977    0.31E-04    0.45E-04    0.10E-06
   1     10    11.864    13.559    0.25E-04    0.37E-04    0.89E-07
 Optimization of the real space projectors (new method)

 maximal supplied QI-value         = 16.25
 optimisation between [QCUT,QGAM] = [ 11.86, 23.89] = [ 39.41,159.82] Ry 
 Optimized for a Real-space Cutoff    1.33 Angstroem

   l    n(q)    QCUT    max X(q) W(low)/X(q) W(high)/X(q)  e(spline) 
   2      9    11.864    65.824    0.22E-03    0.53E-03    0.26E-06
   2      9    11.864    61.429    0.22E-03    0.53E-03    0.26E-06
   0      9    11.864    56.174    0.21E-03    0.32E-04    0.15E-06
   0      9    11.864    31.263    0.19E-03    0.30E-04    0.14E-06
   1      9    11.864    19.828    0.63E-04    0.30E-03    0.16E-06
   1      9    11.864    15.139    0.49E-04    0.25E-03    0.13E-06
 Optimization of the real space projectors (new method)

 maximal supplied QI-value         = 16.25
 optimisation between [QCUT,QGAM] = [ 11.86, 23.89] = [ 39.41,159.82] Ry 
 Optimized for a Real-space Cutoff    1.49 Angstroem

   l    n(q)    QCUT    max X(q) W(low)/X(q) W(high)/X(q)  e(spline) 
   2     10    11.864     4.610    0.10E-03    0.20E-03    0.29E-06
   2     10    11.864     8.522    0.17E-03    0.33E-03    0.50E-06
   0     11    11.864    51.609    0.52E-04    0.55E-04    0.33E-06
   0     11    11.864    27.747    0.46E-04    0.52E-04    0.31E-06
   1     10    11.864    20.408    0.54E-04    0.25E-04    0.21E-06
   1     10    11.864    13.425    0.48E-04    0.22E-04    0.18E-06
 Optimization of the real space projectors (new method)

 maximal supplied QI-value         = 16.25
 optimisation between [QCUT,QGAM] = [ 11.86, 23.89] = [ 39.41,159.82] Ry 
 Optimized for a Real-space Cutoff    1.33 Angstroem

   l    n(q)    QCUT    max X(q) W(low)/X(q) W(high)/X(q)  e(spline) 
   2      9    11.864    60.317    0.21E-03    0.51E-03    0.25E-06
   2      9    11.864    55.921    0.21E-03    0.51E-03    0.26E-06
   0      9    11.864    51.690    0.22E-03    0.30E-04    0.17E-06
   0      9    11.864    30.015    0.20E-03    0.28E-04    0.15E-06
   1      9    11.864    18.849    0.76E-04    0.33E-03    0.17E-06
   1      9    11.864    14.624    0.60E-04    0.28E-03    0.15E-06
 Optimization of the real space projectors (new method)

 maximal supplied QI-value         = 34.20
 optimisation between [QCUT,QGAM] = [ 11.97, 23.94] = [ 40.13,160.53] Ry 
 Optimized for a Real-space Cutoff    1.18 Angstroem

   l    n(q)    QCUT    max X(q) W(low)/X(q) W(high)/X(q)  e(spline) 
   0      8    11.971    19.460    0.15E-03    0.31E-03    0.25E-06
   0      8    11.971    12.209    0.13E-03    0.29E-03    0.25E-06
   1      8    11.971     4.655    0.22E-03    0.24E-03    0.21E-06
  PAW_PBE Pt 04Feb2005                  :
 energy of atom  1       EATOM= -729.1176
 kinetic energy error for atom=    0.0021 (will be added to EATOM!!)
  PAW_PBE Fe 06Sep2000                  :
 energy of atom  2       EATOM= -594.3153
 kinetic energy error for atom=    0.0024 (will be added to EATOM!!)
  PAW_PBE Co 02Aug2007                  :
 energy of atom  3       EATOM= -813.3670
 kinetic energy error for atom=    0.0026 (will be added to EATOM!!)
  PAW_PBE Cu 22Jun2005                  :
 energy of atom  4       EATOM=-1390.9808
 kinetic energy error for atom=    0.0036 (will be added to EATOM!!)
  PAW_PBE Ni 02Aug2007                  :
 energy of atom  5       EATOM=-1077.6739
 kinetic energy error for atom=    0.0027 (will be added to EATOM!!)
  PAW_PBE H 15Jun2001                   :
 energy of atom  6       EATOM=  -12.4884
 kinetic energy error for atom=    0.0008 (will be added to EATOM!!)
 
 
 POSCAR: 10.56                                   
  positions in direct lattice
  velocities in cartesian coordinates
 exchange correlation table for  LEXCH =        8
   RHO(1)=    0.500       N(1)  =     2000
   RHO(2)=  100.500       N(2)  =     4000
 


--------------------------------------------------------------------------------------------------------


 ion  position               nearest neighbor table
   1  0.788  0.879  0.318-  28 2.62  49 2.63  19 2.64  33 2.65  59 2.65  61 2.66  60 2.67  29 2.68
                             2 2.71  11 2.77  12 2.84   4 2.86
   2  0.042  0.883  0.317-  79 2.56  77 2.61  60 2.62  30 2.64  28 2.66  52 2.67  33 2.67  22 2.68
                             1 2.71   6 2.80   4 2.89  16 2.96
   3  0.279  0.381  0.320-  39 2.56  64 2.57  33 2.59  31 2.63  19 2.70  43 2.70  30 2.71  68 2.72
                             5 2.78  13 2.80  18 2.82  25 2.84
   4  0.871  0.964  0.427-  81 1.63  17 2.61  11 2.62   9 2.65  12 2.67   6 2.69  16 2.71   1 2.86
                            60 2.86   2 2.89
   5  0.122  0.462  0.428-  16 2.62  12 2.62  10 2.62   7 2.63  13 2.67  25 2.67  39 2.73  33 2.73
                             3 2.78
   6  0.125  0.964  0.424-   8 2.61  10 2.62   9 2.66  14 2.66   4 2.69  16 2.70   2 2.80  52 2.82
                            22 2.88
   7  0.874  0.460  0.427-  15 2.62   9 2.62   5 2.63  12 2.63  10 2.64  27 2.66  39 2.70  75 2.78
                            29 2.81
   8  0.374  0.960  0.420-  43 2.60  14 2.61   6 2.61  27 2.63  13 2.63  11 2.64  10 2.65  52 2.69
                            61 2.72
   9  0.873  0.213  0.420-  81 1.77  15 2.62   7 2.62  17 2.63   4 2.65   6 2.66  10 2.66  75 2.66
                            60 2.71  22 2.80
  10  0.125  0.212  0.423-  13 2.62   6 2.62   5 2.62   7 2.64   8 2.65   9 2.66  39 2.67  43 2.73
                            22 2.79
  11  0.624  0.961  0.424-   4 2.62  13 2.63  27 2.64   8 2.64  12 2.64  17 2.65   1 2.77  19 2.82
                            61 2.83
  12  0.873  0.710  0.426-   5 2.62   7 2.63  27 2.64  11 2.64  16 2.66   4 2.67  33 2.68  29 2.80
                             1 2.84
  13  0.374  0.209  0.425-  10 2.62  11 2.63   8 2.63  17 2.65  25 2.66   5 2.67  43 2.77   3 2.80
                            19 2.83
  14  0.377  0.712  0.423-  27 2.59   8 2.61  15 2.63  25 2.65   6 2.66  16 2.67  44 2.68  30 2.76
                            52 2.76
  15  0.626  0.462  0.423-   9 2.62   7 2.62  27 2.62  14 2.63  25 2.65  17 2.65  44 2.70  75 2.73
                            18 2.76
  16  0.127  0.707  0.430-  25 2.61   5 2.62  12 2.66  14 2.67   6 2.70   4 2.71  33 2.73  30 2.87
                             2 2.96
  17  0.624  0.211  0.422-   4 2.61   9 2.63  25 2.64  11 2.65  13 2.65  15 2.65  18 2.76  60 2.78
                            19 2.86
  18  0.548  0.376  0.317-  67 2.56  60 2.59  75 2.60  44 2.64  68 2.65  26 2.66  30 2.71  19 2.73
                            17 2.76  15 2.76   3 2.82  25 2.88
  19  0.534  0.125  0.315-  80 2.55  43 2.57  68 2.57  59 2.60  61 2.63   1 2.64   3 2.70  18 2.73
                            60 2.75  11 2.82  13 2.83  17 2.86
  20  0.547  0.124  0.040-  37 2.55  57 2.56  48 2.58  62 2.64  63 2.68  47 2.68  45 2.68  56 2.70
                            34 2.71
  21  0.121  0.460  0.128-  40 2.52  36 2.53  47 2.53  42 2.60  69 2.61  64 2.62  70 2.64  50 2.64
                            58 2.67  31 2.70  57 2.71  74 2.72
  22  0.044  0.136  0.314-  65 2.52  55 2.53  77 2.57  43 2.57  39 2.58  75 2.61   2 2.68  60 2.68
                            52 2.73  10 2.79   9 2.80   6 2.88  31 3.40
  23  0.042  0.130  0.033-  70 2.58  40 2.60  41 2.61  45 2.62  62 2.64  76 2.64  24 2.69  35 2.73
                            53 2.78
  24  0.130  0.958  0.132-  79 2.51  77 2.54  35 2.57  53 2.57  55 2.58  70 2.62  38 2.64  58 2.64
                            73 2.65  23 2.69  66 2.70  41 2.72
  25  0.375  0.461  0.426-  16 2.61  17 2.64  15 2.65  14 2.65  13 2.66   5 2.67  30 2.83   3 2.84
                            18 2.88
  26  0.455  0.546  0.219-  73 2.50  74 2.54  51 2.56  79 2.61  64 2.63  30 2.66  18 2.66  68 2.67
                            78 2.67  32 2.68  67 2.72  44 2.75
  27  0.623  0.712  0.424-  14 2.59  15 2.62   8 2.63  11 2.64  12 2.64   7 2.66  44 2.71  61 2.79
                            29 2.79
  28  0.956  0.790  0.221-  58 2.57  66 2.57  50 2.58  42 2.59  49 2.61   1 2.62  64 2.63   2 2.66
                            59 2.70  33 2.72  79 2.76  77 2.77
  29  0.794  0.622  0.319-  39 2.54  42 2.56  75 2.57  32 2.62  44 2.64  33 2.66  61 2.67   1 2.68
                            49 2.69  27 2.79  12 2.80   7 2.81
  30  0.290  0.631  0.319-  79 2.57  64 2.60  52 2.61  44 2.63   2 2.64  33 2.65  26 2.66   3 2.71
                            18 2.71  14 2.76  25 2.83  16 2.87
  31  0.203  0.281  0.225-  70 2.52  55 2.56  65 2.57  43 2.59  57 2.60   3 2.63  39 2.67  80 2.70
                            21 2.70  42 2.71  68 2.75  64 2.79  22 3.40
  32  0.706  0.549  0.221-  54 2.53  69 2.56  51 2.58  49 2.59  42 2.60  29 2.62  78 2.62  65 2.63
                            26 2.68  75 2.69  44 2.69  67 2.70
  33  0.040  0.631  0.326-   3 2.59  39 2.64  30 2.65   1 2.65  29 2.66   2 2.67  12 2.68  64 2.70
                            28 2.72  16 2.73  42 2.73   5 2.73
  34  0.797  0.862  0.042-  50 2.38  66 2.51  48 2.53  36 2.55  71 2.56  63 2.61  20 2.71  35 2.76
                            62 2.76
  35  0.056  0.866  0.038-  58 2.54  72 2.55  36 2.56  24 2.57  66 2.62  53 2.65  23 2.73  62 2.73
                            34 2.76
  36  0.046  0.628  0.037-  21 2.53  34 2.55  35 2.56  58 2.58  50 2.61  47 2.63  72 2.64  40 2.69
                            71 2.72
  37  0.627  0.222  0.129-  51 2.51  74 2.51  67 2.52  56 2.53  41 2.55  20 2.55  68 2.56  59 2.56
                            62 2.59  66 2.66  57 2.73  48 2.89
  38  0.382  0.955  0.130-  53 2.47  80 2.48  45 2.49  78 2.53  48 2.54  73 2.55  63 2.55  54 2.56
                            55 2.59  57 2.62  24 2.64  70 2.67
  39  0.035  0.384  0.325-  29 2.54   3 2.56  75 2.58  22 2.58  33 2.64  42 2.66  10 2.67  31 2.67
                             7 2.70   5 2.73  65 2.76  43 2.79
  40  0.031  0.382  0.038-  69 2.44  21 2.52  71 2.53  76 2.56  70 2.57  23 2.60  36 2.69  45 2.78
                            47 2.78
  41  0.872  0.215  0.128-  76 2.45  65 2.52  77 2.53  67 2.54  37 2.55  69 2.57  62 2.57  51 2.59
                            23 2.61  70 2.65  66 2.66  24 2.72
  42  0.955  0.545  0.224-  50 2.56  29 2.56  28 2.59  21 2.60  32 2.60  69 2.61  49 2.63  65 2.64
                            64 2.65  39 2.66  31 2.71  33 2.73
  43  0.296  0.116  0.321-  55 2.53  52 2.54  61 2.57  19 2.57  22 2.57  31 2.59   8 2.60  80 2.66
                             3 2.70  10 2.73  13 2.77  39 2.79
  44  0.541  0.630  0.322-  61 2.56  52 2.57  78 2.63  30 2.63  29 2.64  18 2.64  75 2.66  14 2.68
                            32 2.69  15 2.70  27 2.71  26 2.75
  45  0.295  0.119  0.039-  70 2.49  38 2.49  57 2.57  53 2.60  23 2.62  63 2.64  20 2.68  47 2.75
                            40 2.78
  46  0.548  0.625  0.044-  51 2.38  73 2.39  54 2.41  71 2.56  53 2.56  63 2.58  76 2.59  56 2.62
                            72 2.64
  47  0.296  0.379  0.039-  74 2.41  21 2.53  57 2.61  72 2.61  56 2.62  36 2.63  20 2.68  45 2.75
                            40 2.78
  48  0.625  0.950  0.132-  49 2.40  80 2.48  54 2.48  34 2.53  38 2.54  59 2.55  50 2.56  63 2.57
                            20 2.58  57 2.65  66 2.68  37 2.89
  49  0.706  0.794  0.220-  48 2.40  50 2.48  54 2.49  80 2.53  32 2.59  28 2.61  78 2.61  61 2.62
                             1 2.63  42 2.63  29 2.69  59 2.69
  50  0.866  0.706  0.129-  34 2.38  71 2.42  54 2.48  49 2.48  42 2.56  48 2.56  69 2.58  28 2.58
                            36 2.61  21 2.64  66 2.76  58 2.85
  51  0.626  0.460  0.127-  46 2.38  76 2.45  37 2.51  56 2.52  26 2.56  32 2.58  41 2.59  73 2.60
                            69 2.62  74 2.62  67 2.63  54 2.69
  52  0.299  0.875  0.318-  55 2.43  78 2.51  61 2.53  79 2.53  43 2.54  44 2.57  30 2.61   2 2.67
                             8 2.69  22 2.73  14 2.76   6 2.82
  53  0.306  0.868  0.040-  73 2.42  38 2.47  63 2.55  46 2.56  24 2.57  45 2.60  72 2.61  35 2.65
                            23 2.78
  54  0.627  0.715  0.128-  46 2.41  71 2.46  50 2.48  48 2.48  63 2.48  49 2.49  32 2.53  38 2.56
                            73 2.56  78 2.62  69 2.68  51 2.69
  55  0.224  0.028  0.227-  52 2.43  78 2.45  79 2.49  80 2.53  22 2.53  43 2.53  31 2.56  24 2.58
                            38 2.59  77 2.72  70 2.72  65 2.86
  56  0.543  0.381  0.035-  74 2.50  51 2.52  37 2.53  72 2.59  76 2.60  46 2.62  47 2.62  20 2.70
                            62 2.70
  57  0.378  0.205  0.133-  68 2.46  80 2.54  20 2.56  45 2.57  31 2.60  47 2.61  38 2.62  74 2.62
                            70 2.64  48 2.65  21 2.71  37 2.73
  58  0.136  0.705  0.132-  72 2.47  64 2.52  35 2.54  79 2.57  28 2.57  36 2.58  74 2.64  24 2.64
                            73 2.67  21 2.67  66 2.76  50 2.85
  59  0.705  0.050  0.220-  66 2.52  48 2.55  37 2.56  68 2.58  67 2.58  19 2.60  60 2.62   1 2.65
                            77 2.66  80 2.67  49 2.69  28 2.70
  60  0.793  0.129  0.317-  67 2.53  77 2.58  18 2.59   2 2.62  59 2.62  75 2.64   1 2.67  22 2.68
                             9 2.71  19 2.75  17 2.78   4 2.86
  61  0.538  0.873  0.317-  78 2.49  52 2.53  80 2.53  44 2.56  43 2.57  49 2.62  19 2.63   1 2.66
                            29 2.67   8 2.72  27 2.79  11 2.83
  62  0.797  0.123  0.035-  66 2.54  41 2.57  37 2.59  23 2.64  20 2.64  76 2.66  56 2.70  35 2.73
                            34 2.76
  63  0.546  0.870  0.036-  54 2.48  53 2.55  38 2.55  48 2.57  46 2.58  34 2.61  71 2.61  45 2.64
                            20 2.68
  64  0.207  0.543  0.224-  58 2.52   3 2.57  30 2.60  21 2.62  26 2.63  28 2.63  68 2.65  42 2.65
                            74 2.68  33 2.70  79 2.72  31 2.79
  65  0.952  0.297  0.221-  41 2.52  69 2.52  22 2.52  67 2.54  77 2.55  31 2.57  70 2.60  75 2.61
                            32 2.63  42 2.64  39 2.76  55 2.86
  66  0.872  0.964  0.129-  34 2.51  59 2.52  62 2.54  28 2.57  77 2.58  35 2.62  37 2.66  41 2.66
                            48 2.68  24 2.70  50 2.76  58 2.76
  67  0.714  0.290  0.223-  37 2.52  77 2.53  60 2.53  65 2.54  41 2.54  18 2.56  59 2.58  51 2.63
                            75 2.63  32 2.70  68 2.70  26 2.72
  68  0.458  0.291  0.221-  57 2.46  74 2.54  37 2.56  19 2.57  59 2.58  64 2.65  18 2.65  26 2.67
                            67 2.70   3 2.72  80 2.73  31 2.75
  69  0.876  0.457  0.128-  40 2.44  71 2.45  76 2.46  65 2.52  32 2.56  41 2.57  50 2.58  21 2.61
                            42 2.61  51 2.62  70 2.65  54 2.68
  70  0.128  0.207  0.129-  45 2.49  31 2.52  40 2.57  23 2.58  65 2.60  24 2.62  57 2.64  21 2.64
                            69 2.65  41 2.65  38 2.67  55 2.72
  71  0.792  0.622  0.040-  50 2.42  69 2.45  54 2.46  40 2.53  46 2.56  34 2.56  76 2.59  63 2.61
                            36 2.72
  72  0.298  0.625  0.042-  74 2.44  58 2.47  73 2.49  35 2.55  56 2.59  53 2.61  47 2.61  36 2.64
                            46 2.64
  73  0.386  0.711  0.129-  46 2.39  53 2.42  72 2.49  26 2.50  78 2.55  38 2.55  54 2.56  51 2.60
                            79 2.63  24 2.65  58 2.67  74 2.76
  74  0.382  0.452  0.126-  47 2.41  72 2.44  56 2.50  37 2.51  68 2.54  26 2.54  51 2.62  57 2.62
                            58 2.64  64 2.68  21 2.72  73 2.76
  75  0.793  0.379  0.320-  29 2.57  39 2.58  18 2.60  22 2.61  65 2.61  67 2.63  60 2.64  44 2.66
                             9 2.66  32 2.69  15 2.73   7 2.78
  76  0.791  0.377  0.039-  51 2.45  41 2.45  69 2.46  40 2.56  71 2.59  46 2.59  56 2.60  23 2.64
                            62 2.66
  77  0.956  0.053  0.221-  67 2.53  41 2.53  24 2.54  65 2.55  22 2.57  66 2.58  60 2.58   2 2.61
                            59 2.66  79 2.71  55 2.72  28 2.77
  78  0.458  0.797  0.224-  55 2.45  80 2.49  61 2.49  52 2.51  38 2.53  73 2.55  79 2.58  49 2.61
                            54 2.62  32 2.62  44 2.63  26 2.67
  79  0.213  0.798  0.225-  55 2.49  24 2.51  52 2.53   2 2.56  58 2.57  30 2.57  78 2.58  26 2.61
                            73 2.63  77 2.71  64 2.72  28 2.76
  80  0.462  0.030  0.222-  38 2.48  48 2.48  78 2.49  61 2.53  55 2.53  49 2.53  57 2.54  19 2.55
                            43 2.66  59 2.67  31 2.70  68 2.73
  81  0.872  0.086  0.472-   4 1.63   9 1.77
 
  LATTYP: Found a hexagonal cell.
 ALAT       =    10.5600004196
 C/A-ratio  =     2.0833332505
  
  Lattice vectors:
  
 A1 = (   5.2800002098,  -9.1452286274,   0.0000000000)
 A2 = ( -10.5600004196,   0.0000000000,   0.0000000000)
 A3 = (   0.0000000000,   0.0000000000, -22.0000000000)


Analysis of symmetry for initial positions (statically):
=====================================================================
 Subroutine PRICEL returns:
 Original cell was already a primitive cell.
 

 Routine SETGRP: Setting up the symmetry group for a 
 hexagonal supercell.


 Subroutine GETGRP returns: Found  1 space group operations
 (whereof  1 operations were pure point group operations)
 out of a pool of 24 trial point group operations.


The static configuration has the point symmetry C_1 .


Analysis of symmetry for dynamics (positions and initial velocities):
=====================================================================
 Subroutine PRICEL returns:
 Original cell was already a primitive cell.
 

 Routine SETGRP: Setting up the symmetry group for a 
 hexagonal supercell.


 Subroutine GETGRP returns: Found  1 space group operations
 (whereof  1 operations were pure point group operations)
 out of a pool of 24 trial point group operations.


The dynamic configuration has the point symmetry C_1 .


Analysis of constrained symmetry for selective dynamics:
=====================================================================
 Subroutine PRICEL returns:
 Original cell was already a primitive cell.
 

 Routine SETGRP: Setting up the symmetry group for a 
 hexagonal supercell.


 Subroutine GETGRP returns: Found  1 space group operations
 (whereof  1 operations were pure point group operations)
 out of a pool of 24 trial point group operations.


The constrained configuration has the point symmetry C_1 .


Analysis of structural, dynamic, and magnetic symmetry:
=====================================================================
 Subroutine PRICEL returns:
 Original cell was already a primitive cell.
 

 Routine SETGRP: Setting up the symmetry group for a 
 hexagonal supercell.


 Subroutine GETGRP returns: Found  1 space group operations
 (whereof  1 operations were pure point group operations)
 out of a pool of 24 trial point group operations.


The magnetic configuration has the point symmetry C_1 .


 Subroutine INISYM returns: Found  1 space group operations
 (whereof  1 operations are pure point group operations),
 and found     1 'primitive' translations

 
 
 KPOINTS: mesh auto                               

Automatic generation of k-mesh.
Space group operators:
 irot       det(A)        alpha          n_x          n_y          n_z        tau_x        tau_y        tau_z
    1     1.000000     0.000001     1.000000     0.000000     0.000000     0.000000     0.000000     0.000000
 
 Subroutine IBZKPT returns following result:
 ===========================================
 
 Found      4 irreducible k-points:
 
 Following reciprocal coordinates:
            Coordinates               Weight
  0.000000  0.000000  0.000000      1.000000
  0.500000  0.000000  0.000000      1.000000
  0.000000  0.500000  0.000000      1.000000
  0.500000  0.500000  0.000000      1.000000
 
 Following cartesian coordinates:
            Coordinates               Weight
  0.000000  0.000000  0.000000      1.000000
  0.047348 -0.027337  0.000000      1.000000
  0.000000  0.054673  0.000000      1.000000
  0.047348  0.027337  0.000000      1.000000
 


--------------------------------------------------------------------------------------------------------




 Dimension of arrays:
   k-points           NKPTS =      4   k-points in BZ     NKDIM =      4   number of bands    NBANDS=    588
   number of dos      NEDOS =    301   number of ions     NIONS =     81
   non local maximal  LDIM  =      6   non local SUM 2l+1 LMDIM =     18
   total plane-waves  NPLWV = ******
   max r-space proj   IRMAX =   7802   max aug-charges    IRDMAX=  33988
   dimension x,y,z NGX =    84 NGY =   84 NGZ =  168
   dimension x,y,z NGXF=   168 NGYF=  168 NGZF=  336
   support grid    NGXF=   168 NGYF=  168 NGZF=  336
   ions per type =              32  13  10  13  12   1
   NGX,Y,Z   is equivalent  to a cutoff of  13.22, 13.22, 12.70 a.u.
   NGXF,Y,Z  is equivalent  to a cutoff of  26.45, 26.45, 25.39 a.u.

 SYSTEM =  Pt111                                   
 POSCAR =  10.56                                   

 Startparameter for this run:
   NWRITE =      2    write-flag & timer
   PREC   = accura    normal or accurate (medium, high low for compatibility)
   ISTART =      0    job   : 0-new  1-cont  2-samecut
   ICHARG =      2    charge: 1-file 2-atom 10-const
   ISPIN  =      2    spin polarized calculation?
   LNONCOLLINEAR =      F non collinear calculations
   LSORBIT =      F    spin-orbit coupling
   INIWAV =      1    electr: 0-lowe 1-rand  2-diag
   LASPH  =      F    aspherical Exc in radial PAW
   METAGGA=      F    non-selfconsistent MetaGGA calc.

 Electronic Relaxation 1
   ENCUT  =  550.0 eV  40.42 Ry    6.36 a.u.  20.19 20.19 42.07*2*pi/ulx,y,z
   ENINI  =  550.0     initial cutoff
   ENAUG  =  587.0 eV  augmentation charge cutoff
   NELM   =    200;   NELMIN=  2; NELMDL= -5     # of ELM steps 
   EDIFF  = 0.1E-04   stopping-criterion for ELM
   LREAL  =      T    real-space projection
   NLSPLINE    = F    spline interpolate recip. space projectors
   LCOMPAT=      F    compatible to vasp.4.4
   GGA_COMPAT  = T    GGA compatible to vasp.4.4-vasp.4.6
   LMAXPAW     = -100 max onsite density
   LMAXMIX     =    2 max onsite mixed and CHGCAR
   VOSKOWN=      0    Vosko Wilk Nusair interpolation
   ROPT   =   -0.00025  -0.00025  -0.00025  -0.00025
   ROPT   =   -0.00025  -0.00025
 Ionic relaxation
   EDIFFG = -.5E-01   stopping-criterion for IOM
   NSW    =    300    number of steps for IOM
   NBLOCK =      1;   KBLOCK =    300    inner block; outer block 
   IBRION =      2    ionic relax: 0-MD 1-quasi-New 2-CG
   NFREE  =      1    steps in history (QN), initial steepest desc. (CG)
   ISIF   =      2    stress and relaxation
   IWAVPR =     11    prediction:  0-non 1-charg 2-wave 3-comb
   ISYM   =      2    0-nonsym 1-usesym 2-fastsym
   LCORR  =      T    Harris-Foulkes like correction to forces

   POTIM  = 0.5000    time-step for ionic-motion
   TEIN   =    0.0    initial temperature
   TEBEG  =    0.0;   TEEND  =   0.0 temperature during run
   SMASS  =  -3.00    Nose mass-parameter (am)
   estimated Nose-frequenzy (Omega)   =  0.10E-29 period in steps =****** mass=  -0.255E-26a.u.
   SCALEE = 1.0000    scale energy and forces
   NPACO  =    256;   APACO  = 16.0  distance and # of slots for P.C.
   PSTRESS=    0.0 pullay stress

  Mass of Ions in am
   POMASS = 195.08 55.85 58.93 63.55 58.69  1.00
  Ionic Valenz
   ZVAL   =  10.00  8.00  9.00 11.00 10.00  1.00
  Atomic Wigner-Seitz radii
   RWIGS  =  -1.00 -1.00 -1.00 -1.00 -1.00 -1.00
  virtual crystal weights 
   VCA    =   1.00  1.00  1.00  1.00  1.00  1.00
   NELECT =     778.0000    total number of electrons
   NUPDOWN=      -1.0000    fix difference up-down

 DOS related values:
   EMIN   =  10.00;   EMAX   =-10.00  energy-range for DOS
   EFERMI =   0.00
   ISMEAR =     1;   SIGMA  =   0.10  broadening in eV -4-tet -1-fermi 0-gaus

 Electronic relaxation 2 (details)
   IALGO  =     68    algorithm
   LDIAG  =      T    sub-space diagonalisation (order eigenvalues)
   LSUBROT=      F    optimize rotation matrix (better conditioning)
   TURBO    =      0    0=normal 1=particle mesh
   IRESTART =      0    0=no restart 2=restart with 2 vectors
   NREBOOT  =      0    no. of reboots
   NMIN     =      0    reboot dimension
   EREF     =   0.00    reference energy to select bands
   IMIX   =      4    mixing-type and parameters
     AMIX     =   0.40;   BMIX     =  1.00
     AMIX_MAG =   1.60;   BMIX_MAG =  1.00
     AMIN     =   0.10
     WC   =   100.;   INIMIX=   1;  MIXPRE=   1;  MAXMIX= -45

 Intra band minimization:
   WEIMIN = 0.0010     energy-eigenvalue tresh-hold
   EBREAK =  0.43E-08  absolut break condition
   DEPER  =   0.30     relativ break condition  

   TIME   =   0.40     timestep for ELM

  volume/ion in A,a.u.               =      26.23       177.01
  Fermi-wavevector in a.u.,A,eV,Ry     =   1.171227  2.213298 18.664091  1.371772
  Thomas-Fermi vector in A             =   2.307674
 
 Write flags
   LWAVE        =      F    write WAVECAR
   LDOWNSAMPLE  =      F    k-point downsampling of WAVECAR
   LCHARG       =      F    write CHGCAR
   LVTOT        =      F    write LOCPOT, total local potential
   LVHAR        =      F    write LOCPOT, Hartree potential only
   LELF         =      F    write electronic localiz. function (ELF)
   LORBIT       =      0    0 simple, 1 ext, 2 COOP (PROOUT), +10 PAW based schemes


 Dipole corrections
   LMONO  =      F    monopole corrections only (constant potential shift)
   LDIPOL =      F    correct potential (dipole corrections)
   IDIPOL =      0    1-x, 2-y, 3-z, 4-all directions 
   EPSILON=  1.0000000 bulk dielectric constant

 Exchange correlation treatment:
   GGA     =    --    GGA type
   LEXCH   =     8    internal setting for exchange type
   VOSKOWN=      0    Vosko Wilk Nusair interpolation
   LHFCALC =     F    Hartree Fock is set to
   LHFONE  =     F    Hartree Fock one center treatment
   AEXX    =    0.0000 exact exchange contribution

 Linear response parameters
   LEPSILON=     F    determine dielectric tensor
   LRPA    =     F    only Hartree local field effects (RPA)
   LNABLA  =     F    use nabla operator in PAW spheres
   LVEL    =     F    velocity operator in full k-point grid
   LINTERFAST=   F  fast interpolation
   KINTER  =     0    interpolate to denser k-point grid
   CSHIFT  =0.1000    complex shift for real part using Kramers Kronig
   OMEGAMAX=  -1.0    maximum frequency
   DEG_THRESHOLD= 0.2000000E-02 threshold for treating states as degnerate
   RTIME   =   -0.100 relaxation time in fs
  (WPLASMAI=    0.000 imaginary part of plasma frequency in eV, 0.658/RTIME)
   DFIELD  = 0.0000000 0.0000000 0.0000000 field for delta impulse in time
 
 Orbital magnetization related:
   ORBITALMAG=     F  switch on orbital magnetization
   LCHIMAG   =     F  perturbation theory with respect to B field
   DQ        =  0.001000  dq finite difference perturbation B field
   LLRAUG    =     F  two centre corrections for induced B field



--------------------------------------------------------------------------------------------------------


 conjugate gradient relaxation of ions
   using selective dynamics as specified on POSCAR
 charge density and potential will be updated during run
 spin polarized calculation
 RMM-DIIS sequential band-by-band and
  variant of blocked Davidson during initial phase
 perform sub-space diagonalisation
    before iterative eigenvector-optimisation
 modified Broyden-mixing scheme, WC =      100.0
 initial mixing is a Kerker type mixing with AMIX =  0.4000 and BMIX =      1.0000
 Hartree-type preconditioning will be used
 using additional bands          199
 real space projection scheme for non local part
 use partial core corrections
 calculate Harris-corrections to forces 
   (improved forces if not selfconsistent)
 use gradient corrections 
 use of overlap-Matrix (Vanderbilt PP)
 Methfessel and Paxton  Order N= 1 SIGMA  =   0.10


--------------------------------------------------------------------------------------------------------


  energy-cutoff  :      550.00
  volume of cell :     2124.62
      direct lattice vectors                 reciprocal lattice vectors
    10.560000420  0.000000000  0.000000000     0.094696966 -0.054673319  0.000000000
     5.280000210  9.145228627  0.000000000     0.000000000  0.109346638  0.000000000
     0.000000000  0.000000000 22.000000000     0.000000000  0.000000000  0.045454545

  length of vectors
    10.560000420 10.560000420 22.000000000     0.109346638  0.109346638  0.045454545


 
 k-points in units of 2pi/SCALE and weight: mesh auto                               
   0.00000000  0.00000000  0.00000000       0.250
   0.04734848 -0.02733666  0.00000000       0.250
   0.00000000  0.05467332  0.00000000       0.250
   0.04734848  0.02733666  0.00000000       0.250
 
 k-points in reciprocal lattice and weights: mesh auto                               
   0.00000000  0.00000000  0.00000000       0.250
   0.50000000  0.00000000  0.00000000       0.250
   0.00000000  0.50000000  0.00000000       0.250
   0.50000000  0.50000000  0.00000000       0.250
 
 position of ions in fractional coordinates (direct lattice) 
   0.78750895  0.87901605  0.31766201
   0.04205571  0.88254567  0.31662543
   0.27918164  0.38057440  0.31970885
   0.87051351  0.96356644  0.42717718
   0.12203156  0.46177458  0.42805299
   0.12536717  0.96353978  0.42375483
   0.87404258  0.45995676  0.42742531
   0.37434312  0.96022829  0.41971922
   0.87251610  0.21334489  0.41984649
   0.12493728  0.21210563  0.42264131
   0.62383071  0.96075842  0.42371543
   0.87327881  0.70980566  0.42573116
   0.37427715  0.20945036  0.42492690
   0.37704708  0.71153466  0.42286320
   0.62552435  0.46168786  0.42267972
   0.12661487  0.70718359  0.42980872
   0.62428194  0.21110707  0.42220110
   0.54824577  0.37580531  0.31712213
   0.53440438  0.12476594  0.31507984
   0.54700026  0.12353325  0.03994180
   0.12080895  0.46017830  0.12803950
   0.04364646  0.13585154  0.31425746
   0.04244149  0.13021000  0.03298030
   0.13048322  0.95798537  0.13183245
   0.37475555  0.46136522  0.42614318
   0.45454095  0.54571928  0.21885182
   0.62265296  0.71161740  0.42429299
   0.95571501  0.79013093  0.22104486
   0.79367503  0.62248975  0.31922221
   0.29049701  0.63126059  0.31858432
   0.20263023  0.28057175  0.22546492
   0.70645161  0.54939058  0.22075077
   0.04043112  0.63096110  0.32562532
   0.79731809  0.86162656  0.04207609
   0.05609859  0.86571859  0.03774080
   0.04641287  0.62819901  0.03699114
   0.62737558  0.22224168  0.12875060
   0.38211413  0.95500403  0.12988305
   0.03522836  0.38366605  0.32452357
   0.03114053  0.38167600  0.03750461
   0.87224044  0.21539432  0.12829500
   0.95471211  0.54518808  0.22389055
   0.29607680  0.11646670  0.32115892
   0.54051582  0.62980180  0.32182031
   0.29525378  0.11938697  0.03940923
   0.54825113  0.62531765  0.04365578
   0.29553136  0.37948250  0.03889216
   0.62548736  0.94995762  0.13208615
   0.70634189  0.79434825  0.22010408
   0.86572308  0.70559157  0.12880862
   0.62619676  0.46010837  0.12710353
   0.29859077  0.87457088  0.31751308
   0.30581838  0.86812735  0.04029659
   0.62671135  0.71465279  0.12827184
   0.22389857  0.02823957  0.22731031
   0.54269301  0.38102257  0.03461701
   0.37824999  0.20530955  0.13259126
   0.13618402  0.70497383  0.13178299
   0.70486941  0.05028396  0.22036332
   0.79276653  0.12940599  0.31709636
   0.53840135  0.87332109  0.31679303
   0.79655062  0.12311547  0.03453465
   0.54614634  0.87048754  0.03589640
   0.20722235  0.54282065  0.22417055
   0.95151324  0.29672189  0.22129229
   0.87185770  0.96385702  0.12897658
   0.71421099  0.29004436  0.22334568
   0.45764413  0.29147175  0.22083053
   0.87581008  0.45650690  0.12794668
   0.12769165  0.20692390  0.12876336
   0.79229095  0.62176839  0.04024823
   0.29784859  0.62540744  0.04208964
   0.38567508  0.71146547  0.12891873
   0.38207648  0.45160905  0.12649526
   0.79319707  0.37894701  0.32024232
   0.79092480  0.37725959  0.03945628
   0.95559961  0.05293444  0.22143250
   0.45755740  0.79715593  0.22440887
   0.21315004  0.79768722  0.22457904
   0.46239859  0.03021630  0.22200270
   0.87237949  0.08617306  0.47195662
 
 position of ions in cartesian coordinates  (Angst):
  12.95729981  8.03880277  6.98856417
   5.10394961  8.07108195  6.96575944
   4.95759111  3.48043992  7.03359479
  14.28025402  8.81203538  9.39789803
   3.72682315  4.22303409  9.41716579
   6.41136760  8.81179159  9.32260619
  11.65846177  4.20640974  9.40335688
   9.02306912  8.78150724  9.23382283
  10.34023149  1.95108780  9.23662275
   2.43925546  1.93975445  9.29810889
  11.66045717  8.78635539  9.32173941
  12.96959865  6.49133508  9.36608555
   5.05826478  1.91547141  9.34839175
   7.73852043  6.50714712  9.30299039
   9.04324938  4.22224104  9.29895379
   5.07098260  6.46735559  9.45579175
   7.70706293  1.93062240  9.28842429
   7.77372763  3.43682546  6.97668677
   6.30207469  1.14101300  6.93175655
   6.42857854  1.12973983  0.87871960
   3.70548407  4.20843578  2.81686897
   1.17820287  1.24239344  6.91366420
   1.13569097  1.19080020  0.72556650
   6.43606578  8.76099519  2.90031393
   6.39342727  4.21929045  9.37514995
   7.68135056  4.99072754  4.81474005
  10.33255556  6.50790378  9.33444579
  14.26424239  7.22592798  4.86298700
  11.66795464  5.69281112  7.02288867
   6.40070462  5.77302243  7.00885514
   3.62119418  2.56589278  4.96022829
  10.36091172  5.02430245  4.85651690
   3.75842739  5.77028348  7.16375696
  12.96906778  7.87977186  0.92567400
   5.16339550  7.91719447  0.83029765
   3.80701088  5.74502359  0.81380505
   7.79852245  2.03245096  2.83251312
   9.07754686  8.73373018  2.85742705
   2.39776831  3.50871371  7.13951851
   2.34409331  3.49051425  0.82510140
  10.34814148  1.96983035  2.82248993
  12.96035349  4.98586960  4.92559202
   3.74151535  1.06511464  7.06549623
   9.03320088  5.75968142  7.08004681
   3.74824325  1.09182115  0.86700304
   9.09120953  5.71867289  0.96042722
   5.12447898  3.47045423  0.85562744
  11.62092318  8.68757958  2.90589533
  11.65312961  7.26449633  4.84228978
  12.86755974  6.45279623  2.83378953
   9.04201027  4.20779619  2.79627770
   7.77085308  7.99815062  6.98528785
   7.81315482  7.93922313  0.88652503
  10.39143898  6.53566319  2.82198042
   2.51347389  0.25825733  5.00082675
   7.74263770  3.48453850  0.76157429
   5.07835445  1.87760273  2.91700770
   5.16036530  6.44714688  2.89922570
   7.70892058  0.45985829  4.84799308
   9.05487850  1.18344734  6.97612002
  10.29665402  7.98672108  6.96944671
   9.06162455  1.12591908  0.75976228
  10.36347996  7.96080760  0.78972076
   5.05436124  4.96421897  4.93175206
  11.61467189  2.71358951  4.86843040
  14.29598293  8.81469279  2.83748465
   9.07350258  2.65252196  4.91360499
   6.37169315  2.66557579  4.85827162
  11.65891135  4.17485993  2.81482702
   2.44098212  1.89236634  2.83279397
  11.64953004  5.68621407  0.88546096
   6.44743266  5.71949403  0.92597203
   7.82926683  6.50651440  2.83621200
   6.41922371  4.13006800  2.78289578
  10.37700171  3.46555707  7.04533098
  10.34409694  3.45012521  0.86803825
  10.37062613  0.48409754  4.87151493
   9.04078979  7.29017323  4.93699507
   6.46265315  7.29503196  4.94073890
   5.04247138  0.27633499  4.88405930
   9.66732161  0.78807237 10.38304564
 


--------------------------------------------------------------------------------------------------------


 k-point  1 :   0.0000 0.0000 0.0000  plane waves:   62167
 k-point  2 :   0.5000 0.0000 0.0000  plane waves:   62242
 k-point  3 :   0.0000 0.5000 0.0000  plane waves:   62242
 k-point  4 :   0.5000 0.5000 0.0000  plane waves:   62242

 maximum and minimum number of plane-waves per node :     15586    15521

 maximum number of plane-waves:     62242
 maximum index in each direction: 
   IXMAX=   20   IYMAX=   20   IZMAX=   42
   IXMIN=  -20   IYMIN=  -20   IZMIN=  -42


 real space projection operators:
  total allocation   :      77804.12 KBytes
  max/ min on nodes  :      19476.27      19432.03


 parallel 3D FFT for wavefunctions:
    minimum data exchange during FFTs selected (reduces bandwidth)
 parallel 3D FFT for charge:
    minimum data exchange during FFTs selected (reduces bandwidth)


 total amount of memory used by VASP MPI-rank0   230613. kBytes
=======================================================================

   base      :      30000. kBytes
   nonlr-proj:      34699. kBytes
   fftplans  :      16129. kBytes
   grid      :      49182. kBytes
   one-center:        653. kBytes
   wavefun   :      99950. kBytes
 
     INWAV:  cpu time    0.0000: real time    0.0003
 Broyden mixing: mesh for mixing (old mesh)
   NGX = 41   NGY = 41   NGZ = 85
  (NGX  =168   NGY  =168   NGZ  =336)
  gives a total of 142885 points

 initial charge density was supplied:
 charge density of overlapping atoms calculated
 number of electron     778.0000000 magnetization     231.0000000
 keeping initial charge density in first step


--------------------------------------------------------------------------------------------------------


 Maximum index for non-local projection operator         1902
 Maximum index for augmentation-charges         1469 (set IRDMAX)


--------------------------------------------------------------------------------------------------------


 First call to EWALD:  gamma=   0.138
 Maximum number of real-space cells 4x 4x 2
 Maximum number of reciprocal cells 2x 2x 4

    FEWALD:  cpu time    0.0040: real time    0.0040


--------------------------------------- Iteration      1(   1)  ---------------------------------------


    POTLOK:  cpu time    0.3645: real time    0.3731
    SETDIJ:  cpu time    0.0330: real time    0.0332
     EDDAV:  cpu time   59.6694: real time   59.8573
       DOS:  cpu time    0.0024: real time    0.0103
    --------------------------------------------
      LOOP:  cpu time   60.0693: real time   60.2739

 eigenvalue-minimisations  :  9408
 total energy-change (2. order) : 0.7902413E+04  (-0.3296666E+05)
 number of electron     778.0000000 magnetization     231.0000000
 augmentation part      778.0000000 magnetization     231.0000000

 Free energy of the ion-electron system (eV)
  ---------------------------------------------------
  alpha Z        PSCENC =      2238.96497515
  Ewald energy   TEWEN  =    223871.35269785
  -Hartree energ DENC   =   -296129.89343948
  -exchange      EXHF   =         0.00000000
  -V(xc)+E(xc)   XCENC  =      1387.91117982
  PAW double counting   =     64136.80006862   -66038.70876209
  entropy T*S    EENTRO =        -0.00043051
  eigenvalues    EBANDS =      8217.33248332
  atomic energy  EATOM  =     70218.65458108
  Solvation  Ediel_sol  =         0.00000000
  ---------------------------------------------------
  free energy    TOTEN  =      7902.41335375 eV

  energy without entropy =     7902.41378427  energy(sigma->0) =     7902.41349726


--------------------------------------------------------------------------------------------------------




--------------------------------------- Iteration      1(   2)  ---------------------------------------


     EDDAV:  cpu time   59.6287: real time   59.8155
       DOS:  cpu time    0.0043: real time    0.1351
    --------------------------------------------
      LOOP:  cpu time   59.6330: real time   59.9506

 eigenvalue-minimisations  :  9408
 total energy-change (2. order) :-0.7044632E+04  (-0.6296044E+04)
 number of electron     778.0000000 magnetization     231.0000000
 augmentation part      778.0000000 magnetization     231.0000000

 Free energy of the ion-electron system (eV)
  ---------------------------------------------------
  alpha Z        PSCENC =      2238.96497515
  Ewald energy   TEWEN  =    223871.35269785
  -Hartree energ DENC   =   -296129.89343948
  -exchange      EXHF   =         0.00000000
  -V(xc)+E(xc)   XCENC  =      1387.91117982
  PAW double counting   =     64136.80006862   -66038.70876209
  entropy T*S    EENTRO =        -0.00099235
  eigenvalues    EBANDS =      1172.70062999
  atomic energy  EATOM  =     70218.65458108
  Solvation  Ediel_sol  =         0.00000000
  ---------------------------------------------------
  free energy    TOTEN  =       857.78093859 eV

  energy without entropy =      857.78193093  energy(sigma->0) =      857.78126937


--------------------------------------------------------------------------------------------------------




--------------------------------------- Iteration      1(   3)  ---------------------------------------


     EDDAV:  cpu time   59.6320: real time   60.0987
       DOS:  cpu time    0.0043: real time   14.4072
    --------------------------------------------
      LOOP:  cpu time   59.6363: real time   74.5058

 eigenvalue-minimisations  :  9408
 total energy-change (2. order) :-0.1230671E+04  (-0.9974236E+03)
 number of electron     778.0000000 magnetization     231.0000000
 augmentation part      778.0000000 magnetization     231.0000000

 Free energy of the ion-electron system (eV)
  ---------------------------------------------------
  alpha Z        PSCENC =      2238.96497515
  Ewald energy   TEWEN  =    223871.35269785
  -Hartree energ DENC   =   -296129.89343948
  -exchange      EXHF   =         0.00000000
  -V(xc)+E(xc)   XCENC  =      1387.91117982
  PAW double counting   =     64136.80006862   -66038.70876209
  entropy T*S    EENTRO =        -0.00336822
  eigenvalues    EBANDS =       -57.96842079
  atomic energy  EATOM  =     70218.65458108
  Solvation  Ediel_sol  =         0.00000000
  ---------------------------------------------------
  free energy    TOTEN  =      -372.89048806 eV

  energy without entropy =     -372.88711984  energy(sigma->0) =     -372.88936532


--------------------------------------------------------------------------------------------------------




--------------------------------------- Iteration      1(   4)  ---------------------------------------


     EDDAV:  cpu time   70.8832: real time   71.1953
       DOS:  cpu time    0.0031: real time    0.0061
    --------------------------------------------
      LOOP:  cpu time   70.8863: real time   71.2014

 eigenvalue-minimisations  : 11748
 total energy-change (2. order) :-0.1194311E+03  (-0.1096917E+03)
 number of electron     778.0000000 magnetization     231.0000000
 augmentation part      778.0000000 magnetization     231.0000000

 Free energy of the ion-electron system (eV)
  ---------------------------------------------------
  alpha Z        PSCENC =      2238.96497515
  Ewald energy   TEWEN  =    223871.35269785
  -Hartree energ DENC   =   -296129.89343948
  -exchange      EXHF   =         0.00000000
  -V(xc)+E(xc)   XCENC  =      1387.91117982
  PAW double counting   =     64136.80006862   -66038.70876209
  entropy T*S    EENTRO =         0.00763482
  eigenvalues    EBANDS =      -177.41054939
  atomic energy  EATOM  =     70218.65458108
  Solvation  Ediel_sol  =         0.00000000
  ---------------------------------------------------
  free energy    TOTEN  =      -492.32161363 eV

  energy without entropy =     -492.32924845  energy(sigma->0) =     -492.32415857


--------------------------------------------------------------------------------------------------------




--------------------------------------- Iteration      1(   5)  ---------------------------------------


     EDDAV:  cpu time   68.0458: real time   68.2564
       DOS:  cpu time    0.0030: real time    0.0036
    CHARGE:  cpu time    3.6963: real time    3.7064
    MIXING:  cpu time    0.0103: real time    0.0106
    --------------------------------------------
      LOOP:  cpu time   71.7555: real time   71.9770

 eigenvalue-minimisations  : 11172
 total energy-change (2. order) :-0.4420613E+01  (-0.4387221E+01)
 number of electron     778.0000034 magnetization     216.2985044
 augmentation part      335.0423690 magnetization     184.7981158

 Broyden mixing:
  rms(total) = 0.11870E+02    rms(broyden)= 0.11870E+02
  rms(prec ) = 0.12165E+02
  weight for this iteration     100.00

 Free energy of the ion-electron system (eV)
  ---------------------------------------------------
  alpha Z        PSCENC =      2238.96497515
  Ewald energy   TEWEN  =    223871.35269785
  -Hartree energ DENC   =   -296129.89343948
  -exchange      EXHF   =         0.00000000
  -V(xc)+E(xc)   XCENC  =      1387.91117982
  PAW double counting   =     64136.80006862   -66038.70876209
  entropy T*S    EENTRO =         0.00633078
  eigenvalues    EBANDS =      -181.82985791
  atomic energy  EATOM  =     70218.65458108
  Solvation  Ediel_sol  =         0.00000000
  ---------------------------------------------------
  free energy    TOTEN  =      -496.74222618 eV

  energy without entropy =     -496.74855696  energy(sigma->0) =     -496.74433644


--------------------------------------------------------------------------------------------------------




--------------------------------------- Iteration      1(   6)  ---------------------------------------


    POTLOK:  cpu time    0.3473: real time    0.3772
    SETDIJ:  cpu time    0.0320: real time    0.0320
    EDDIAG:  cpu time   10.5744: real time   10.6033
  RMM-DIIS:  cpu time   36.8992: real time   36.9982
    ORTHCH:  cpu time    1.2114: real time   10.9448
       DOS:  cpu time    0.0025: real time    0.0025
    CHARGE:  cpu time    3.5699: real time    3.5818
    MIXING:  cpu time    0.0107: real time    0.0118
    --------------------------------------------
      LOOP:  cpu time   52.6474: real time   62.5517

 eigenvalue-minimisations  :  9512
 total energy-change (2. order) :-0.1243850E+03  (-0.8897739E+02)
 number of electron     778.0000039 magnetization     212.0110515
 augmentation part      405.4818217 magnetization     179.3494860

 Broyden mixing:
  rms(total) = 0.18943E+02    rms(broyden)= 0.18943E+02
  rms(prec ) = 0.24411E+02
  weight for this iteration     100.00

 eigenvalues of (default mixing * dielectric matrix)
  average eigenvalue GAMMA=   0.2402
  0.2402

 Free energy of the ion-electron system (eV)
  ---------------------------------------------------
  alpha Z        PSCENC =      2238.96497515
  Ewald energy   TEWEN  =    223871.35269785
  -Hartree energ DENC   =   -294524.93449607
  -exchange      EXHF   =         0.00000000
  -V(xc)+E(xc)   XCENC  =      1343.32747798
  PAW double counting   =     69314.16105401   -71012.98194093
  entropy T*S    EENTRO =         0.01425554
  eigenvalues    EBANDS =     -2069.68581551
  atomic energy  EATOM  =     70218.65458108
  Solvation  Ediel_sol  =         0.00000000
  ---------------------------------------------------
  free energy    TOTEN  =      -621.12721092 eV

  energy without entropy =     -621.14146646  energy(sigma->0) =     -621.13196276


--------------------------------------------------------------------------------------------------------




--------------------------------------- Iteration      1(   7)  ---------------------------------------


    POTLOK:  cpu time    0.3620: real time    0.4406
    SETDIJ:  cpu time    0.0317: real time    0.0318
    EDDIAG:  cpu time   10.6252: real time   10.6536
  RMM-DIIS:  cpu time   36.5105: real time   36.6518
    ORTHCH:  cpu time    1.1984: real time   29.1970
       DOS:  cpu time    0.0027: real time    0.0027
    CHARGE:  cpu time    3.6438: real time    3.6655
    MIXING:  cpu time    0.0114: real time    0.0117
    --------------------------------------------
      LOOP:  cpu time   52.3858: real time   80.6548

 eigenvalue-minimisations  :  9422
 total energy-change (2. order) : 0.6622152E+02  (-0.1689769E+02)
 number of electron     778.0000036 magnetization     207.3508676
 augmentation part      363.6141750 magnetization     164.9859549

 Broyden mixing:
  rms(total) = 0.16175E+02    rms(broyden)= 0.16175E+02
  rms(prec ) = 0.22050E+02
  weight for this iteration     100.00

 eigenvalues of (default mixing * dielectric matrix)
  average eigenvalue GAMMA=   0.2747
  0.3875  0.1619

 Free energy of the ion-electron system (eV)
  ---------------------------------------------------
  alpha Z        PSCENC =      2238.96497515
  Ewald energy   TEWEN  =    223871.35269785
  -Hartree energ DENC   =   -295227.79851072
  -exchange      EXHF   =         0.00000000
  -V(xc)+E(xc)   XCENC  =      1364.21769245
  PAW double counting   =     70431.67680078   -72295.50954752
  entropy T*S    EENTRO =         0.01139404
  eigenvalues    EBANDS =     -1156.47577079
  atomic energy  EATOM  =     70218.65458108
  Solvation  Ediel_sol  =         0.00000000
  ---------------------------------------------------
  free energy    TOTEN  =      -554.90568769 eV

  energy without entropy =     -554.91708172  energy(sigma->0) =     -554.90948570


--------------------------------------------------------------------------------------------------------




--------------------------------------- Iteration      1(   8)  ---------------------------------------


    POTLOK:  cpu time    0.3501: real time    0.3523
    SETDIJ:  cpu time    0.0319: real time    0.0320
    EDDIAG:  cpu time   10.5677: real time   10.6259
  RMM-DIIS:  cpu time   36.5456: real time   36.6434
    ORTHCH:  cpu time    1.2008: real time   28.3980
       DOS:  cpu time    0.0026: real time    0.0026
    CHARGE:  cpu time    3.5334: real time    3.5486
    MIXING:  cpu time    0.0118: real time    0.0122
    --------------------------------------------
      LOOP:  cpu time   52.2440: real time   79.6151

 eigenvalue-minimisations  :  9422
 total energy-change (2. order) : 0.7652269E+02  (-0.9405723E+01)
 number of electron     778.0000036 magnetization     200.1902929
 augmentation part      369.7950267 magnetization     162.1047129

 Broyden mixing:
  rms(total) = 0.16122E+02    rms(broyden)= 0.16122E+02
  rms(prec ) = 0.18899E+02
  weight for this iteration     100.00

 eigenvalues of (default mixing * dielectric matrix)
  average eigenvalue GAMMA=   0.3079
  0.5866  0.2557  0.0812

 Free energy of the ion-electron system (eV)
  ---------------------------------------------------
  alpha Z        PSCENC =      2238.96497515
  Ewald energy   TEWEN  =    223871.35269785
  -Hartree energ DENC   =   -295521.22809260
  -exchange      EXHF   =         0.00000000
  -V(xc)+E(xc)   XCENC  =      1368.93948001
  PAW double counting   =     71665.50946874   -73596.63001383
  entropy T*S    EENTRO =         0.01162500
  eigenvalues    EBANDS =      -723.95772138
  atomic energy  EATOM  =     70218.65458108
  Solvation  Ediel_sol  =         0.00000000
  ---------------------------------------------------
  free energy    TOTEN  =      -478.38300000 eV

  energy without entropy =     -478.39462500  energy(sigma->0) =     -478.38687500


--------------------------------------------------------------------------------------------------------




--------------------------------------- Iteration      1(   9)  ---------------------------------------


    POTLOK:  cpu time    0.3442: real time    0.3716
    SETDIJ:  cpu time    0.0318: real time    0.0320
    EDDIAG:  cpu time   10.5708: real time   10.6018
  RMM-DIIS:  cpu time   36.6228: real time   36.7377
    ORTHCH:  cpu time    1.2071: real time   21.8779
       DOS:  cpu time    0.0028: real time    0.0028
    CHARGE:  cpu time    3.5736: real time    3.5832
    MIXING:  cpu time    0.0110: real time    0.0112
    --------------------------------------------
      LOOP:  cpu time   52.3641: real time   73.2182

 eigenvalue-minimisations  :  9441
 total energy-change (2. order) : 0.1118287E+03  (-0.1449329E+02)
 number of electron     778.0000035 magnetization     191.5638509
 augmentation part      371.6260181 magnetization     145.6149205

 Broyden mixing:
  rms(total) = 0.11885E+02    rms(broyden)= 0.11885E+02
  rms(prec ) = 0.13794E+02
  weight for this iteration     100.00

 eigenvalues of (default mixing * dielectric matrix)
  average eigenvalue GAMMA=   0.3718
  0.9016  0.3437  0.1540  0.0881

 Free energy of the ion-electron system (eV)
  ---------------------------------------------------
  alpha Z        PSCENC =      2238.96497515
  Ewald energy   TEWEN  =    223871.35269785
  -Hartree energ DENC   =   -295232.56530021
  -exchange      EXHF   =         0.00000000
  -V(xc)+E(xc)   XCENC  =      1384.97503051
  PAW double counting   =     73165.82426401   -75148.17412539
  entropy T*S    EENTRO =        -0.00464142
  eigenvalues    EBANDS =      -865.58174060
  atomic energy  EATOM  =     70218.65458108
  Solvation  Ediel_sol  =         0.00000000
  ---------------------------------------------------
  free energy    TOTEN  =      -366.55425903 eV

[...]
   0.524E+01 0.431E+02 -.294E+04   -.500E+01 -.426E+02 0.294E+04   -.252E+00 -.416E+00 -.126E+01   0.284E-01 -.505E-01 0.838E-02
   -.952E+01 0.450E+01 -.292E+04   0.907E+01 -.422E+01 0.292E+04   0.459E+00 -.325E+00 0.141E+01   -.180E-01 0.681E-01 0.625E-01
   -.182E+01 0.560E+01 -.288E+04   0.251E+01 -.623E+01 0.288E+04   -.661E+00 0.641E+00 0.131E+01   -.377E-01 -.264E-01 0.169E-01
   -.247E+02 -.140E+02 -.294E+04   0.247E+02 0.135E+02 0.294E+04   0.547E-01 0.503E+00 0.135E+01   0.440E-01 0.267E-01 0.265E-01
   0.115E+02 -.161E+02 -.292E+04   -.118E+02 0.162E+02 0.292E+04   0.312E+00 -.111E+00 0.178E+01   -.337E-01 -.288E-01 0.810E-01
   -.293E+02 -.581E+01 -.294E+04   0.293E+02 0.615E+01 0.294E+04   -.710E-02 -.378E+00 -.197E+00   0.158E-01 -.327E-02 -.403E-02
   -.133E+02 -.981E+00 -.289E+04   0.139E+02 0.130E+01 0.289E+04   -.435E+00 -.360E+00 0.153E+01   -.283E-01 0.497E-01 0.634E-01
   -.230E+01 -.267E+01 -.293E+04   0.238E+01 0.244E+01 0.293E+04   -.164E+00 0.220E+00 0.697E+00   0.377E-01 -.442E-01 0.763E-01
   -.606E+01 0.103E+02 -.291E+04   0.642E+01 -.104E+02 0.291E+04   -.397E+00 0.724E-01 0.106E+01   0.436E-01 -.386E-01 0.692E-01
   0.536E+01 -.214E+02 -.293E+04   -.566E+01 0.211E+02 0.292E+04   0.322E+00 0.263E+00 0.797E+00   -.280E-01 0.423E-01 0.814E-01
   0.195E+02 0.821E+01 -.293E+04   -.190E+02 -.812E+01 0.293E+04   -.401E+00 -.118E+00 0.132E+01   -.611E-01 -.149E-01 0.553E-01
   0.222E+02 -.150E+02 -.292E+04   -.219E+02 0.154E+02 0.292E+04   -.324E+00 -.333E+00 0.125E+01   0.112E-01 0.108E-01 0.448E-01
   -.299E+01 0.315E+01 -.291E+04   0.271E+01 -.366E+01 0.290E+04   0.302E+00 0.502E+00 0.980E+00   -.228E-01 -.231E-01 0.445E-01
   0.319E+02 -.115E+02 -.290E+04   -.325E+02 0.120E+02 0.290E+04   0.526E+00 -.578E+00 0.127E+01   0.371E-01 0.242E-02 0.476E-01
   0.682E+02 -.712E+02 -.153E+04   -.669E+02 0.714E+02 0.153E+04   -.130E+01 -.142E+00 0.167E+01   0.166E-01 0.327E-03 0.164E-01
   0.274E+02 -.410E+02 -.152E+04   -.286E+02 0.405E+02 0.152E+04   0.108E+01 0.465E+00 0.243E+01   0.607E-01 0.418E-01 0.406E-01
   0.332E+02 0.317E+02 0.304E+04   -.334E+02 -.319E+02 -.303E+04   0.121E+00 0.183E+00 -.240E+01   0.154E-01 0.247E-01 -.402E-01
   0.356E+02 -.834E+01 0.160E+04   -.365E+02 0.905E+01 -.160E+04   0.912E+00 -.660E+00 0.913E+00   0.190E-01 0.666E-02 -.112E+00
   -.665E+02 0.960E+01 -.149E+04   0.673E+02 -.887E+01 0.149E+04   -.677E+00 -.743E+00 0.257E+01   -.729E-01 0.402E-01 0.644E-01
   -.540E+02 0.512E+02 0.309E+04   0.547E+02 -.503E+02 -.309E+04   -.702E+00 -.870E+00 -.208E+01   -.311E-01 0.340E-01 -.365E-01
   0.275E+00 -.533E+02 0.159E+04   0.396E-01 0.528E+02 -.159E+04   -.306E+00 0.432E+00 -.799E+00   -.728E-01 0.533E-01 -.121E+00
   0.119E+02 0.959E+00 -.292E+04   -.120E+02 -.954E+00 0.292E+04   0.166E+00 -.824E-01 0.681E+00   -.411E-01 0.814E-01 0.514E-01
   -.238E+02 -.791E+01 0.901E+01   0.237E+02 0.824E+01 -.102E+02   0.193E-01 -.285E+00 0.123E+01   0.177E-01 -.942E-01 -.777E-01
   -.109E+02 0.876E+01 -.294E+04   0.104E+02 -.886E+01 0.293E+04   0.467E+00 0.181E+00 0.118E+01   0.371E-01 -.345E-01 0.821E-01
   0.216E+02 0.622E+02 0.305E+01   -.226E+02 -.633E+02 -.331E+01   0.102E+01 0.109E+01 0.274E+00   0.356E-01 0.160E-01 -.397E-01
   -.658E+02 0.772E+01 -.149E+04   0.661E+02 -.880E+01 0.149E+04   -.357E+00 0.124E+01 0.285E+01   0.360E-01 -.806E-01 0.120E+00
   0.276E+02 0.275E+02 -.154E+04   -.274E+02 -.267E+02 0.154E+04   -.294E+00 -.731E+00 0.236E+01   -.337E-01 -.943E-02 0.129E+00
   0.205E+02 -.623E+02 -.772E+02   -.215E+02 0.616E+02 0.776E+02   0.103E+01 0.525E+00 -.297E+00   -.167E-02 0.868E-01 -.516E-01
   -.232E+02 -.207E+02 0.329E+01   0.240E+02 0.215E+02 -.394E+01   -.821E+00 -.794E+00 0.729E+00   -.374E-01 -.102E+00 -.819E-01
   0.191E+02 0.128E+02 -.125E+04   -.192E+02 -.131E+02 0.124E+04   0.139E+00 0.420E+00 0.504E+00   0.108E-01 -.138E-01 0.980E-01
   -.598E+02 -.281E+01 0.244E+04   0.602E+02 0.152E+01 -.244E+04   -.402E+00 0.132E+01 -.272E+01   -.684E-02 -.159E-01 -.270E-01
   0.306E+02 -.142E+02 0.247E+04   -.305E+02 0.128E+02 -.247E+04   -.426E-01 0.148E+01 -.231E+01   -.223E-01 -.924E-02 -.400E-01
   0.229E+02 -.407E+01 0.247E+04   -.231E+02 0.467E+01 -.247E+04   0.160E+00 -.633E+00 -.283E+01   -.303E-02 -.110E-01 -.254E-01
   0.650E+01 0.524E+02 0.129E+04   -.566E+01 -.518E+02 -.129E+04   -.917E+00 -.709E+00 -.166E+00   0.264E-01 0.379E-01 -.657E-01
   0.335E+02 -.544E+02 0.128E+04   -.334E+02 0.541E+02 -.128E+04   -.123E+00 0.229E+00 -.422E+00   0.298E-01 -.664E-02 -.121E+00
   -.540E+02 -.241E+02 -.123E+04   0.542E+02 0.242E+02 0.123E+04   -.141E+00 -.197E+00 0.767E+00   -.203E-01 0.351E-01 0.692E-01
   -.932E+02 0.206E+02 0.248E+04   0.930E+02 -.203E+02 -.248E+04   0.263E+00 -.264E+00 -.265E+01   -.957E-02 0.228E-01 -.253E-01
   -.332E+02 0.464E+02 0.130E+04   0.324E+02 -.459E+02 -.130E+04   0.810E+00 -.537E+00 -.413E+00   -.306E-01 0.308E-01 -.486E-01
   -.420E+02 0.187E+01 -.441E+02   0.417E+02 -.142E+01 0.441E+02   0.195E+00 -.443E+00 -.110E+00   0.170E-01 -.432E-01 -.235E-01
   0.144E+02 -.795E+02 -.125E+04   -.145E+02 0.794E+02 0.125E+04   0.171E+00 0.164E+00 0.116E+01   -.330E-01 0.275E-01 0.764E-01
   0.126E+02 0.292E+02 -.123E+04   -.127E+02 -.292E+02 0.123E+04   0.113E+00 -.547E-01 0.427E+00   -.128E-01 -.261E-01 0.593E-01
   0.146E+02 -.465E+02 0.245E+04   -.153E+02 0.457E+02 -.245E+04   0.672E+00 0.714E+00 -.274E+01   0.175E-01 0.262E-01 -.463E-01
   0.429E+01 -.196E+02 0.275E+04   -.440E+01 0.198E+02 -.275E+04   0.770E-01 -.188E+00 -.230E+01   0.258E-01 -.519E-01 -.283E-01
   0.119E+03 0.292E+02 0.279E+04   -.120E+03 -.285E+02 -.279E+04   0.443E+00 -.689E+00 -.238E+01   0.246E-01 0.190E-01 -.272E-01
   -.370E+02 -.277E+02 0.142E+04   0.364E+02 0.266E+02 -.142E+04   0.449E+00 0.110E+01 -.429E+00   0.350E-01 0.116E-01 -.155E+00
   -.623E+02 0.652E+02 0.199E+02   0.622E+02 -.651E+02 -.207E+02   0.859E-02 -.173E+00 0.864E+00   0.276E-01 -.288E-01 -.792E-01
   -.884E+02 0.185E+02 0.141E+04   0.879E+02 -.180E+02 -.141E+04   0.506E+00 -.485E+00 -.121E+00   0.416E-02 -.205E-01 -.150E+00
   -.211E+02 0.996E+01 0.139E+04   0.212E+02 -.102E+02 -.139E+04   -.136E+00 0.267E+00 -.880E-01   0.970E-02 -.181E-01 -.982E-01
   0.439E+02 0.698E+01 -.139E+04   -.437E+02 -.714E+01 0.139E+04   -.246E+00 0.249E+00 0.153E+01   -.462E-01 -.336E-01 0.129E+00
   0.529E+02 -.807E+02 0.276E+04   -.526E+02 0.806E+02 -.276E+04   -.341E+00 0.189E+00 -.242E+01   0.114E-01 -.348E-01 -.668E-01
   -.140E+02 0.191E+01 0.138E+04   0.142E+02 -.159E+01 -.138E+04   -.794E-01 -.244E+00 -.397E+00   -.215E-02 -.746E-01 -.165E+00
   0.185E+02 -.689E+02 -.181E+02   -.176E+02 0.683E+02 0.184E+02   -.834E+00 0.665E+00 -.312E+00   -.554E-01 0.385E-01 -.184E-01
   0.307E+02 0.341E+02 0.344E+04   -.308E+02 -.333E+02 -.344E+04   0.102E+00 -.844E+00 -.359E+01   0.102E-01 0.328E-01 -.198E-02
   0.627E+02 0.899E+01 0.174E+04   -.629E+02 -.973E+01 -.174E+04   0.119E+00 0.701E+00 -.174E+00   0.416E-01 0.680E-01 -.136E+00
   0.102E+03 -.321E+02 0.172E+04   -.102E+03 0.322E+02 -.172E+04   -.212E+00 0.115E-01 0.200E-01   -.441E-01 -.536E-01 -.141E+00
   0.108E+02 0.706E+02 0.773E+02   -.115E+02 -.706E+02 -.779E+02   0.641E+00 -.161E+00 0.806E+00   0.101E+00 0.731E-01 -.761E-01
   0.889E+01 0.586E+02 -.173E+04   -.828E+01 -.584E+02 0.173E+04   -.679E+00 -.291E+00 0.175E+01   0.500E-01 0.982E-02 0.225E-01
   -.397E+02 0.313E+02 -.167E+04   0.388E+02 -.309E+02 0.167E+04   0.100E+01 -.280E+00 0.243E+01   -.221E-01 -.445E-01 0.133E+00
   -.722E+01 0.996E+02 0.339E+04   0.731E+01 -.100E+03 -.339E+04   -.128E+00 0.420E+00 -.287E+01   -.557E-02 0.300E-01 -.217E-01
   -.165E+02 -.779E+02 0.342E+04   0.157E+02 0.777E+02 -.341E+04   0.894E+00 0.324E+00 -.265E+01   0.299E-01 -.541E-01 -.471E-01
   0.107E+03 0.725E+01 -.701E+02   -.107E+03 -.699E+01 0.703E+02   0.158E-01 -.324E+00 -.256E+00   -.314E-02 -.434E-01 -.389E-01
   -.112E+03 -.418E+02 0.396E+02   0.112E+03 0.415E+02 -.396E+02   0.369E+00 0.214E+00 0.483E-01   -.769E-01 0.103E-01 -.397E-01
   -.130E+02 0.527E+02 0.181E+04   0.126E+02 -.522E+02 -.181E+04   0.426E+00 -.562E+00 -.597E+00   -.867E-03 0.358E-01 -.839E-01
   0.587E+01 -.713E+02 0.444E+02   -.556E+01 0.702E+02 -.451E+02   -.310E+00 0.121E+01 0.697E+00   0.285E-01 -.570E-02 -.767E-01
   0.542E+02 -.351E+02 0.319E+01   -.536E+02 0.346E+02 -.339E+01   -.618E+00 0.417E+00 0.344E+00   0.453E-01 0.542E-01 -.847E-01
   -.730E+02 0.129E+01 0.155E+04   0.726E+02 -.116E+01 -.155E+04   0.405E+00 -.678E-01 -.110E+00   -.536E-01 0.231E-02 -.116E+00
   -.122E+02 0.197E+02 0.162E+04   0.125E+02 -.200E+02 -.162E+04   -.352E+00 0.224E+00 -.456E+00   -.324E-01 0.574E-01 -.106E+00
   -.101E+03 -.433E+01 0.308E+04   0.101E+03 0.441E+01 -.308E+04   -.536E+00 -.372E-01 -.131E+01   -.300E-01 -.650E-02 -.191E-01
   0.701E+02 -.524E+02 0.309E+04   -.705E+02 0.531E+02 -.308E+04   0.362E+00 -.571E+00 -.860E+00   0.611E-02 -.626E-01 -.496E-01
   0.146E+02 -.404E+02 0.155E+04   -.143E+02 0.403E+02 -.155E+04   -.418E+00 0.235E+00 0.977E-02   0.433E-01 -.106E+00 -.153E+00
   0.508E+02 0.248E+01 0.159E+04   -.504E+02 -.246E+01 -.159E+04   -.481E+00 0.522E-01 -.112E+00   0.222E-01 -.210E-01 -.111E+00
   -.368E+02 -.644E+02 -.156E+04   0.368E+02 0.643E+02 0.156E+04   0.110E+00 0.155E+00 0.718E+00   0.272E-01 -.235E-01 0.411E-01
   -.539E+02 0.296E+02 0.307E+04   0.544E+02 -.291E+02 -.307E+04   -.429E+00 -.603E+00 -.194E+01   -.302E-01 0.378E-01 -.201E-02
   -.425E+02 0.715E+02 0.721E+02   0.430E+02 -.713E+02 -.721E+02   -.367E+00 -.322E+00 0.251E-02   -.678E-01 0.663E-01 -.401E-01
   -.832E+00 0.611E+02 -.228E+01   0.766E+00 -.602E+02 0.228E+01   0.118E+00 -.866E+00 -.657E-01   -.688E-02 -.753E-01 -.380E-01
   0.470E+02 0.358E+01 -.322E+02   -.465E+02 -.296E+01 0.321E+02   -.427E+00 -.607E+00 0.659E-01   -.514E-01 -.215E-01 0.299E-02
   0.239E+02 -.493E+02 0.336E+02   -.242E+02 0.488E+02 -.337E+02   0.278E+00 0.476E+00 0.113E+00   0.384E-01 0.591E-01 -.837E-01
   -.265E+01 -.312E+01 -.351E+03   0.283E+01 0.345E+01 0.353E+03   -.172E+00 -.333E+00 -.196E+01   0.529E-03 -.388E-02 0.107E-02
 -----------------------------------------------------------------------------------------------
   -.153E+01 0.162E-01 -.235E+01   -.319E-12 -.320E-12 -.210E-11   0.154E+01 -.135E-01 0.349E+01   -.100E-01 -.190E-01 -.114E+01
 
 
 POSITION                                       TOTAL-FORCE (eV/Angst)
 -----------------------------------------------------------------------------------
     12.97014      8.04642      7.00752         0.012393     -0.012471     -0.005635
      5.09897      8.07779      6.94850        -0.004397     -0.003340     -0.000143
      4.96391      3.47808      7.03282        -0.000598      0.002708      0.001876
     14.30014      8.77827      9.48840         0.006928      0.008467      0.001316
      3.73177      4.22243      9.41557         0.001064      0.005187     -0.007611
      6.41109      8.77786      9.24845        -0.015025      0.009279      0.003016
     11.65769      4.19924      9.36660         0.010874     -0.005251      0.007308
      9.02571      8.77782      9.25117         0.015885      0.000316      0.000227
     10.35538      1.93795      9.38962        -0.007530     -0.028523      0.010759
      2.44680      1.93189      9.29292         0.010054     -0.015196      0.005292
     11.65606      8.78020      9.32934        -0.007955     -0.016178      0.002290
     12.98610      6.49827      9.38015        -0.002832     -0.002521     -0.007859
      5.06042      1.90828      9.36166        -0.016286     -0.004290     -0.011210
      7.72552      6.50734      9.33404        -0.005995     -0.023272     -0.011858
      9.03999      4.22357      9.29479        -0.016529      0.007240      0.005528
      5.06716      6.48813      9.37447         0.013193     -0.022378     -0.003965
      7.69439      1.92866      9.25586         0.006999     -0.007710      0.018918
      7.77666      3.43632      6.97418         0.006496      0.009165     -0.008808
      6.30141      1.13480      6.93034         0.011254     -0.000512     -0.005763
      6.42858      1.12974      0.87872        -0.015361     -0.004289     -0.005537
      3.70548      4.20844      2.81687         0.009098      0.004941     -0.032850
      1.16202      1.25803      6.91681         0.001259      0.002022     -0.000339
      1.13569      1.19080      0.72557        -0.009012      0.009757     -0.002235
      6.43607      8.76100      2.90031        -0.016205      0.018712      0.007586
      6.39396      4.21865      9.38795         0.002059      0.016513     -0.001521
      7.68135      4.99073      4.81474         0.014597      0.009330     -0.034599
     10.33258      6.50195      9.31994         0.009902      0.019121      0.004775
     14.26424      7.22593      4.86299        -0.015240      0.018974      0.029893
     11.67613      5.70052      7.01979         0.003866      0.001980     -0.007458
      6.41314      5.77685      7.00107        -0.004450     -0.008722      0.023665
      3.62119      2.56589      4.96023         0.018887     -0.003084     -0.006391
     10.36091      5.02430      4.85652         0.016292     -0.005113     -0.010460
      3.75883      5.76511      7.15299         0.018611      0.007973      0.020058
     12.96907      7.87977      0.92567        -0.006563     -0.005398      0.001050
      5.16340      7.91719      0.83030         0.015886      0.015870      0.007260
      3.80701      5.74502      0.81381         0.012279     -0.008425     -0.012797
      7.79852      2.03245      2.83251        -0.028940     -0.007916     -0.002328
      9.07755      8.73373      2.85743        -0.005099      0.010278      0.013966
      2.40231      3.50575      7.13368        -0.002774     -0.010571      0.007732
      2.34409      3.49051      0.82510         0.012328      0.008382     -0.018145
     10.34814      1.96983      2.82249        -0.020442      0.006009      0.005887
     12.96035      4.98587      4.92559        -0.014131     -0.013382     -0.023866
      3.73799      1.06714      7.07362         0.004920     -0.006480     -0.009067
      9.03375      5.76249      7.08331         0.001638      0.000933     -0.001621
      3.74824      1.09182      0.86700        -0.007469      0.003596     -0.006715
      9.09121      5.71867      0.96043        -0.019072      0.015895     -0.015526
      5.12448      3.47045      0.85563        -0.001132      0.027084      0.003437
     11.62092      8.68758      2.90590        -0.012294     -0.000845      0.034044
     11.65313      7.26450      4.84229        -0.019878     -0.016615     -0.090144
     12.86756      6.45280      2.83379         0.016191      0.001064     -0.009389
      9.04201      4.20780      2.79628         0.012669     -0.000674     -0.001540
      7.76669      8.01200      6.99244        -0.007477      0.006231      0.019980
      7.81315      7.93922      0.88653        -0.009694      0.001489     -0.001203
     10.39144      6.53566      2.82198         0.043563      0.009305      0.057799
      2.51347      0.25826      5.00083         0.017859      0.016251      0.026270
      7.74264      3.48454      0.76157         0.000390     -0.006538      0.002968
      5.07835      1.87760      2.91701        -0.005108     -0.008957     -0.009494
      5.16037      6.44715      2.89923        -0.012547     -0.004322     -0.013051
      7.70892      0.45986      4.84799         0.019736     -0.011444      0.076877
      9.06881      1.19188      7.00477         0.005311     -0.007452     -0.010408
     10.29747      7.98772      6.96979        -0.010446     -0.002505     -0.001252
      9.06162      1.12592      0.75976        -0.013497     -0.002044     -0.002528
     10.36348      7.96081      0.78972        -0.019033     -0.003286      0.020553
      5.05436      4.96422      4.93175        -0.001588     -0.029604     -0.021373
     11.61467      2.71359      4.86843        -0.011130      0.008946      0.021854
     14.29598      8.81469      2.83748        -0.003348     -0.000128     -0.003553
      9.07350      2.65252      4.91360         0.028954     -0.045500      0.017778
      6.37169      2.66558      4.85827        -0.007980     -0.002684      0.009566
     11.65891      4.17486      2.81483        -0.016832     -0.001827     -0.020466
      2.44098      1.89237      2.83279        -0.004430      0.016048      0.002567
     11.64953      5.68621      0.88546         0.004438      0.033515     -0.005150
      6.44743      5.71949      0.92597        -0.001923      0.015773     -0.009771
      7.82927      6.50651      2.83621        -0.025498      0.005895     -0.021005
      6.41922      4.13007      2.78290        -0.008196      0.007770     -0.007392
     10.37947      3.46732      7.06235         0.005084     -0.001920     -0.005116
     10.34410      3.45013      0.86804        -0.003606     -0.012417     -0.020282
     10.37063      0.48410      4.87151        -0.035660      0.006168      0.025810
      9.04079      7.29017      4.93700         0.023206     -0.015015      0.007216
      6.46265      7.29503      4.94074         0.065553      0.015141     -0.034969
      5.04247      0.27633      4.88406        -0.011413      0.008833      0.006685
      9.67367      0.77725     10.58493         0.004894     -0.003362      0.030591
 -----------------------------------------------------------------------------------
    total drift:                                0.006008     -0.016289     -0.006582


--------------------------------------------------------------------------------------------------------



  FREE ENERGIE OF THE ION-ELECTRON SYSTEM (eV)
  ---------------------------------------------------
  free  energy   TOTEN  =      -511.09958993 eV

  energy  without entropy=     -511.11261590  energy(sigma->0) =     -511.10393192
 
 d Force = 0.1056877E-02[ 0.285E-03, 0.183E-02]  d Energy = 0.1073384E-02-0.165E-04
 d Force = 0.4881735E+02[ 0.488E+02, 0.488E+02]  d Ewald  = 0.4881736E+02-0.651E-05


--------------------------------------------------------------------------------------------------------


    POTLOK:  cpu time    0.3801: real time    0.3814


--------------------------------------------------------------------------------------------------------


 Conjugate gradient step on ions:
 trial-energy change:   -0.001073  1 .order   -0.001057   -0.001829   -0.000285
  (g-gl).g = 0.138E-02      g.g   = 0.134E-02  gl.gl    = 0.285E-02
 g(Force)  = 0.134E-02   g(Stress)= 0.000E+00 ortho     =-0.621E-04
 gamma     =   0.48387
 trial     =   1.39964
 opt step  =   1.65781  (harmonic =   1.65781) maximal distance =0.01278640
 next E    =  -511.099600   (d E  =  -0.00108)


--------------------------------------------------------------------------------------------------------


  
 reached required accuracy - stopping structural energy minimisation
     LOOP+:  cpu time  604.2292: real time  607.0301
    4ORBIT:  cpu time    0.0000: real time    0.0000

 total amount of memory used by VASP MPI-rank0   230613. kBytes
=======================================================================

   base      :      30000. kBytes
   nonlr-proj:      34699. kBytes
   fftplans  :      16129. kBytes
   grid      :      49182. kBytes
   one-center:        653. kBytes
   wavefun   :      99950. kBytes
 
  
  
 General timing and accounting informations for this job:
 ========================================================
  
                  Total CPU time used (sec):    16884.012
                            User time (sec):    16439.345
                          System time (sec):      444.668
                         Elapsed time (sec):    17811.846
  
                   Maximum memory used (kb):      419748.
                   Average memory used (kb):           0.
  
                          Minor page faults:      4043158
                          Major page faults:          210
                 Voluntary context switches:        11130
