 vasp.5.4.4.18Apr17-6-g9f103f2a35 (build Oct 25 2019 11:13:22) complex          
  
 executed on             LinuxIFC date 2021.10.15  09:33:35
 running on   48 total cores
 distrk:  each k-point on   48 cores,    1 groups
 distr:  one band on NCORES_PER_BAND=   4 cores,   12 groups


--------------------------------------------------------------------------------------------------------


 INCAR:
 POTCAR:    PAW_PBE Pt 04Feb2005                  
 POTCAR:    PAW_PBE Fe 06Sep2000                  
 POTCAR:    PAW_PBE Co 02Aug2007                  
 POTCAR:    PAW_PBE Cu 22Jun2005                  
 POTCAR:    PAW_PBE Ni 02Aug2007                  
 POTCAR:    PAW_PBE H 15Jun2001                   
 POTCAR:    PAW_PBE Pt 04Feb2005                  
   VRHFIN =Pt: s1d9                                                             
   LEXCH  = PE                                                                  
   EATOM  =   729.1176 eV,   53.5886 Ry                                         
                                                                                
   TITEL  = PAW_PBE Pt 04Feb2005                                                
   LULTRA =        F    use ultrasoft PP ?                                      
   IUNSCR =        1    unscreen: 0-lin 1-nonlin 2-no                           
   RPACOR =    2.330    partial core radius                                     
   POMASS =  195.080; ZVAL   =   10.000    mass and valenz                      
   RCORE  =    2.600    outmost cutoff radius                                   
   RWIGS  =    2.750; RWIGS  =    1.455    wigner-seitz radius (au A)           
   ENMAX  =  230.283; ENMIN  =  172.712 eV                                      
   ICORE  =        3    local potential                                         
   LCOR   =        T    correct aug charges                                     
   LPAW   =        T    paw PP                                                  
   EAUG   =  358.966                                                            
   DEXC   =    0.000                                                            
   RMAX   =    2.658    core radius for proj-oper                               
   RAUG   =    1.300    factor for augmentation sphere                          
   RDEP   =    2.761    radius for radial grids                                 
   RDEPT  =    2.203    core radius for aug-charge                              
                                                                                
   Atomic configuration                                                         
   16 entries                                                                   
     n  l   j            E        occ.                                          
     1  0  0.50    -78401.1885   2.0000                                         
     2  0  0.50    -13770.7750   2.0000                                         
     2  1  1.50    -11931.0468   6.0000                                         
     3  0  0.50     -3234.7234   2.0000                                         
     3  1  1.50     -2699.2216   6.0000                                         
     3  2  2.50     -2119.5714  10.0000                                         
     4  0  0.50      -695.1528   2.0000                                         
     4  1  1.50      -519.6034   6.0000                                         
     4  2  2.50      -306.6786  10.0000                                         
     4  3  3.50       -70.1041  14.0000                                         
     5  0  0.50      -101.7747   2.0000                                         
     5  1  1.50       -55.9873   6.0000                                         
     5  2  2.50        -6.1423   9.0000                                         
     6  0  0.50        -5.6573   1.0000                                         
     6  1  1.50        -6.8029   0.0000                                         
     5  3  2.50        -1.3606   0.0000                                         
   Description                                                                  
     l       E           TYP  RCUT    TYP  RCUT                                 
     2     -6.1423404     23  2.500                                             
     2     -7.5029230     23  2.500                                             
     0     -5.6573207     23  2.500                                             
     0      0.7416693     23  2.500                                             
     1     -2.7211652     23  2.600                                             
     1     20.4087390     23  2.600                                             
     3     -1.3605826     23  2.500                                             
  local pseudopotential read in
  partial core-charges read in
  partial kinetic energy density read in
  atomic valenz-charges read in
  non local Contribution for L=           2  read in
    real space projection operators read in
  non local Contribution for L=           2  read in
    real space projection operators read in
  non local Contribution for L=           0  read in
    real space projection operators read in
  non local Contribution for L=           0  read in
    real space projection operators read in
  non local Contribution for L=           1  read in
    real space projection operators read in
  non local Contribution for L=           1  read in
    real space projection operators read in
    PAW grid and wavefunctions read in
 
   number of l-projection  operators is LMAX  =           6
   number of lm-projection operators is LMMAX =          18
 
 POTCAR:    PAW_PBE Fe 06Sep2000                  
   VRHFIN =Fe:  d7 s1                                                           
   LEXCH  = PE                                                                  
   EATOM  =   594.3153 eV,   43.6809 Ry                                         
                                                                                
   TITEL  = PAW_PBE Fe 06Sep2000                                                
   LULTRA =        F    use ultrasoft PP ?                                      
   IUNSCR =        1    unscreen: 0-lin 1-nonlin 2-no                           
   RPACOR =    2.000    partial core radius                                     
   POMASS =   55.847; ZVAL   =    8.000    mass and valenz                      
   RCORE  =    2.300    outmost cutoff radius                                   
   RWIGS  =    2.460; RWIGS  =    1.302    wigner-seitz radius (au A)           
   ENMAX  =  267.882; ENMIN  =  200.911 eV                                      
   RCLOC  =    1.701    cutoff for local pot                                    
   LCOR   =        T    correct aug charges                                     
   LPAW   =        T    paw PP                                                  
   EAUG   =  511.368                                                            
   DEXC   =    0.000                                                            
   RMAX   =    2.356    core radius for proj-oper                               
   RAUG   =    1.300    factor for augmentation sphere                          
   RDEP   =    2.442    radius for radial grids                                 
   RDEPT  =    1.890    core radius for aug-charge                              
                                                                                
   Atomic configuration                                                         
    9 entries                                                                   
     n  l   j            E        occ.                                          
     1  0  0.50     -6993.8440   2.0000                                         
     2  0  0.50      -814.6047   2.0000                                         
     2  1  1.50      -693.3689   6.0000                                         
     3  0  0.50       -89.4732   2.0000                                         
     3  1  1.50       -55.6373   6.0000                                         
     3  2  2.50        -3.8151   7.0000                                         
     4  0  0.50        -4.2551   1.0000                                         
     4  1  1.50        -3.4015   0.0000                                         
     4  3  2.50        -1.3606   0.0000                                         
   Description                                                                  
     l       E           TYP  RCUT    TYP  RCUT                                 
     2     -3.8151135     23  2.300                                             
     2     -5.1756961     23  2.300                                             
     0     -4.2550963     23  2.300                                             
     0      7.2035603     23  2.300                                             
     1     -2.7211652     23  2.300                                             
     1     18.4316424     23  2.300                                             
  local pseudopotential read in
  partial core-charges read in
  partial kinetic energy density read in
  atomic valenz-charges read in
  non local Contribution for L=           2  read in
    real space projection operators read in
  non local Contribution for L=           2  read in
    real space projection operators read in
  non local Contribution for L=           0  read in
    real space projection operators read in
  non local Contribution for L=           0  read in
    real space projection operators read in
  non local Contribution for L=           1  read in
    real space projection operators read in
  non local Contribution for L=           1  read in
    real space projection operators read in
    PAW grid and wavefunctions read in
 
   number of l-projection  operators is LMAX  =           6
   number of lm-projection operators is LMMAX =          18
 
 POTCAR:    PAW_PBE Co 02Aug2007                  
   VRHFIN =Co: d8 s1                                                            
   LEXCH  = PE                                                                  
   EATOM  =   813.3670 eV,   59.7808 Ry                                         
                                                                                
   TITEL  = PAW_PBE Co 02Aug2007                                                
   LULTRA =        F    use ultrasoft PP ?                                      
   IUNSCR =        1    unscreen: 0-lin 1-nonlin 2-no                           
   RPACOR =    2.000    partial core radius                                     
   POMASS =   58.933; ZVAL   =    9.000    mass and valenz                      
   RCORE  =    2.300    outmost cutoff radius                                   
   RWIGS  =    2.460; RWIGS  =    1.302    wigner-seitz radius (au A)           
   ENMAX  =  267.968; ENMIN  =  200.976 eV                                      
   RCLOC  =    1.203    cutoff for local pot                                    
   LCOR   =        T    correct aug charges                                     
   LPAW   =        T    paw PP                                                  
   EAUG   =  477.818                                                            
   DEXC   =    0.000                                                            
   RMAX   =    2.360    core radius for proj-oper                               
   RAUG   =    1.300    factor for augmentation sphere                          
   RDEP   =    2.393    radius for radial grids                                 
   RDEPT  =    1.864    core radius for aug-charge                              
                                                                                
   Atomic configuration                                                         
    9 entries                                                                   
     n  l   j            E        occ.                                          
     1  0  0.50     -7587.6674   2.0000                                         
     2  0  0.50      -893.6084   2.0000                                         
     2  1  1.50      -764.5805   6.0000                                         
     3  0  0.50       -97.5973   2.0000                                         
     3  1  1.50       -60.9648   6.0000                                         
     3  2  2.50        -4.2382   8.0000                                         
     4  0  0.50        -4.3746   1.0000                                         
     4  1  1.50        -4.0817   0.0000                                         
     4  3  2.50        -1.3606   0.0000                                         
   Description                                                                  
     l       E           TYP  RCUT    TYP  RCUT                                 
     2     -4.2382362     23  2.300                                             
     2     -5.5988188     23  2.300                                             
     0     -4.3745797     23  2.300                                             
     0      5.7660125     23  2.300                                             
     1     -2.7211652     23  2.300                                             
     1     16.9860234     23  2.300                                             
  local pseudopotential read in
  partial core-charges read in
  partial kinetic energy density read in
  atomic valenz-charges read in
  non local Contribution for L=           2  read in
    real space projection operators read in
  non local Contribution for L=           2  read in
    real space projection operators read in
  non local Contribution for L=           0  read in
    real space projection operators read in
  non local Contribution for L=           0  read in
    real space projection operators read in
  non local Contribution for L=           1  read in
    real space projection operators read in
  non local Contribution for L=           1  read in
    real space projection operators read in
    PAW grid and wavefunctions read in
 
   number of l-projection  operators is LMAX  =           6
   number of lm-projection operators is LMMAX =          18
 
 POTCAR:    PAW_PBE Cu 22Jun2005                  
   VRHFIN =Cu: d10 p1                                                           
   LEXCH  = PE                                                                  
   EATOM  =  1390.9808 eV,  102.2342 Ry                                         
                                                                                
   TITEL  = PAW_PBE Cu 22Jun2005                                                
   LULTRA =        F    use ultrasoft PP ?                                      
   IUNSCR =        1    unscreen: 0-lin 1-nonlin 2-no                           
   RPACOR =    2.000    partial core radius                                     
   POMASS =   63.546; ZVAL   =   11.000    mass and valenz                      
   RCORE  =    2.300    outmost cutoff radius                                   
   RWIGS  =    2.200; RWIGS  =    1.164    wigner-seitz radius (au A)           
   ENMAX  =  295.446; ENMIN  =  221.585 eV                                      
   ICORE  =        3    local potential                                         
   LCOR   =        T    correct aug charges                                     
   LPAW   =        T    paw PP                                                  
   EAUG   =  586.980                                                            
   DEXC   =    0.000                                                            
   RMAX   =    2.344    core radius for proj-oper                               
   RAUG   =    1.300    factor for augmentation sphere                          
   RDEP   =    2.302    radius for radial grids                                 
   RDEPT  =    1.771    core radius for aug-charge                              
                                                                                
   Atomic configuration                                                         
    9 entries                                                                   
     n  l   j            E        occ.                                          
     1  0  0.50     -8850.2468   2.0000                                         
     2  0  0.50     -1062.3498   2.0000                                         
     2  1  1.50      -916.8226   6.0000                                         
     3  0  0.50      -114.6929   2.0000                                         
     3  1  1.50       -72.1325   6.0000                                         
     3  2  2.50        -5.0394  10.0000                                         
     4  0  0.50        -4.6097   1.0000                                         
     4  1  0.50        -4.0817   0.0000                                         
     4  3  2.50        -1.3606   0.0000                                         
   Description                                                                  
     l       E           TYP  RCUT    TYP  RCUT                                 
     2     -5.0393973     23  2.200                                             
     2     10.8846608     23  2.200                                             
     0     -4.6097109     23  2.200                                             
     0      8.2520465     23  2.200                                             
     1     -2.7211652     23  2.200                                             
     1     21.7055443     23  2.200                                             
     3      2.7211652     23  2.300                                             
  local pseudopotential read in
  partial core-charges read in
  partial kinetic energy density read in
  atomic valenz-charges read in
  non local Contribution for L=           2  read in
    real space projection operators read in
  non local Contribution for L=           2  read in
    real space projection operators read in
  non local Contribution for L=           0  read in
    real space projection operators read in
  non local Contribution for L=           0  read in
    real space projection operators read in
  non local Contribution for L=           1  read in
    real space projection operators read in
  non local Contribution for L=           1  read in
    real space projection operators read in
    PAW grid and wavefunctions read in
 
   number of l-projection  operators is LMAX  =           6
   number of lm-projection operators is LMMAX =          18
 
 POTCAR:    PAW_PBE Ni 02Aug2007                  
   VRHFIN =Ni:                                                                  
   LEXCH  = PE                                                                  
   EATOM  =  1077.6739 eV,   79.2068 Ry                                         
                                                                                
   TITEL  = PAW_PBE Ni 02Aug2007                                                
   LULTRA =        F    use ultrasoft PP ?                                      
   IUNSCR =        1    unscreen: 0-lin 1-nonlin 2-no                           
   RPACOR =    2.000    partial core radius                                     
   POMASS =   58.690; ZVAL   =   10.000    mass and valenz                      
   RCORE  =    2.300    outmost cutoff radius                                   
   RWIGS  =    2.430; RWIGS  =    1.286    wigner-seitz radius (au A)           
   ENMAX  =  269.532; ENMIN  =  202.149 eV                                      
   RCLOC  =    1.201    cutoff for local pot                                    
   LCOR   =        T    correct aug charges                                     
   LPAW   =        T    paw PP                                                  
   EAUG   =  544.565                                                            
   DEXC   =    0.000                                                            
   RMAX   =    2.357    core radius for proj-oper                               
   RAUG   =    1.300    factor for augmentation sphere                          
   RDEP   =    2.390    radius for radial grids                                 
   RDEPT  =    1.838    core radius for aug-charge                              
                                                                                
   Atomic configuration                                                         
    9 entries                                                                   
     n  l   j            E        occ.                                          
     1  0  0.50     -8206.4253   2.0000                                         
     2  0  0.50      -976.1748   2.0000                                         
     2  1  1.50      -839.0571   6.0000                                         
     3  0  0.50      -105.9991   2.0000                                         
     3  1  1.50       -66.4603   6.0000                                         
     3  2  2.50        -4.6458   9.0000                                         
     4  0  0.50        -4.4926   1.0000                                         
     4  1  1.50        -4.0817   0.0000                                         
     4  3  2.50        -1.3606   0.0000                                         
   Description                                                                  
     l       E           TYP  RCUT    TYP  RCUT                                 
     2     -4.6457903     23  2.300                                             
     2     -6.0063729     23  2.300                                             
     0     -4.4925590     23  2.300                                             
     0      5.0102601     23  2.300                                             
     1     -2.7211652     23  2.300                                             
     1     16.5183231     23  2.300                                             
  local pseudopotential read in
  partial core-charges read in
  partial kinetic energy density read in
  atomic valenz-charges read in
  non local Contribution for L=           2  read in
    real space projection operators read in
  non local Contribution for L=           2  read in
    real space projection operators read in
  non local Contribution for L=           0  read in
    real space projection operators read in
  non local Contribution for L=           0  read in
    real space projection operators read in
  non local Contribution for L=           1  read in
    real space projection operators read in
  non local Contribution for L=           1  read in
    real space projection operators read in
    PAW grid and wavefunctions read in
 
   number of l-projection  operators is LMAX  =           6
   number of lm-projection operators is LMMAX =          18
 
 POTCAR:    PAW_PBE H 15Jun2001                   
   VRHFIN =H: ultrasoft test                                                    
   LEXCH  = PE                                                                  
   EATOM  =    12.4884 eV,    0.9179 Ry                                         
                                                                                
   TITEL  = PAW_PBE H 15Jun2001                                                 
   LULTRA =        F    use ultrasoft PP ?                                      
   IUNSCR =        0    unscreen: 0-lin 1-nonlin 2-no                           
   RPACOR =    0.000    partial core radius                                     
   POMASS =    1.000; ZVAL   =    1.000    mass and valenz                      
   RCORE  =    1.100    outmost cutoff radius                                   
   RWIGS  =    0.700; RWIGS  =    0.370    wigner-seitz radius (au A)           
   ENMAX  =  250.000; ENMIN  =  200.000 eV                                      
   RCLOC  =    0.701    cutoff for local pot                                    
   LCOR   =        T    correct aug charges                                     
   LPAW   =        T    paw PP                                                  
   EAUG   =  400.000                                                            
   RMAX   =    1.123    core radius for proj-oper                               
   RAUG   =    1.200    factor for augmentation sphere                          
   RDEP   =    1.112    radius for radial grids                                 
   RDEPT  =    0.926    core radius for aug-charge                              
                                                                                
   Atomic configuration                                                         
    2 entries                                                                   
     n  l   j            E        occ.                                          
     1  0  0.50        -6.4927   1.0000                                         
     2  1  0.50        -3.4015   0.0000                                         
   Description                                                                  
     l       E           TYP  RCUT    TYP  RCUT                                 
     0     -6.4927494     23  1.100                                             
     0      6.8029130     23  1.100                                             
     1     -4.0817478     23  1.100                                             
  local pseudopotential read in
  atomic valenz-charges read in
  non local Contribution for L=           0  read in
    real space projection operators read in
  non local Contribution for L=           0  read in
    real space projection operators read in
  non local Contribution for L=           1  read in
    real space projection operators read in
    PAW grid and wavefunctions read in
 
   number of l-projection  operators is LMAX  =           3
   number of lm-projection operators is LMMAX =           5
 
 Optimization of the real space projectors (new method)

 maximal supplied QI-value         = 14.36
 optimisation between [QCUT,QGAM] = [ 11.92, 23.98] = [ 39.79,161.09] Ry 
 Optimized for a Real-space Cutoff    1.49 Angstroem

   l    n(q)    QCUT    max X(q) W(low)/X(q) W(high)/X(q)  e(spline) 
   2     10    11.920    66.195    0.79E-04    0.18E-03    0.24E-06
   2     10    11.920    64.643    0.81E-04    0.19E-03    0.24E-06
   0     11    11.920    95.520    0.28E-04    0.54E-04    0.18E-06
   0     11    11.920    63.403    0.27E-04    0.52E-04    0.17E-06
   1     10    11.920    19.961    0.18E-04    0.11E-03    0.23E-06
   1     10    11.920    13.289    0.25E-04    0.87E-04    0.19E-06
 Optimization of the real space projectors (new method)

 maximal supplied QI-value         = 16.25
 optimisation between [QCUT,QGAM] = [ 11.86, 23.89] = [ 39.41,159.82] Ry 
 Optimized for a Real-space Cutoff    1.49 Angstroem

   l    n(q)    QCUT    max X(q) W(low)/X(q) W(high)/X(q)  e(spline) 
   2     10    11.864    80.901    0.13E-03    0.23E-03    0.37E-06
   2     10    11.864    75.754    0.13E-03    0.23E-03    0.38E-06
   0     11    11.864    58.752    0.44E-04    0.11E-04    0.20E-06
   0     11    11.864    30.679    0.36E-04    0.10E-04    0.18E-06
   1     10    11.864    17.977    0.31E-04    0.45E-04    0.10E-06
   1     10    11.864    13.559    0.25E-04    0.37E-04    0.89E-07
 Optimization of the real space projectors (new method)

 maximal supplied QI-value         = 16.25
 optimisation between [QCUT,QGAM] = [ 11.86, 23.89] = [ 39.41,159.82] Ry 
 Optimized for a Real-space Cutoff    1.33 Angstroem

   l    n(q)    QCUT    max X(q) W(low)/X(q) W(high)/X(q)  e(spline) 
   2      9    11.864    65.824    0.22E-03    0.53E-03    0.26E-06
   2      9    11.864    61.429    0.22E-03    0.53E-03    0.26E-06
   0      9    11.864    56.174    0.21E-03    0.32E-04    0.15E-06
   0      9    11.864    31.263    0.19E-03    0.30E-04    0.14E-06
   1      9    11.864    19.828    0.63E-04    0.30E-03    0.16E-06
   1      9    11.864    15.139    0.49E-04    0.25E-03    0.13E-06
 Optimization of the real space projectors (new method)

 maximal supplied QI-value         = 16.25
 optimisation between [QCUT,QGAM] = [ 11.86, 23.89] = [ 39.41,159.82] Ry 
 Optimized for a Real-space Cutoff    1.49 Angstroem

   l    n(q)    QCUT    max X(q) W(low)/X(q) W(high)/X(q)  e(spline) 
   2     10    11.864     4.610    0.10E-03    0.20E-03    0.29E-06
   2     10    11.864     8.522    0.17E-03    0.33E-03    0.50E-06
   0     11    11.864    51.609    0.52E-04    0.55E-04    0.33E-06
   0     11    11.864    27.747    0.46E-04    0.52E-04    0.31E-06
   1     10    11.864    20.408    0.54E-04    0.25E-04    0.21E-06
   1     10    11.864    13.425    0.48E-04    0.22E-04    0.18E-06
 Optimization of the real space projectors (new method)

 maximal supplied QI-value         = 16.25
 optimisation between [QCUT,QGAM] = [ 11.86, 23.89] = [ 39.41,159.82] Ry 
 Optimized for a Real-space Cutoff    1.33 Angstroem

   l    n(q)    QCUT    max X(q) W(low)/X(q) W(high)/X(q)  e(spline) 
   2      9    11.864    60.317    0.21E-03    0.51E-03    0.25E-06
   2      9    11.864    55.921    0.21E-03    0.51E-03    0.26E-06
   0      9    11.864    51.690    0.22E-03    0.30E-04    0.17E-06
   0      9    11.864    30.015    0.20E-03    0.28E-04    0.15E-06
   1      9    11.864    18.849    0.76E-04    0.33E-03    0.17E-06
   1      9    11.864    14.624    0.60E-04    0.28E-03    0.15E-06
 Optimization of the real space projectors (new method)

 maximal supplied QI-value         = 34.20
 optimisation between [QCUT,QGAM] = [ 11.97, 23.94] = [ 40.13,160.53] Ry 
 Optimized for a Real-space Cutoff    1.18 Angstroem

   l    n(q)    QCUT    max X(q) W(low)/X(q) W(high)/X(q)  e(spline) 
   0      8    11.971    19.460    0.15E-03    0.31E-03    0.25E-06
   0      8    11.971    12.209    0.13E-03    0.29E-03    0.25E-06
   1      8    11.971     4.655    0.22E-03    0.24E-03    0.21E-06
  PAW_PBE Pt 04Feb2005                  :
 energy of atom  1       EATOM= -729.1176
 kinetic energy error for atom=    0.0021 (will be added to EATOM!!)
  PAW_PBE Fe 06Sep2000                  :
 energy of atom  2       EATOM= -594.3153
 kinetic energy error for atom=    0.0024 (will be added to EATOM!!)
  PAW_PBE Co 02Aug2007                  :
 energy of atom  3       EATOM= -813.3670
 kinetic energy error for atom=    0.0026 (will be added to EATOM!!)
  PAW_PBE Cu 22Jun2005                  :
 energy of atom  4       EATOM=-1390.9808
 kinetic energy error for atom=    0.0036 (will be added to EATOM!!)
  PAW_PBE Ni 02Aug2007                  :
 energy of atom  5       EATOM=-1077.6739
 kinetic energy error for atom=    0.0027 (will be added to EATOM!!)
  PAW_PBE H 15Jun2001                   :
 energy of atom  6       EATOM=  -12.4884
 kinetic energy error for atom=    0.0008 (will be added to EATOM!!)
 
 
 POSCAR: 10.86                                   
  positions in direct lattice
  velocities in cartesian coordinates
 exchange correlation table for  LEXCH =        8
   RHO(1)=    0.500       N(1)  =     2000
   RHO(2)=  100.500       N(2)  =     4000
 


--------------------------------------------------------------------------------------------------------


 ion  position               nearest neighbor table
   1  0.786  0.880  0.315-  49 2.61  28 2.62  59 2.63  19 2.70  61 2.72  33 2.73  60 2.74  11 2.74
                            29 2.74   2 2.80   4 2.81  12 2.83
   2  0.043  0.882  0.314-  79 2.56  77 2.60  28 2.68  60 2.70  30 2.70  33 2.73  52 2.73  22 2.76
                             6 2.79   1 2.80   4 2.86  16 2.92
   3  0.279  0.381  0.317-  64 2.56  39 2.64  31 2.64  33 2.67  68 2.69   5 2.76  19 2.77  13 2.78
                            30 2.78  43 2.79  25 2.81  18 2.89
   4  0.870  0.965  0.421-  17 2.67  11 2.70   9 2.72  12 2.76   6 2.77  60 2.78  16 2.79   1 2.81
                             2 2.86
   5  0.119  0.464  0.422-  16 2.67  12 2.68   7 2.68  39 2.68  33 2.70  10 2.70  25 2.75   3 2.76
                            13 2.78
   6  0.126  0.964  0.419-   8 2.67  10 2.71  14 2.74   9 2.74  52 2.76   4 2.77   2 2.79  16 2.79
                            22 2.83
   7  0.875  0.458  0.422-  39 2.66   9 2.68   5 2.68  15 2.68  10 2.70  75 2.71  12 2.72  27 2.75
                            29 2.76
   8  0.374  0.960  0.416-  43 2.58  52 2.66   6 2.67  14 2.68  27 2.69  61 2.70  13 2.70  10 2.72
                            11 2.72
   9  0.871  0.214  0.416-  75 2.65   7 2.68  15 2.68  60 2.69  17 2.70   4 2.72   6 2.74  10 2.76
                            22 2.79
  10  0.126  0.213  0.418-  39 2.65  13 2.68   5 2.70   7 2.70  43 2.70   6 2.71   8 2.72  22 2.75
                             9 2.76
  11  0.624  0.960  0.419-  81 1.84   4 2.70  13 2.70  12 2.70  27 2.71  17 2.72   8 2.72   1 2.74
                            61 2.78  19 2.81
  12  0.872  0.710  0.421-   5 2.68  33 2.68  11 2.70  27 2.71   7 2.72  16 2.74  29 2.75   4 2.76
                             1 2.83
  13  0.375  0.208  0.419-  81 1.78  10 2.68   8 2.70  11 2.70  43 2.72  17 2.72  25 2.74   5 2.78
                             3 2.78  19 2.78
  14  0.378  0.711  0.418-  27 2.65  44 2.65   8 2.68  52 2.70  15 2.70   6 2.74  25 2.74  30 2.75
                            16 2.76
  15  0.626  0.462  0.418-  44 2.66   9 2.68  75 2.68   7 2.68  27 2.69  14 2.70  18 2.74  17 2.74
                            25 2.74
  16  0.127  0.707  0.423-   5 2.67  33 2.68  25 2.68  12 2.74  14 2.76   6 2.79   4 2.79  30 2.81
                             2 2.92
  17  0.624  0.211  0.417-  81 1.93   4 2.67   9 2.70  25 2.72  11 2.72  13 2.72  18 2.73  15 2.74
                            60 2.74  19 2.83
  18  0.547  0.377  0.315-  67 2.55  68 2.63  26 2.67  60 2.68  75 2.69  44 2.70  17 2.73  15 2.74
                            30 2.79  19 2.81  25 2.83   3 2.89
  19  0.534  0.125  0.313-  80 2.54  68 2.57  59 2.59  43 2.62   1 2.70  61 2.72   3 2.77  13 2.78
                            11 2.81  18 2.81  17 2.83  60 2.84
  20  0.548  0.123  0.046-  57 2.55  37 2.56  48 2.57  62 2.70  63 2.72  56 2.74  34 2.77  47 2.78
                            45 2.79
  21  0.119  0.458  0.130-  47 2.52  40 2.52  36 2.52  42 2.59  64 2.63  69 2.66  70 2.71  50 2.71
                            31 2.72  57 2.77  58 2.80  74 2.82
  22  0.045  0.135  0.313-  65 2.53  55 2.55  77 2.56  43 2.65  39 2.66  75 2.72  10 2.75   2 2.76
                            60 2.77   9 2.79  52 2.80   6 2.83  31 3.39
  23  0.041  0.131  0.037-  70 2.56  41 2.60  40 2.63  76 2.66  45 2.69  24 2.69  62 2.70  53 2.82
                            35 2.83
  24  0.131  0.958  0.134-  79 2.51  77 2.55  35 2.56  53 2.57  55 2.59  70 2.67  23 2.69  73 2.70
                            58 2.70  38 2.71  66 2.77  41 2.81
  25  0.374  0.461  0.420-  16 2.68  17 2.72  13 2.74  14 2.74  15 2.74   5 2.75  30 2.80   3 2.81
                            18 2.83
  26  0.456  0.548  0.219-  73 2.51  74 2.54  51 2.56  79 2.65  30 2.66  18 2.67  78 2.71  44 2.72
                            64 2.72  32 2.72  68 2.75  67 2.82
  27  0.622  0.712  0.419-  14 2.65  44 2.68  15 2.69   8 2.69  11 2.71  12 2.71  61 2.73   7 2.75
                            29 2.77
  28  0.955  0.786  0.220-  58 2.56  50 2.57  66 2.58   1 2.62  42 2.64  49 2.66  33 2.68   2 2.68
                            64 2.70  59 2.80  79 2.93  77 2.93
  29  0.795  0.623  0.318-  42 2.54  39 2.60  32 2.63  75 2.64  49 2.66  33 2.72  44 2.74   1 2.74
                            61 2.74  12 2.75   7 2.76  27 2.77
  30  0.290  0.632  0.316-  79 2.55  64 2.59  26 2.66  52 2.67   2 2.70  33 2.70  44 2.71  14 2.75
                             3 2.78  18 2.79  25 2.80  16 2.81
  31  0.200  0.277  0.226-  70 2.50  43 2.57  57 2.59  55 2.60  65 2.61  39 2.64   3 2.64  21 2.72
                            80 2.77  42 2.79  68 2.89  64 2.93  22 3.39
  32  0.705  0.552  0.221-  54 2.54  69 2.56  51 2.59  49 2.62  29 2.63  78 2.66  44 2.67  42 2.68
                            75 2.69  65 2.69  26 2.72  67 2.76
  33  0.040  0.633  0.323-   3 2.67  28 2.68  16 2.68  12 2.68  64 2.69   5 2.70  30 2.70  42 2.71
                            29 2.72   2 2.73  39 2.73   1 2.73
  34  0.796  0.861  0.048-  50 2.37  48 2.49  66 2.51  36 2.61  71 2.62  63 2.66  20 2.77  35 2.86
                            62 2.86
  35  0.057  0.863  0.043-  58 2.52  24 2.56  72 2.57  36 2.58  66 2.62  53 2.74  62 2.83  23 2.83
                            34 2.86
  36  0.046  0.632  0.043-  21 2.52  58 2.57  35 2.58  50 2.60  34 2.61  72 2.67  47 2.71  71 2.78
                            40 2.85
  37  0.628  0.226  0.132-  51 2.50  67 2.50  56 2.50  68 2.55  59 2.56  20 2.56  74 2.57  62 2.59
                            41 2.59  66 2.75  57 2.86  48 3.06
  38  0.382  0.953  0.132-  53 2.44  80 2.47  45 2.47  78 2.53  63 2.54  55 2.56  73 2.58  48 2.60
                            54 2.61  24 2.71  57 2.71  70 2.76
  39  0.035  0.384  0.322-  29 2.60  42 2.62   3 2.64  31 2.64  75 2.65  10 2.65   7 2.66  22 2.66
                             5 2.68  65 2.71  33 2.73  43 2.89
  40  0.027  0.380  0.042-  69 2.41  21 2.52  76 2.55  70 2.56  71 2.56  23 2.63  36 2.85  45 2.88
                            47 2.94
  41  0.872  0.216  0.131-  76 2.44  77 2.50  65 2.53  67 2.53  62 2.56  37 2.59  23 2.60  51 2.63
                            69 2.64  70 2.71  66 2.72  24 2.81
  42  0.955  0.544  0.224-  50 2.54  29 2.54  21 2.59  69 2.60  39 2.62  28 2.64  65 2.67  32 2.68
                            49 2.69  33 2.71  64 2.75  31 2.79
  43  0.298  0.115  0.320-  55 2.52  31 2.57   8 2.58  80 2.62  19 2.62  52 2.63  61 2.63  22 2.65
                            10 2.70  13 2.72   3 2.79  39 2.89
  44  0.541  0.628  0.320-  78 2.62  61 2.65  14 2.65  52 2.65  15 2.66  32 2.67  27 2.68  18 2.70
                            75 2.70  30 2.71  26 2.72  29 2.74
  45  0.295  0.117  0.044-  38 2.47  70 2.47  57 2.57  53 2.58  63 2.67  23 2.69  20 2.79  40 2.88
                            47 2.89
  46  0.552  0.624  0.047-  51 2.40  54 2.41  73 2.41  71 2.63  76 2.68  63 2.70  53 2.71  56 2.73
                            72 2.79
  47  0.296  0.383  0.044-  74 2.37  21 2.52  57 2.61  72 2.64  56 2.64  36 2.71  20 2.78  45 2.89
                            40 2.94
  48  0.625  0.946  0.135-  49 2.39  80 2.48  54 2.49  34 2.49  63 2.54  20 2.57  59 2.57  38 2.60
                            50 2.63  57 2.77  66 2.80  37 3.06
  49  0.707  0.792  0.221-  48 2.39  50 2.47  54 2.49   1 2.61  80 2.62  32 2.62  61 2.63  28 2.66
                            29 2.66  78 2.67  42 2.69  59 2.80
  50  0.864  0.701  0.131-  34 2.37  71 2.39  49 2.47  54 2.50  42 2.54  28 2.57  69 2.60  36 2.60
                            48 2.63  21 2.71  66 2.91
  51  0.628  0.457  0.129-  46 2.40  76 2.45  37 2.50  56 2.52  26 2.56  32 2.59  67 2.62  41 2.63
                            69 2.68  74 2.70  73 2.73  54 2.82
  52  0.298  0.873  0.317-  55 2.43  79 2.51  78 2.53  61 2.61  43 2.63  44 2.65   8 2.66  30 2.67
                            14 2.70   2 2.73   6 2.76  22 2.80
  53  0.303  0.875  0.044-  73 2.42  38 2.44  24 2.57  45 2.58  63 2.62  46 2.71  35 2.74  72 2.75
                            23 2.82
  54  0.626  0.717  0.129-  46 2.41  71 2.48  63 2.49  48 2.49  49 2.49  50 2.50  32 2.54  38 2.61
                            78 2.63  73 2.63  69 2.76  51 2.82
  55  0.228  0.025  0.228-  52 2.43  78 2.50  43 2.52  79 2.53  80 2.54  22 2.55  38 2.56  24 2.59
                            31 2.60  70 2.73  77 2.82
  56  0.541  0.379  0.039-  74 2.49  37 2.50  51 2.52  47 2.64  72 2.69  76 2.73  46 2.73  20 2.74
                            62 2.77
  57  0.376  0.206  0.136-  68 2.47  20 2.55  80 2.56  45 2.57  31 2.59  47 2.61  74 2.71  70 2.71
                            38 2.71  48 2.77  21 2.77  37 2.86
  58  0.139  0.705  0.135-  72 2.44  64 2.48  35 2.52  79 2.55  28 2.56  36 2.57  74 2.69  24 2.70
                            73 2.73  21 2.80
  59  0.704  0.051  0.220-  66 2.51  37 2.56  48 2.57  19 2.59  60 2.61   1 2.63  68 2.67  67 2.68
                            77 2.74  80 2.78  49 2.80  28 2.80
  60  0.793  0.129  0.315-  67 2.52  77 2.56  59 2.61  18 2.68   9 2.69   2 2.70   1 2.74  17 2.74
                            75 2.75  22 2.77   4 2.78  19 2.84
  61  0.539  0.872  0.316-  78 2.48  80 2.51  52 2.61  49 2.63  43 2.63  44 2.65   8 2.70  19 2.72
                             1 2.72  27 2.73  29 2.74  11 2.78
  62  0.796  0.123  0.039-  66 2.51  41 2.56  37 2.59  20 2.70  23 2.70  76 2.72  56 2.77  35 2.83
                            34 2.86
  63  0.544  0.876  0.039-  54 2.49  48 2.54  38 2.54  53 2.62  34 2.66  45 2.67  46 2.70  20 2.72
                            71 2.76
  64  0.208  0.543  0.224-  58 2.48   3 2.56  30 2.59  21 2.63  74 2.65  33 2.69  28 2.70  68 2.70
                            26 2.72  42 2.75  79 2.82  31 2.93
  65  0.949  0.301  0.222-  69 2.51  41 2.53  22 2.53  67 2.57  75 2.59  31 2.61  70 2.62  77 2.63
                            42 2.67  32 2.69  39 2.71
  66  0.873  0.966  0.132-  59 2.51  34 2.51  62 2.51  77 2.56  28 2.58  35 2.62  41 2.72  37 2.75
                            24 2.77  48 2.80  50 2.91
  67  0.717  0.291  0.225-  37 2.50  60 2.52  41 2.53  18 2.55  77 2.57  65 2.57  75 2.60  51 2.62
                            59 2.68  32 2.76  26 2.82
  68  0.457  0.295  0.221-  57 2.47  74 2.51  37 2.55  19 2.57  18 2.63  59 2.67   3 2.69  64 2.70
                            26 2.75  80 2.88  31 2.89
  69  0.875  0.457  0.130-  40 2.41  71 2.45  76 2.46  65 2.51  32 2.56  50 2.60  42 2.60  41 2.64
                            21 2.66  51 2.68  70 2.74  54 2.76
  70  0.127  0.205  0.131-  45 2.47  31 2.50  40 2.56  23 2.56  65 2.62  24 2.67  21 2.71  57 2.71
                            41 2.71  55 2.73  69 2.74  38 2.76
  71  0.796  0.620  0.043-  50 2.39  69 2.45  54 2.48  40 2.56  34 2.62  46 2.63  76 2.68  63 2.76
                            36 2.78
  72  0.294  0.627  0.046-  58 2.44  74 2.45  73 2.50  35 2.57  47 2.64  36 2.67  56 2.69  53 2.75
                            46 2.79
  73  0.385  0.715  0.130-  46 2.41  53 2.42  72 2.50  26 2.51  78 2.56  38 2.58  79 2.61  54 2.63
                            24 2.70  51 2.73  58 2.73  74 2.87
  74  0.382  0.452  0.129-  47 2.37  72 2.45  56 2.49  68 2.51  26 2.54  37 2.57  64 2.65  58 2.69
                            51 2.70  57 2.71  21 2.82  73 2.87
  75  0.793  0.382  0.319-  65 2.59  67 2.60  29 2.64  39 2.65   9 2.65  15 2.68  32 2.69  18 2.69
                            44 2.70   7 2.71  22 2.72  60 2.75
  76  0.795  0.374  0.043-  41 2.44  51 2.45  69 2.46  40 2.55  23 2.66  46 2.68  71 2.68  62 2.72
                            56 2.73
  77  0.955  0.056  0.222-  41 2.50  24 2.55  60 2.56  22 2.56  66 2.56  67 2.57   2 2.60  65 2.63
                            59 2.74  55 2.82  79 2.84  28 2.93
  78  0.460  0.796  0.225-  61 2.48  55 2.50  80 2.53  38 2.53  52 2.53  73 2.56  79 2.61  44 2.62
                            54 2.63  32 2.66  49 2.67  26 2.71
  79  0.218  0.797  0.225-  52 2.51  24 2.51  55 2.53  30 2.55  58 2.55   2 2.56  78 2.61  73 2.61
                            26 2.65  64 2.82  77 2.84  28 2.93
  80  0.461  0.027  0.223-  38 2.47  48 2.48  61 2.51  78 2.53  19 2.54  55 2.54  57 2.56  49 2.62
                            43 2.62  31 2.77  59 2.78  68 2.88
  81  0.534  0.126  0.463-  13 1.78  11 1.84  17 1.93
 
  LATTYP: Found a hexagonal cell.
 ALAT       =    10.8599996567
 C/A-ratio  =     2.0257827528
  
  Lattice vectors:
  
 A1 = (   5.4299998284,  -9.4050355878,   0.0000000000)
 A2 = ( -10.8599996567,   0.0000000000,   0.0000000000)
 A3 = (   0.0000000000,   0.0000000000, -22.0000000000)


Analysis of symmetry for initial positions (statically):
=====================================================================
 Subroutine PRICEL returns:
 Original cell was already a primitive cell.
 

 Routine SETGRP: Setting up the symmetry group for a 
 hexagonal supercell.


 Subroutine GETGRP returns: Found  1 space group operations
 (whereof  1 operations were pure point group operations)
 out of a pool of 24 trial point group operations.


The static configuration has the point symmetry C_1 .


Analysis of symmetry for dynamics (positions and initial velocities):
=====================================================================
 Subroutine PRICEL returns:
 Original cell was already a primitive cell.
 

 Routine SETGRP: Setting up the symmetry group for a 
 hexagonal supercell.


 Subroutine GETGRP returns: Found  1 space group operations
 (whereof  1 operations were pure point group operations)
 out of a pool of 24 trial point group operations.


The dynamic configuration has the point symmetry C_1 .


Analysis of constrained symmetry for selective dynamics:
=====================================================================
 Subroutine PRICEL returns:
 Original cell was already a primitive cell.
 

 Routine SETGRP: Setting up the symmetry group for a 
 hexagonal supercell.


 Subroutine GETGRP returns: Found  1 space group operations
 (whereof  1 operations were pure point group operations)
 out of a pool of 24 trial point group operations.


The constrained configuration has the point symmetry C_1 .


Analysis of structural, dynamic, and magnetic symmetry:
=====================================================================
 Subroutine PRICEL returns:
 Original cell was already a primitive cell.
 

 Routine SETGRP: Setting up the symmetry group for a 
 hexagonal supercell.


 Subroutine GETGRP returns: Found  1 space group operations
 (whereof  1 operations were pure point group operations)
 out of a pool of 24 trial point group operations.


The magnetic configuration has the point symmetry C_1 .


 Subroutine INISYM returns: Found  1 space group operations
 (whereof  1 operations are pure point group operations),
 and found     1 'primitive' translations

 
 
 KPOINTS: mesh auto                               

Automatic generation of k-mesh.
Space group operators:
 irot       det(A)        alpha          n_x          n_y          n_z        tau_x        tau_y        tau_z
    1     1.000000     0.000001     1.000000     0.000000     0.000000     0.000000     0.000000     0.000000
 
 Subroutine IBZKPT returns following result:
 ===========================================
 
 Found      4 irreducible k-points:
 
 Following reciprocal coordinates:
            Coordinates               Weight
  0.000000  0.000000  0.000000      1.000000
  0.500000  0.000000  0.000000      1.000000
  0.000000  0.500000  0.000000      1.000000
  0.500000  0.500000  0.000000      1.000000
 
 Following cartesian coordinates:
            Coordinates               Weight
  0.000000  0.000000  0.000000      1.000000
  0.046041 -0.026582  0.000000      1.000000
  0.000000  0.053163  0.000000      1.000000
  0.046041  0.026582  0.000000      1.000000
 


--------------------------------------------------------------------------------------------------------




 Dimension of arrays:
   k-points           NKPTS =      4   k-points in BZ     NKDIM =      4   number of bands    NBANDS=    588
   number of dos      NEDOS =    301   number of ions     NIONS =     81
   non local maximal  LDIM  =      6   non local SUM 2l+1 LMDIM =     18
   total plane-waves  NPLWV = ******
   max r-space proj   IRMAX =   7380   max aug-charges    IRDMAX=  32147
   dimension x,y,z NGX =    84 NGY =   84 NGZ =  168
   dimension x,y,z NGXF=   168 NGYF=  168 NGZF=  336
   support grid    NGXF=   168 NGYF=  168 NGZF=  336
   ions per type =              32  13  10  13  12   1
   NGX,Y,Z   is equivalent  to a cutoff of  12.86, 12.86, 12.70 a.u.
   NGXF,Y,Z  is equivalent  to a cutoff of  25.72, 25.72, 25.39 a.u.

 SYSTEM =  Pt111                                   
 POSCAR =  10.86                                   

 Startparameter for this run:
   NWRITE =      2    write-flag & timer
   PREC   = accura    normal or accurate (medium, high low for compatibility)
   ISTART =      0    job   : 0-new  1-cont  2-samecut
   ICHARG =      2    charge: 1-file 2-atom 10-const
   ISPIN  =      2    spin polarized calculation?
   LNONCOLLINEAR =      F non collinear calculations
   LSORBIT =      F    spin-orbit coupling
   INIWAV =      1    electr: 0-lowe 1-rand  2-diag
   LASPH  =      F    aspherical Exc in radial PAW
   METAGGA=      F    non-selfconsistent MetaGGA calc.

 Electronic Relaxation 1
   ENCUT  =  550.0 eV  40.42 Ry    6.36 a.u.  20.77 20.77 42.07*2*pi/ulx,y,z
   ENINI  =  550.0     initial cutoff
   ENAUG  =  587.0 eV  augmentation charge cutoff
   NELM   =    200;   NELMIN=  2; NELMDL= -5     # of ELM steps 
   EDIFF  = 0.1E-04   stopping-criterion for ELM
   LREAL  =      T    real-space projection
   NLSPLINE    = F    spline interpolate recip. space projectors
   LCOMPAT=      F    compatible to vasp.4.4
   GGA_COMPAT  = T    GGA compatible to vasp.4.4-vasp.4.6
   LMAXPAW     = -100 max onsite density
   LMAXMIX     =    2 max onsite mixed and CHGCAR
   VOSKOWN=      0    Vosko Wilk Nusair interpolation
   ROPT   =   -0.00025  -0.00025  -0.00025  -0.00025
   ROPT   =   -0.00025  -0.00025
 Ionic relaxation
   EDIFFG = -.5E-01   stopping-criterion for IOM
   NSW    =    300    number of steps for IOM
   NBLOCK =      1;   KBLOCK =    300    inner block; outer block 
   IBRION =      2    ionic relax: 0-MD 1-quasi-New 2-CG
   NFREE  =      1    steps in history (QN), initial steepest desc. (CG)
   ISIF   =      2    stress and relaxation
   IWAVPR =     11    prediction:  0-non 1-charg 2-wave 3-comb
   ISYM   =      2    0-nonsym 1-usesym 2-fastsym
   LCORR  =      T    Harris-Foulkes like correction to forces

   POTIM  = 0.5000    time-step for ionic-motion
   TEIN   =    0.0    initial temperature
   TEBEG  =    0.0;   TEEND  =   0.0 temperature during run
   SMASS  =  -3.00    Nose mass-parameter (am)
   estimated Nose-frequenzy (Omega)   =  0.10E-29 period in steps =****** mass=  -0.270E-26a.u.
   SCALEE = 1.0000    scale energy and forces
   NPACO  =    256;   APACO  = 16.0  distance and # of slots for P.C.
   PSTRESS=    0.0 pullay stress

  Mass of Ions in am
   POMASS = 195.08 55.85 58.93 63.55 58.69  1.00
  Ionic Valenz
   ZVAL   =  10.00  8.00  9.00 11.00 10.00  1.00
  Atomic Wigner-Seitz radii
   RWIGS  =  -1.00 -1.00 -1.00 -1.00 -1.00 -1.00
  virtual crystal weights 
   VCA    =   1.00  1.00  1.00  1.00  1.00  1.00
   NELECT =     778.0000    total number of electrons
   NUPDOWN=      -1.0000    fix difference up-down

 DOS related values:
   EMIN   =  10.00;   EMAX   =-10.00  energy-range for DOS
   EFERMI =   0.00
   ISMEAR =     1;   SIGMA  =   0.10  broadening in eV -4-tet -1-fermi 0-gaus

 Electronic relaxation 2 (details)
   IALGO  =     68    algorithm
   LDIAG  =      T    sub-space diagonalisation (order eigenvalues)
   LSUBROT=      F    optimize rotation matrix (better conditioning)
   TURBO    =      0    0=normal 1=particle mesh
   IRESTART =      0    0=no restart 2=restart with 2 vectors
   NREBOOT  =      0    no. of reboots
   NMIN     =      0    reboot dimension
   EREF     =   0.00    reference energy to select bands
   IMIX   =      4    mixing-type and parameters
     AMIX     =   0.40;   BMIX     =  1.00
     AMIX_MAG =   1.60;   BMIX_MAG =  1.00
     AMIN     =   0.10
     WC   =   100.;   INIMIX=   1;  MIXPRE=   1;  MAXMIX= -45

 Intra band minimization:
   WEIMIN = 0.0010     energy-eigenvalue tresh-hold
   EBREAK =  0.43E-08  absolut break condition
   DEPER  =   0.30     relativ break condition  

   TIME   =   0.40     timestep for ELM

  volume/ion in A,a.u.               =      27.74       187.21
  Fermi-wavevector in a.u.,A,eV,Ry     =   1.149557  2.172347 17.979834  1.321481
  Thomas-Fermi vector in A             =   2.286226
 
 Write flags
   LWAVE        =      F    write WAVECAR
   LDOWNSAMPLE  =      F    k-point downsampling of WAVECAR
   LCHARG       =      F    write CHGCAR
   LVTOT        =      F    write LOCPOT, total local potential
   LVHAR        =      F    write LOCPOT, Hartree potential only
   LELF         =      F    write electronic localiz. function (ELF)
   LORBIT       =      0    0 simple, 1 ext, 2 COOP (PROOUT), +10 PAW based schemes


 Dipole corrections
   LMONO  =      F    monopole corrections only (constant potential shift)
   LDIPOL =      F    correct potential (dipole corrections)
   IDIPOL =      0    1-x, 2-y, 3-z, 4-all directions 
   EPSILON=  1.0000000 bulk dielectric constant

 Exchange correlation treatment:
   GGA     =    --    GGA type
   LEXCH   =     8    internal setting for exchange type
   VOSKOWN=      0    Vosko Wilk Nusair interpolation
   LHFCALC =     F    Hartree Fock is set to
   LHFONE  =     F    Hartree Fock one center treatment
   AEXX    =    0.0000 exact exchange contribution

 Linear response parameters
   LEPSILON=     F    determine dielectric tensor
   LRPA    =     F    only Hartree local field effects (RPA)
   LNABLA  =     F    use nabla operator in PAW spheres
   LVEL    =     F    velocity operator in full k-point grid
   LINTERFAST=   F  fast interpolation
   KINTER  =     0    interpolate to denser k-point grid
   CSHIFT  =0.1000    complex shift for real part using Kramers Kronig
   OMEGAMAX=  -1.0    maximum frequency
   DEG_THRESHOLD= 0.2000000E-02 threshold for treating states as degnerate
   RTIME   =   -0.100 relaxation time in fs
  (WPLASMAI=    0.000 imaginary part of plasma frequency in eV, 0.658/RTIME)
   DFIELD  = 0.0000000 0.0000000 0.0000000 field for delta impulse in time
 
 Orbital magnetization related:
   ORBITALMAG=     F  switch on orbital magnetization
   LCHIMAG   =     F  perturbation theory with respect to B field
   DQ        =  0.001000  dq finite difference perturbation B field
   LLRAUG    =     F  two centre corrections for induced B field



--------------------------------------------------------------------------------------------------------


 conjugate gradient relaxation of ions
   using selective dynamics as specified on POSCAR
 charge density and potential will be updated during run
 spin polarized calculation
 RMM-DIIS sequential band-by-band and
  variant of blocked Davidson during initial phase
 perform sub-space diagonalisation
    before iterative eigenvector-optimisation
 modified Broyden-mixing scheme, WC =      100.0
 initial mixing is a Kerker type mixing with AMIX =  0.4000 and BMIX =      1.0000
 Hartree-type preconditioning will be used
 using additional bands          199
 real space projection scheme for non local part
 use partial core corrections
 calculate Harris-corrections to forces 
   (improved forces if not selfconsistent)
 use gradient corrections 
 use of overlap-Matrix (Vanderbilt PP)
 Methfessel and Paxton  Order N= 1 SIGMA  =   0.10


--------------------------------------------------------------------------------------------------------


  energy-cutoff  :      550.00
  volume of cell :     2247.05
      direct lattice vectors                 reciprocal lattice vectors
    10.859999657  0.000000000  0.000000000     0.092081034 -0.053163010  0.000000000
     5.429999828  9.405035588  0.000000000     0.000000000  0.106326020  0.000000000
     0.000000000  0.000000000 22.000000000     0.000000000  0.000000000  0.045454545

  length of vectors
    10.859999657 10.859999657 22.000000000     0.106326020  0.106326020  0.045454545


 
 k-points in units of 2pi/SCALE and weight: mesh auto                               
   0.00000000  0.00000000  0.00000000       0.250
   0.04604052 -0.02658150  0.00000000       0.250
   0.00000000  0.05316301  0.00000000       0.250
   0.04604052  0.02658150  0.00000000       0.250
 
 k-points in reciprocal lattice and weights: mesh auto                               
   0.00000000  0.00000000  0.00000000       0.250
   0.50000000  0.00000000  0.00000000       0.250
   0.00000000  0.50000000  0.00000000       0.250
   0.50000000  0.50000000  0.00000000       0.250
 
 position of ions in fractional coordinates (direct lattice) 
   0.78590659  0.88020874  0.31524800
   0.04257364  0.88177964  0.31370973
   0.27915875  0.38064670  0.31692810
   0.87019317  0.96469293  0.42059480
   0.11910411  0.46412808  0.42183603
   0.12590040  0.96354724  0.41888153
   0.87497682  0.45849172  0.42177784
   0.37351107  0.96016846  0.41627808
   0.87133592  0.21392693  0.41557518
   0.12593070  0.21269212  0.41782953
   0.62423098  0.96005486  0.41886136
   0.87215243  0.70997132  0.42130498
   0.37466262  0.20841756  0.41949267
   0.37825765  0.71135960  0.41847626
   0.62610267  0.46220814  0.41803141
   0.12654405  0.70651036  0.42340325
   0.62422487  0.21060947  0.41708615
   0.54742151  0.37652352  0.31512903
   0.53351562  0.12532292  0.31279272
   0.54838833  0.12337347  0.04616746
   0.11897632  0.45840873  0.12986490
   0.04519691  0.13481382  0.31292212
   0.04066573  0.13149863  0.03673280
   0.13095494  0.95789127  0.13392649
   0.37415356  0.46077425  0.42048794
   0.45565223  0.54806677  0.21862214
   0.62164913  0.71224100  0.41944012
   0.95463232  0.78624459  0.22047772
   0.79516797  0.62339251  0.31784064
   0.28950236  0.63151888  0.31649645
   0.20027086  0.27704785  0.22602515
   0.70458292  0.55163211  0.22088515
   0.04025146  0.63259584  0.32276453
   0.79551100  0.86095123  0.04803851
   0.05739494  0.86293659  0.04269821
   0.04587539  0.63174243  0.04254194
   0.62839887  0.22641754  0.13184280
   0.38235880  0.95332843  0.13196947
   0.03496334  0.38411755  0.32212798
   0.02680797  0.37973819  0.04163164
   0.87237911  0.21580924  0.13075454
   0.95470242  0.54363827  0.22446703
   0.29778641  0.11532772  0.31966125
   0.54097877  0.62778136  0.32012546
   0.29450499  0.11703562  0.04414884
   0.55196850  0.62406631  0.04671093
   0.29607773  0.38273525  0.04410119
   0.62495157  0.94618873  0.13463855
   0.70730076  0.79195600  0.22069804
   0.86416424  0.70149040  0.13101985
   0.62840973  0.45654274  0.12888101
   0.29795006  0.87334357  0.31736468
   0.30340848  0.87503324  0.04361807
   0.62639551  0.71686996  0.12943899
   0.22824609  0.02519273  0.22797437
   0.54119566  0.37869383  0.03864044
   0.37588607  0.20624082  0.13551792
   0.13910459  0.70498816  0.13510658
   0.70439885  0.05140639  0.22049063
   0.79314448  0.12865017  0.31534633
   0.53912410  0.87242739  0.31621751
   0.79634723  0.12315750  0.03929397
   0.54409452  0.87593854  0.03924591
   0.20790243  0.54310364  0.22378593
   0.94893253  0.30075086  0.22244782
   0.87251125  0.96557984  0.13164478
   0.71714769  0.29144814  0.22456062
   0.45673307  0.29458484  0.22130469
   0.87502942  0.45728685  0.13000961
   0.12698014  0.20542845  0.13067041
   0.79570639  0.62023288  0.04302802
   0.29386926  0.62662746  0.04632212
   0.38503102  0.71488529  0.12987367
   0.38167182  0.45223852  0.12905631
   0.79263017  0.38181100  0.31912704
   0.79479377  0.37390398  0.04303644
   0.95461703  0.05594721  0.22179318
   0.45953371  0.79572721  0.22516979
   0.21814710  0.79732026  0.22492198
   0.46108295  0.02748800  0.22321297
   0.53356031  0.12589538  0.46303984
 
 position of ions in cartesian coordinates  (Angst):
  13.31447860  8.27839457  6.93545601
   5.25041305  8.29316891  6.90161400
   5.09857541  3.57999573  6.97241823
  14.68858001  9.07297136  9.25308569
   3.81368605  4.36514115  9.28039260
   6.59933968  9.06219610  9.21539374
  11.99185797  4.31213095  9.27911242
   9.27004463  9.03041851  9.15811781
  10.62433106  2.01199043  9.14265403
   2.52252555  2.00037700  9.19224965
  11.99224599  9.02935010  9.21494983
  13.32671927  6.67730555  9.26870945
   5.20054319  1.96017455  9.22883871
   7.97056043  6.69036233  9.20647782
   9.30926491  4.34708399  9.19669105
   5.21061952  6.64475508  9.31487152
   7.92269128  1.98078954  9.17589539
   7.98952006  3.54121711  6.93283870
   6.47448293  1.17866656  6.88143981
   6.62541500  1.16033190  1.01568419
   3.78124213  4.31135041  2.85702788
   1.22287740  1.26792875  6.88428671
   1.15566737  1.23674932  0.80812154
   6.62352002  9.00900149  2.94638274
   6.56531168  4.33359822  9.25073475
   7.92438554  5.15458743  4.80968704
  10.61857789  6.69865194  9.22768255
  14.63661464  7.39465836  4.85050991
  12.02054516  5.86302877  6.99249403
   6.57314290  5.93945753  6.96292184
   3.67931125  2.60564485  4.97255331
  10.64713259  5.18811965  4.85947330
   3.87212614  5.94958636  7.10081957
  13.31421424  8.09727694  1.05684727
   5.30905455  8.11594932  0.93936063
   3.92856797  5.94156004  0.93592272
   8.05385868  2.12946499  2.90054150
   9.32898959  8.96608780  2.90332824
   2.46546009  3.61263925  7.08681556
   2.35311289  3.57145122  0.91589603
  10.64588090  2.02969355  2.87659996
  13.32002369  5.11293728  4.93827471
   3.86018984  1.08466134  7.03254748
   9.28388194  5.90430608  7.04276009
   3.83382754  1.10072422  0.97127449
   9.38305771  5.86936583  1.02764050
   5.29365641  3.59963866  0.97022617
  11.92477847  8.89893867  2.96204804
  11.98160699  7.44837437  4.85535685
  13.19391605  6.59754215  2.88243667
   9.30355646  4.29380068  2.83538226
   7.97799297  8.21382733  6.98202303
   8.04644638  8.22971881  0.95959753
  10.69525881  6.74218749  2.84765773
   2.61554891  0.23693848  5.01543608
   7.93369212  3.56162890  0.85008961
   5.20201026  1.93970225  2.98139421
   5.33876141  6.63043871  2.97234485
   7.92890800  0.48347894  4.85079390
   9.31211921  1.20995941  6.93761933
  10.59216817  8.20521066  6.95678528
   9.31707587  1.15830066  0.86446726
  10.66521242  8.23823315  0.86341001
   5.20687297  5.10790903  4.92329037
  11.93848408  2.82857251  4.89385205
  14.71857022  9.08131274  2.89618505
   9.37078710  2.74108017  4.94033374
   6.55971659  2.77058089  4.86870315
  11.98588670  4.30079906  2.86021139
   2.49448074  1.93206192  2.87474900
  12.00923557  5.83331228  0.94661646
   6.59400710  5.89345359  1.01908661
   8.06326377  6.72352161  2.85722084
   6.60061090  4.25331933  2.83923887
  10.68119700  3.59094600  7.02079478
  10.66175863  3.51658022  0.94680163
  10.67093399  0.52618548  4.87945005
   9.31133460  7.48384275  4.95373546
   6.69852636  7.49882547  4.94828364
   5.15662057  0.25852564  4.91068524
   6.47807667  1.18405056 10.18687646
 


--------------------------------------------------------------------------------------------------------


 k-point  1 :   0.0000 0.0000 0.0000  plane waves:   65767
 k-point  2 :   0.5000 0.0000 0.0000  plane waves:   65808
 k-point  3 :   0.0000 0.5000 0.0000  plane waves:   65808
 k-point  4 :   0.5000 0.5000 0.0000  plane waves:   65808

 maximum and minimum number of plane-waves per node :     16481    16415

 maximum number of plane-waves:     65808
 maximum index in each direction: 
   IXMAX=   20   IYMAX=   20   IZMAX=   42
   IXMIN=  -21   IYMIN=  -21   IZMIN=  -42


 real space projection operators:
  total allocation   :      73593.73 KBytes
  max/ min on nodes  :      18405.70      18384.18


 parallel 3D FFT for wavefunctions:
    minimum data exchange during FFTs selected (reduces bandwidth)
 parallel 3D FFT for charge:
    minimum data exchange during FFTs selected (reduces bandwidth)


 total amount of memory used by VASP MPI-rank0   234350. kBytes
=======================================================================

   base      :      30000. kBytes
   nonlr-proj:      32779. kBytes
   fftplans  :      16141. kBytes
   grid      :      49182. kBytes
   one-center:        653. kBytes
   wavefun   :     105595. kBytes
 
     INWAV:  cpu time    0.0000: real time    0.0003
 Broyden mixing: mesh for mixing (old mesh)
   NGX = 41   NGY = 41   NGZ = 85
  (NGX  =168   NGY  =168   NGZ  =336)
  gives a total of 142885 points

 initial charge density was supplied:
 charge density of overlapping atoms calculated
 number of electron     778.0000000 magnetization     231.0000000
 keeping initial charge density in first step


--------------------------------------------------------------------------------------------------------


 Maximum index for non-local projection operator         1800
 Maximum index for augmentation-charges         1400 (set IRDMAX)


--------------------------------------------------------------------------------------------------------


 First call to EWALD:  gamma=   0.135
 Maximum number of real-space cells 4x 4x 2
 Maximum number of reciprocal cells 2x 2x 4

    FEWALD:  cpu time    0.0055: real time    0.0055


--------------------------------------- Iteration      1(   1)  ---------------------------------------


    POTLOK:  cpu time    0.3741: real time    0.3767
    SETDIJ:  cpu time    0.0303: real time    0.0304
     EDDAV:  cpu time   60.0774: real time   60.2601
       DOS:  cpu time    0.0023: real time    0.0119
    --------------------------------------------
      LOOP:  cpu time   60.4842: real time   60.6791

 eigenvalue-minimisations  :  9408
 total energy-change (2. order) : 0.7711133E+04  (-0.3285298E+05)
 number of electron     778.0000000 magnetization     231.0000000
 augmentation part      778.0000000 magnetization     231.0000000

 Free energy of the ion-electron system (eV)
  ---------------------------------------------------
  alpha Z        PSCENC =      2116.97411455
  Ewald energy   TEWEN  =    220594.48479687
  -Hartree energ DENC   =   -292509.24900956
  -exchange      EXHF   =         0.00000000
  -V(xc)+E(xc)   XCENC  =      1378.61675014
  PAW double counting   =     64136.80006862   -66038.70876209
  entropy T*S    EENTRO =         0.00286957
  eigenvalues    EBANDS =      7813.55718077
  atomic energy  EATOM  =     70218.65458108
  Solvation  Ediel_sol  =         0.00000000
  ---------------------------------------------------
  free energy    TOTEN  =      7711.13258996 eV

  energy without entropy =     7711.12972039  energy(sigma->0) =     7711.13163343


--------------------------------------------------------------------------------------------------------




--------------------------------------- Iteration      1(   2)  ---------------------------------------


     EDDAV:  cpu time   60.1896: real time   60.5407
       DOS:  cpu time    0.0027: real time    0.0062
    --------------------------------------------
      LOOP:  cpu time   60.1923: real time   60.5469

 eigenvalue-minimisations  :  9408
 total energy-change (2. order) :-0.6917136E+04  (-0.6196926E+04)
 number of electron     778.0000000 magnetization     231.0000000
 augmentation part      778.0000000 magnetization     231.0000000

 Free energy of the ion-electron system (eV)
  ---------------------------------------------------
  alpha Z        PSCENC =      2116.97411455
  Ewald energy   TEWEN  =    220594.48479687
  -Hartree energ DENC   =   -292509.24900956
  -exchange      EXHF   =         0.00000000
  -V(xc)+E(xc)   XCENC  =      1378.61675014
  PAW double counting   =     64136.80006862   -66038.70876209
  entropy T*S    EENTRO =         0.00077819
  eigenvalues    EBANDS =       896.42368620
  atomic energy  EATOM  =     70218.65458108
  Solvation  Ediel_sol  =         0.00000000
  ---------------------------------------------------
  free energy    TOTEN  =       793.99700401 eV

  energy without entropy =      793.99622581  energy(sigma->0) =      793.99674461


--------------------------------------------------------------------------------------------------------




--------------------------------------- Iteration      1(   3)  ---------------------------------------


     EDDAV:  cpu time   60.0617: real time   60.3413
       DOS:  cpu time    0.0027: real time    0.0039
    --------------------------------------------
      LOOP:  cpu time   60.0644: real time   60.3452

 eigenvalue-minimisations  :  9408
 total energy-change (2. order) :-0.1171084E+04  (-0.9484450E+03)
 number of electron     778.0000000 magnetization     231.0000000
 augmentation part      778.0000000 magnetization     231.0000000

 Free energy of the ion-electron system (eV)
  ---------------------------------------------------
  alpha Z        PSCENC =      2116.97411455
  Ewald energy   TEWEN  =    220594.48479687
  -Hartree energ DENC   =   -292509.24900956
  -exchange      EXHF   =         0.00000000
  -V(xc)+E(xc)   XCENC  =      1378.61675014
  PAW double counting   =     64136.80006862   -66038.70876209
  entropy T*S    EENTRO =         0.00285368
  eigenvalues    EBANDS =      -274.66216510
  atomic energy  EATOM  =     70218.65458108
  Solvation  Ediel_sol  =         0.00000000
  ---------------------------------------------------
  free energy    TOTEN  =      -377.08677181 eV

  energy without entropy =     -377.08962548  energy(sigma->0) =     -377.08772303


--------------------------------------------------------------------------------------------------------




--------------------------------------- Iteration      1(   4)  ---------------------------------------


     EDDAV:  cpu time   72.1684: real time   72.4251
       DOS:  cpu time    0.0028: real time    0.0069
    --------------------------------------------
      LOOP:  cpu time   72.1712: real time   72.4320

 eigenvalue-minimisations  : 11940
 total energy-change (2. order) :-0.1154158E+03  (-0.1055421E+03)
 number of electron     778.0000000 magnetization     231.0000000
 augmentation part      778.0000000 magnetization     231.0000000

 Free energy of the ion-electron system (eV)
  ---------------------------------------------------
  alpha Z        PSCENC =      2116.97411455
  Ewald energy   TEWEN  =    220594.48479687
  -Hartree energ DENC   =   -292509.24900956
  -exchange      EXHF   =         0.00000000
  -V(xc)+E(xc)   XCENC  =      1378.61675014
  PAW double counting   =     64136.80006862   -66038.70876209
  entropy T*S    EENTRO =        -0.01368791
  eigenvalues    EBANDS =      -390.06137974
  atomic energy  EATOM  =     70218.65458108
  Solvation  Ediel_sol  =         0.00000000
  ---------------------------------------------------
  free energy    TOTEN  =      -492.50252804 eV

  energy without entropy =     -492.48884013  energy(sigma->0) =     -492.49796540


--------------------------------------------------------------------------------------------------------




--------------------------------------- Iteration      1(   5)  ---------------------------------------


     EDDAV:  cpu time   68.2153: real time   68.5768
       DOS:  cpu time    0.0029: real time    0.0226
    CHARGE:  cpu time    3.7492: real time    3.7592
    MIXING:  cpu time    0.0096: real time    0.0097
    --------------------------------------------
      LOOP:  cpu time   71.9771: real time   72.3684

 eigenvalue-minimisations  : 11124
 total energy-change (2. order) :-0.4347948E+01  (-0.4310482E+01)
 number of electron     778.0000037 magnetization     216.7156676
 augmentation part      335.1409397 magnetization     183.6549802

 Broyden mixing:
  rms(total) = 0.11435E+02    rms(broyden)= 0.11435E+02
  rms(prec ) = 0.11791E+02
  weight for this iteration     100.00

 Free energy of the ion-electron system (eV)
  ---------------------------------------------------
  alpha Z        PSCENC =      2116.97411455
  Ewald energy   TEWEN  =    220594.48479687
  -Hartree energ DENC   =   -292509.24900956
  -exchange      EXHF   =         0.00000000
  -V(xc)+E(xc)   XCENC  =      1378.61675014
  PAW double counting   =     64136.80006862   -66038.70876209
  entropy T*S    EENTRO =        -0.01404806
  eigenvalues    EBANDS =      -394.40896740
  atomic energy  EATOM  =     70218.65458108
  Solvation  Ediel_sol  =         0.00000000
  ---------------------------------------------------
  free energy    TOTEN  =      -496.85047584 eV

  energy without entropy =     -496.83642779  energy(sigma->0) =     -496.84579316


--------------------------------------------------------------------------------------------------------




--------------------------------------- Iteration      1(   6)  ---------------------------------------


    POTLOK:  cpu time    0.3538: real time    0.3673
    SETDIJ:  cpu time    0.0301: real time    0.0302
    EDDIAG:  cpu time   10.7079: real time   10.7386
  RMM-DIIS:  cpu time   36.9583: real time   37.1597
    ORTHCH:  cpu time    1.2943: real time    1.2978
       DOS:  cpu time    0.0025: real time    0.0025
    CHARGE:  cpu time    3.6078: real time    3.6176
    MIXING:  cpu time    0.0106: real time    0.0110
    --------------------------------------------
      LOOP:  cpu time   52.9652: real time   53.2247

 eigenvalue-minimisations  :  9608
 total energy-change (2. order) :-0.2234268E+03  (-0.9796754E+02)
 number of electron     778.0000042 magnetization     212.9741318
 augmentation part      407.3277911 magnetization     179.6237778

 Broyden mixing:
  rms(total) = 0.20748E+02    rms(broyden)= 0.20748E+02
  rms(prec ) = 0.27268E+02
  weight for this iteration     100.00

 eigenvalues of (default mixing * dielectric matrix)
  average eigenvalue GAMMA=   0.2009
  0.2009

 Free energy of the ion-electron system (eV)
  ---------------------------------------------------
  alpha Z        PSCENC =      2116.97411455
  Ewald energy   TEWEN  =    220594.48479687
  -Hartree energ DENC   =   -290898.49758777
  -exchange      EXHF   =         0.00000000
  -V(xc)+E(xc)   XCENC  =      1332.95578262
  PAW double counting   =     68643.01405743   -70324.84631393
  entropy T*S    EENTRO =        -0.00685677
  eigenvalues    EBANDS =     -2403.00980311
  atomic energy  EATOM  =     70218.65458108
  Solvation  Ediel_sol  =         0.00000000
  ---------------------------------------------------
  free energy    TOTEN  =      -720.27722904 eV

  energy without entropy =     -720.27037226  energy(sigma->0) =     -720.27494344


--------------------------------------------------------------------------------------------------------




--------------------------------------- Iteration      1(   7)  ---------------------------------------


    POTLOK:  cpu time    0.3518: real time    0.3665
    SETDIJ:  cpu time    0.0477: real time    0.1266
    EDDIAG:  cpu time   10.6549: real time   10.6849
  RMM-DIIS:  cpu time   36.2746: real time   36.4166
    ORTHCH:  cpu time    1.3249: real time    1.3953
       DOS:  cpu time    0.0020: real time    0.0020
    CHARGE:  cpu time    3.6161: real time    3.6348
    MIXING:  cpu time    0.0106: real time    0.0108
    --------------------------------------------
      LOOP:  cpu time   52.2826: real time   52.6376

 eigenvalue-minimisations  :  9420
 total energy-change (2. order) : 0.2121713E+03  (-0.1583280E+02)
 number of electron     778.0000041 magnetization     208.1969884
 augmentation part      371.9444055 magnetization     165.1467115

 Broyden mixing:
  rms(total) = 0.14451E+02    rms(broyden)= 0.14451E+02
  rms(prec ) = 0.18927E+02
  weight for this iteration     100.00

 eigenvalues of (default mixing * dielectric matrix)
  average eigenvalue GAMMA=   0.2637
  0.3561  0.1712

 Free energy of the ion-electron system (eV)
  ---------------------------------------------------
  alpha Z        PSCENC =      2116.97411455
  Ewald energy   TEWEN  =    220594.48479687
  -Hartree energ DENC   =   -291550.76864839
  -exchange      EXHF   =         0.00000000
  -V(xc)+E(xc)   XCENC  =      1351.69893822
  PAW double counting   =     69594.05929530   -71427.88892047
  entropy T*S    EENTRO =        -0.01064787
  eigenvalues    EBANDS =     -1405.30941663
  atomic energy  EATOM  =     70218.65458108
  Solvation  Ediel_sol  =         0.00000000
  ---------------------------------------------------
  free energy    TOTEN  =      -508.10590734 eV

  energy without entropy =     -508.09525947  energy(sigma->0) =     -508.10235805


--------------------------------------------------------------------------------------------------------




--------------------------------------- Iteration      1(   8)  ---------------------------------------


    POTLOK:  cpu time    0.3615: real time    0.3863
    SETDIJ:  cpu time    0.0299: real time    0.0301
    EDDIAG:  cpu time   10.6553: real time   10.6893
  RMM-DIIS:  cpu time   36.4330: real time   36.5484
    ORTHCH:  cpu time    1.2775: real time    1.2809
       DOS:  cpu time    0.0028: real time    0.0028
    CHARGE:  cpu time    3.5568: real time    3.5665
    MIXING:  cpu time    0.0106: real time    0.0108
    --------------------------------------------
      LOOP:  cpu time   52.3274: real time   52.5151

 eigenvalue-minimisations  :  9440
 total energy-change (2. order) : 0.3244551E+02  (-0.1287580E+02)
 number of electron     778.0000049 magnetization     201.0145948
 augmentation part      373.8768685 magnetization     163.8717458

 Broyden mixing:
  rms(total) = 0.15997E+02    rms(broyden)= 0.15997E+02
  rms(prec ) = 0.18712E+02
  weight for this iteration     100.00

 eigenvalues of (default mixing * dielectric matrix)
  average eigenvalue GAMMA=   0.3096
  0.5794  0.2655  0.0838

 Free energy of the ion-electron system (eV)
  ---------------------------------------------------
  alpha Z        PSCENC =      2116.97411455
  Ewald energy   TEWEN  =    220594.48479687
  -Hartree energ DENC   =   -291784.88142571
  -exchange      EXHF   =         0.00000000
  -V(xc)+E(xc)   XCENC  =      1358.67078671
  PAW double counting   =     70773.16000977   -72684.24621815
  entropy T*S    EENTRO =        -0.01030157
  eigenvalues    EBANDS =     -1068.46674092
  atomic energy  EATOM  =     70218.65458108
  Solvation  Ediel_sol  =         0.00000000
  ---------------------------------------------------
  free energy    TOTEN  =      -475.66039736 eV

  energy without entropy =     -475.65009580  energy(sigma->0) =     -475.65696351


--------------------------------------------------------------------------------------------------------




--------------------------------------- Iteration      1(   9)  ---------------------------------------


    POTLOK:  cpu time    0.3516: real time    0.3562
    SETDIJ:  cpu time    0.0301: real time    0.0302
    EDDIAG:  cpu time   10.7337: real time   10.7635
  RMM-DIIS:  cpu time   36.5235: real time   36.6650
    ORTHCH:  cpu time    1.2821: real time    1.2857
       DOS:  cpu time    0.0025: real time    0.0025
    CHARGE:  cpu time    3.5957: real time    3.6052
    MIXING:  cpu time    0.0116: real time    0.0118
    --------------------------------------------
      LOOP:  cpu time   52.5307: real time   52.7201

 eigenvalue-minimisations  :  9447
 total energy-change (2. order) : 0.7548427E+02  (-0.1559063E+02)
 number of electron     778.0000032 magnetization     193.3229938
 augmentation part      376.6332852 magnetization     146.8353418

 Broyden mixing:
  rms(total) = 0.12940E+02    rms(broyden)= 0.12940E+02
  rms(prec ) = 0.14639E+02
  weight for this iteration     100.00

 eigenvalues of (default mixing * dielectric matrix)
  average eigenvalue GAMMA=   0.3495
  0.8291  0.3441  0.1124  0.1124

 Free energy of the ion-electron system (eV)
  ---------------------------------------------------
  alpha Z        PSCENC =      2116.97411455
  Ewald energy   TEWEN  =    220594.48479687
  -Hartree energ DENC   =   -291544.54981977
  -exchange      EXHF   =         0.00000000
  -V(xc)+E(xc)   XCENC  =      1375.59541584
  PAW double counting   =     72123.20973666   -74087.13278067
  entropy T*S    EENTRO =         0.00333471
  eigenvalues    EBANDS =     -1197.41550730
  atomic energy  EATOM  =     70218.65458108
  Solvation  Ediel_sol  =         0.00000000
  ---------------------------------------------------
  free energy    TOTEN  =      -400.17612802 eV

  energy without entropy =     -400.17946273  energy(sigma->0) =     -400.17723959


[...]
   -.206E+01 0.316E+02 -.283E+04   0.266E+01 -.315E+02 0.283E+04   -.565E+00 -.988E-01 0.130E+01   -.403E-01 0.646E-01 -.174E-02
   -.153E+02 0.565E+01 -.282E+04   0.145E+02 -.506E+01 0.282E+04   0.721E+00 -.515E+00 0.185E+01   0.366E-01 -.741E-01 0.595E-01
   0.632E+01 0.120E+01 -.282E+04   -.641E+01 -.148E+01 0.282E+04   0.353E-02 0.243E+00 0.140E+01   0.984E-01 0.318E-02 -.605E-01
   -.233E+02 -.600E+01 -.286E+04   0.233E+02 0.544E+01 0.286E+04   -.118E-01 0.552E+00 0.190E+01   -.171E-01 -.183E-01 0.755E-01
   0.968E+01 -.269E+02 -.284E+04   -.104E+02 0.269E+02 0.284E+04   0.752E+00 0.887E-01 0.240E+01   -.120E-01 0.534E-02 -.392E-01
   -.296E+02 0.157E+02 -.285E+04   0.294E+02 -.155E+02 0.285E+04   0.224E+00 -.191E+00 0.147E+01   -.782E-02 -.254E-01 0.583E-01
   -.495E+01 -.156E+01 -.281E+04   0.545E+01 0.188E+01 0.281E+04   -.506E+00 -.226E+00 0.204E+01   0.461E-01 -.663E-01 0.195E-01
   -.120E+02 0.239E+01 -.284E+04   0.124E+02 -.345E+01 0.284E+04   -.362E+00 0.999E+00 0.612E+00   -.397E-01 0.511E-01 0.196E-01
   -.160E+02 0.213E+01 -.283E+04   0.163E+02 -.240E+01 0.283E+04   -.231E+00 0.235E+00 0.158E+01   -.557E-01 0.336E-01 0.539E-01
   0.129E+02 -.285E+02 -.281E+04   -.137E+02 0.285E+02 0.281E+04   0.842E+00 0.203E-01 0.697E+00   0.114E-01 -.357E-01 0.300E-01
   0.309E+02 0.135E+02 -.284E+04   -.303E+02 -.134E+02 0.284E+04   -.656E+00 -.175E+00 0.182E+01   0.282E-01 0.563E-01 -.223E-01
   0.258E+02 -.110E+02 -.284E+04   -.253E+02 0.114E+02 0.284E+04   -.463E+00 -.280E+00 0.174E+01   -.409E-01 0.522E-03 0.798E-01
   -.268E+01 -.330E+01 -.283E+04   0.224E+01 0.271E+01 0.282E+04   0.385E+00 0.594E+00 0.152E+01   0.584E-01 -.872E-03 0.135E-01
   0.221E+02 -.128E+02 -.283E+04   -.212E+02 0.134E+02 0.283E+04   -.941E+00 -.681E+00 0.120E+01   -.434E-01 0.335E-02 0.525E-01
   0.707E+02 -.596E+02 -.148E+04   -.693E+02 0.597E+02 0.147E+04   -.119E+01 -.689E-01 0.165E+01   -.863E-01 -.364E-01 0.149E-01
   0.241E+02 -.436E+02 -.147E+04   -.253E+02 0.432E+02 0.147E+04   0.115E+01 0.392E+00 0.257E+01   -.409E-01 -.327E-02 0.189E-01
   0.312E+02 0.248E+02 0.290E+04   -.312E+02 -.251E+02 -.290E+04   0.423E-01 0.217E+00 -.263E+01   -.710E-01 0.127E+00 -.431E-01
   0.201E+02 -.697E+01 0.155E+04   -.212E+02 0.777E+01 -.155E+04   0.100E+01 -.662E+00 0.908E+00   0.120E+00 -.789E-01 -.161E+00
   -.623E+02 0.118E+02 -.143E+04   0.630E+02 -.111E+02 0.142E+04   -.832E+00 -.569E+00 0.251E+01   0.121E+00 -.932E-01 -.235E-02
   -.460E+02 0.631E+02 0.298E+04   0.467E+02 -.618E+02 -.298E+04   -.786E+00 -.120E+01 -.244E+01   0.519E-01 -.300E-01 -.795E-02
   0.118E+02 -.501E+02 0.154E+04   -.116E+02 0.495E+02 -.154E+04   -.296E+00 0.545E+00 -.752E+00   0.562E-01 0.175E-01 -.578E-01
   0.132E+02 0.523E+01 -.282E+04   -.133E+02 -.477E+01 0.282E+04   0.706E-01 -.422E+00 0.136E+01   0.169E-01 -.663E-01 0.262E-01
   -.162E+02 0.330E+01 0.286E+02   0.163E+02 -.294E+01 -.297E+02   -.909E-01 -.447E+00 0.112E+01   -.573E-01 0.703E-02 -.230E-01
   -.139E+02 0.164E+02 -.285E+04   0.134E+02 -.165E+02 0.285E+04   0.615E+00 0.302E-01 0.176E+01   -.339E-01 0.551E-01 0.417E-01
   0.854E+01 0.465E+02 0.328E+02   -.955E+01 -.478E+02 -.328E+02   0.113E+01 0.131E+01 0.613E-01   0.327E-02 0.931E-02 -.903E-01
   -.628E+02 0.485E+01 -.144E+04   0.634E+02 -.606E+01 0.144E+04   -.515E+00 0.122E+01 0.278E+01   -.422E-01 0.632E-01 -.338E-02
   0.290E+02 0.304E+02 -.148E+04   -.290E+02 -.297E+02 0.148E+04   -.208E+00 -.726E+00 0.223E+01   0.783E-01 0.344E-01 0.492E-02
   -.211E+01 -.666E+02 -.711E+02   0.111E+01 0.660E+02 0.715E+02   0.106E+01 0.565E+00 -.309E+00   0.381E-01 -.814E-01 -.821E-01
   -.162E+02 -.198E+02 0.189E+02   0.169E+02 0.204E+02 -.195E+02   -.706E+00 -.792E+00 0.584E+00   -.163E-01 0.476E-01 -.281E-01
   0.181E+02 0.142E+02 -.119E+04   -.181E+02 -.145E+02 0.119E+04   0.520E-01 0.402E+00 0.267E+00   0.139E-01 -.194E-01 -.355E-01
   -.672E+02 -.957E+01 0.234E+04   0.674E+02 0.826E+01 -.233E+04   -.276E+00 0.134E+01 -.287E+01   0.486E-01 0.996E-02 -.454E-01
   0.354E+02 -.228E+02 0.238E+04   -.354E+02 0.211E+02 -.238E+04   -.237E-01 0.178E+01 -.268E+01   0.274E-02 -.143E-01 -.228E-01
   0.277E+02 0.159E+01 0.237E+04   -.277E+02 -.747E+00 -.237E+04   -.999E-01 -.793E+00 -.306E+01   0.698E-01 -.746E-01 -.157E-01
   0.232E+02 0.609E+02 0.123E+04   -.222E+02 -.600E+02 -.123E+04   -.988E+00 -.864E+00 -.657E-01   -.672E-01 0.115E-01 -.534E-01
   0.270E+02 -.604E+02 0.124E+04   -.269E+02 0.600E+02 -.123E+04   -.976E-01 0.326E+00 -.466E+00   -.501E-01 0.820E-01 0.119E-01
   -.599E+02 -.201E+02 -.119E+04   0.600E+02 0.204E+02 0.119E+04   -.157E+00 -.241E+00 0.540E+00   0.551E-01 -.754E-01 -.488E-02
   -.120E+03 0.159E+02 0.239E+04   0.119E+03 -.158E+02 -.239E+04   0.809E+00 -.123E+00 -.307E+01   0.127E+00 -.370E-01 -.105E-01
   -.338E+02 0.509E+02 0.125E+04   0.330E+02 -.504E+02 -.125E+04   0.874E+00 -.545E+00 -.469E+00   0.240E-01 -.355E-01 -.516E-01
   -.567E+02 0.221E+01 -.391E+02   0.564E+02 -.183E+01 0.392E+02   0.255E+00 -.425E+00 -.173E+00   0.235E-01 -.157E-01 -.805E-01
   0.110E+02 -.836E+02 -.120E+04   -.111E+02 0.835E+02 0.120E+04   0.789E-01 0.235E+00 0.854E+00   0.345E-02 -.635E-01 -.131E-01
   0.129E+02 0.265E+02 -.119E+04   -.130E+02 -.266E+02 0.119E+04   0.116E+00 0.435E-01 0.109E+00   -.562E-01 0.937E-01 0.464E-02
   -.204E+01 -.651E+02 0.236E+04   0.113E+01 0.638E+02 -.236E+04   0.902E+00 0.118E+01 -.307E+01   0.267E-01 0.789E-01 0.425E-03
   0.181E+02 -.171E+02 0.266E+04   -.180E+02 0.174E+02 -.266E+04   -.739E-01 -.216E+00 -.296E+01   -.594E-01 0.154E-01 -.487E-01
   0.129E+03 0.398E+02 0.269E+04   -.129E+03 -.389E+02 -.268E+04   0.176E+00 -.993E+00 -.285E+01   -.123E-01 -.164E-01 -.944E-02
   -.511E+02 -.487E+02 0.136E+04   0.505E+02 0.475E+02 -.136E+04   0.543E+00 0.120E+01 -.321E+00   -.127E-01 0.585E-01 -.241E-01
   -.643E+02 0.481E+02 0.219E+02   0.645E+02 -.480E+02 -.225E+02   -.961E-01 -.160E+00 0.552E+00   -.307E-01 0.406E-01 0.124E-01
   -.107E+03 0.796E+01 0.136E+04   0.107E+03 -.754E+01 -.136E+04   0.443E+00 -.475E+00 -.199E+00   0.791E-01 -.871E-02 -.516E-01
   -.118E+02 -.122E+02 0.136E+04   0.120E+02 0.120E+02 -.136E+04   -.139E+00 0.419E+00 -.209E+00   -.684E-01 -.733E-01 0.171E-01
   0.425E+02 0.322E+01 -.136E+04   -.424E+02 -.342E+01 0.136E+04   -.186E+00 0.201E+00 0.107E+01   0.697E-01 0.408E-01 -.429E-01
   0.544E+02 -.489E+02 0.268E+04   -.539E+02 0.489E+02 -.267E+04   -.454E+00 -.170E+00 -.293E+01   -.500E-01 0.883E-01 -.210E-01
   -.126E+01 0.124E+02 0.136E+04   0.136E+01 -.122E+02 -.136E+04   -.194E+00 -.306E+00 -.504E+00   0.172E-01 0.605E-01 0.503E-01
   0.300E+02 -.740E+02 -.148E+02   -.292E+02 0.735E+02 0.151E+02   -.860E+00 0.553E+00 -.467E+00   0.601E-01 -.398E-01 0.164E-01
   0.228E+02 0.188E+02 0.332E+04   -.229E+02 -.181E+02 -.332E+04   0.428E+00 -.529E+00 -.426E+01   -.236E+00 -.771E-01 -.252E-01
   0.531E+02 0.700E+01 0.166E+04   -.533E+02 -.767E+01 -.166E+04   0.167E+00 0.572E+00 -.121E+00   -.404E-01 0.112E+00 -.137E+00
   0.112E+03 -.367E+02 0.164E+04   -.112E+03 0.368E+02 -.164E+04   -.207E+00 -.105E+00 -.873E-01   -.850E-02 -.563E-01 -.111E+00
   0.286E+02 0.621E+02 0.102E+03   -.291E+02 -.620E+02 -.102E+03   0.492E+00 -.170E+00 0.370E+00   -.577E-01 0.308E-01 -.140E-01
   0.176E+02 0.533E+02 -.164E+04   -.173E+02 -.530E+02 0.164E+04   -.287E+00 -.334E+00 0.105E+01   -.710E-01 -.443E-02 0.364E-01
   -.417E+02 0.242E+02 -.163E+04   0.411E+02 -.239E+02 0.163E+04   0.827E+00 -.318E+00 0.190E+01   -.107E+00 0.740E-01 -.138E-01
   0.368E+01 0.103E+03 0.327E+04   -.357E+01 -.103E+03 -.327E+04   -.126E+00 0.392E+00 -.347E+01   -.197E-01 -.344E-01 -.333E-01
   -.165E+02 -.591E+02 0.331E+04   0.156E+02 0.590E+02 -.330E+04   0.896E+00 -.173E+00 -.331E+01   -.598E-02 0.143E+00 -.681E-01
   0.110E+03 0.166E+02 -.484E+02   -.109E+03 -.164E+02 0.489E+02   -.105E+00 -.255E+00 -.488E+00   0.477E-01 -.640E-01 -.126E+00
   -.116E+03 -.260E+02 0.347E+02   0.116E+03 0.259E+02 -.345E+02   0.324E+00 0.134E+00 -.165E+00   0.875E-01 -.685E-01 -.952E-01
   -.406E+01 0.697E+02 0.174E+04   0.393E+01 -.690E+02 -.174E+04   0.162E+00 -.717E+00 -.878E+00   0.163E-01 -.171E-01 -.101E+00
   0.270E+02 -.661E+02 0.359E+02   -.266E+02 0.651E+02 -.363E+02   -.353E+00 0.126E+01 0.311E+00   -.759E-01 -.195E-01 -.612E-01
   0.557E+02 -.146E+02 0.832E+01   -.549E+02 0.144E+02 -.812E+01   -.783E+00 0.123E+00 -.171E-01   -.549E-01 -.116E-01 -.613E-01
   -.692E+02 -.204E+01 0.150E+04   0.686E+02 0.226E+01 -.150E+04   0.468E+00 -.117E+00 -.249E+00   0.975E-01 -.597E-01 -.383E-01
   -.216E+02 0.159E+02 0.156E+04   0.219E+02 -.162E+02 -.156E+04   -.390E+00 0.313E+00 -.492E+00   0.830E-01 -.249E-01 -.506E-01
   -.865E+02 -.144E+02 0.299E+04   0.869E+02 0.145E+02 -.299E+04   -.677E+00 -.453E-02 -.203E+01   0.138E+00 -.119E-02 -.512E-01
   0.403E+02 -.466E+02 0.298E+04   -.408E+02 0.472E+02 -.298E+04   0.826E+00 -.546E+00 -.128E+01   -.153E+00 -.981E-01 -.267E-01
   0.107E+02 -.199E+02 0.154E+04   -.101E+02 0.196E+02 -.154E+04   -.380E+00 0.209E+00 -.365E-01   -.950E-01 0.681E-01 0.279E-01
   0.475E+02 0.179E+01 0.153E+04   -.468E+02 -.178E+01 -.153E+04   -.587E+00 0.127E+00 -.297E+00   -.148E+00 -.766E-01 -.152E+00
   -.308E+02 -.585E+02 -.150E+04   0.307E+02 0.586E+02 0.150E+04   0.104E+00 -.913E-01 0.478E+00   -.196E-01 -.262E-01 0.214E-01
   -.256E+02 0.143E+02 0.297E+04   0.261E+02 -.136E+02 -.296E+04   -.606E+00 -.469E+00 -.219E+01   0.409E-01 -.103E+00 -.421E-01
   -.456E+02 0.851E+02 0.795E+02   0.460E+02 -.848E+02 -.793E+02   -.449E+00 -.372E+00 -.234E+00   0.561E-01 -.199E-01 -.420E-01
   -.163E+01 0.602E+02 -.303E+01   0.161E+01 -.595E+02 0.284E+01   0.113E+00 -.835E+00 -.831E-02   -.589E-01 0.123E+00 0.592E-01
   0.629E+02 -.140E+01 -.229E+02   -.626E+02 0.194E+01 0.230E+02   -.432E+00 -.651E+00 -.192E+00   0.975E-01 0.492E-01 0.201E-01
   -.249E+01 -.688E+02 0.333E+02   0.217E+01 0.684E+02 -.334E+02   0.421E+00 0.508E+00 0.611E-01   -.875E-01 0.222E-01 0.152E-01
   -.188E+01 -.177E+01 -.335E+03   0.214E+01 0.187E+01 0.337E+03   -.216E+00 -.905E-01 -.152E+01   -.321E-02 0.888E-03 -.408E-02
 -----------------------------------------------------------------------------------------------
   -.139E+01 -.340E+00 0.236E+01   0.162E-12 0.150E-12 -.109E-10   0.151E+01 0.421E+00 -.839E+00   -.133E+00 -.440E-01 -.155E+01
 
 
 POSITION                                       TOTAL-FORCE (eV/Angst)
 -----------------------------------------------------------------------------------
     13.30374      8.27931      6.93430        -0.006956     -0.006961     -0.002031
      5.25300      8.29212      6.87456        -0.010832     -0.010502     -0.007562
      5.10082      3.57485      6.97949         0.007225     -0.000097      0.003972
     14.74536      9.04809      9.18759         0.005006      0.004909      0.008288
      3.80949      4.37073      9.28331        -0.002162     -0.009832     -0.007407
      6.57403      9.03740      9.16094        -0.001642     -0.001856      0.011286
     11.98428      4.31559      9.27011         0.008806     -0.006557      0.003149
      9.25323      9.01984      9.15478        -0.000708     -0.001314     -0.000343
     10.63234      1.98273      9.14301        -0.011220     -0.003937     -0.008165
      2.51082      1.99033      9.18273         0.007551      0.009048      0.006093
     11.99608      8.99654      9.26002        -0.001211      0.007586     -0.014074
     13.35214      6.68832      9.27357         0.002262      0.000446     -0.018733
      5.16530      1.99953      9.27461         0.016606     -0.014499      0.000823
      7.95293      6.69934      9.21735        -0.007013      0.005813     -0.013056
      9.30969      4.34463      9.20036        -0.009686     -0.002006     -0.001522
      5.19781      6.67959      9.25943         0.002053      0.005356      0.001209
      7.95899      1.99470      9.22609        -0.004515      0.007168     -0.000826
      7.98914      3.53304      6.93746         0.001500      0.006812      0.011690
      6.47310      1.17873      6.90649         0.004318     -0.000241     -0.011201
      6.62542      1.16033      1.01568        -0.003484     -0.000031      0.016136
      3.78124      4.31135      2.85703        -0.002413      0.001058     -0.009716
      1.22436      1.27490      6.87352         0.008484      0.003707     -0.008073
      1.15567      1.23675      0.80812        -0.006041      0.015057     -0.007510
      6.62352      9.00900      2.94638        -0.005878     -0.002712     -0.006484
      6.57251      4.36240      9.25189         0.001218     -0.005173     -0.001991
      7.92439      5.15459      4.80969         0.019414     -0.019130     -0.023476
     10.61320      6.69201      9.21745         0.009608     -0.003669      0.009674
     14.63661      7.39466      4.85051         0.024066     -0.012148     -0.081935
     12.02617      5.86224      6.99057        -0.005282     -0.000062      0.001223
      6.58402      5.93400      6.95727        -0.000903     -0.003784     -0.005653
      3.67931      2.60564      4.97255         0.009873     -0.006496     -0.014453
     10.64713      5.18812      4.85947        -0.009830     -0.005008     -0.004080
      3.87381      5.94498      7.09460        -0.008149     -0.003548     -0.012595
     13.31421      8.09728      1.05685        -0.016376      0.004005      0.013781
      5.30905      8.11595      0.93936        -0.015756      0.016865      0.015013
      3.92857      5.94156      0.93592         0.003507      0.006672      0.026057
      8.05386      2.12946      2.90054        -0.024703      0.007473     -0.011867
      9.32899      8.96609      2.90333        -0.003616      0.048604     -0.005768
      2.46718      3.61226      7.08594         0.003363      0.001638     -0.002744
      2.35311      3.57145      0.91590        -0.015039     -0.022013      0.008616
     10.64588      2.02969      2.87660        -0.011248      0.001596     -0.035467
     13.32002      5.11294      4.93827         0.009983     -0.029067     -0.020718
      3.86586      1.07282      7.03165         0.002237      0.010990      0.004956
      9.28451      5.90293      7.04412        -0.000854     -0.009673     -0.007384
      3.83383      1.10072      0.97127        -0.018462      0.014956      0.046856
      9.38306      5.86937      1.02764        -0.011473      0.008507      0.004782
      5.29366      3.59964      0.97023         0.001108     -0.020606      0.007266
     11.92478      8.89894      2.96205        -0.000439      0.010631      0.019233
     11.98161      7.44837      4.85536         0.001412      0.009666      0.004865
     13.19392      6.59754      2.88244        -0.004273     -0.026377     -0.003184
      9.30356      4.29380      2.83538         0.016415      0.023598     -0.024589
      7.97675      8.21642      6.98160         0.019231     -0.004175     -0.000818
      8.04645      8.22972      0.95960        -0.003652      0.014767      0.004477
     10.69526      6.74219      2.84766        -0.024854     -0.001833     -0.008384
      2.61555      0.23694      5.01544         0.034326     -0.019192     -0.030038
      7.93369      3.56163      0.85009         0.005706     -0.006098      0.014269
      5.20201      1.93970      2.98139        -0.013747     -0.026798      0.001494
      5.33876      6.63044      2.97234         0.004761     -0.000143      0.017969
      7.92891      0.48348      4.85079        -0.032133      0.022167      0.057876
      9.30525      1.21353      6.93514         0.000664      0.003856     -0.002425
     10.59650      8.20566      6.95985        -0.002975     -0.003595     -0.005201
      9.31708      1.15830      0.86447        -0.014108      0.008872      0.012654
     10.66521      8.23823      0.86341         0.000804      0.011375      0.014575
      5.20687      5.10791      4.92329         0.000908     -0.036433     -0.019085
     11.93848      2.82857      4.89385         0.007384      0.013104     -0.006349
     14.71857      9.08131      2.89619         0.003035      0.018188     -0.003260
      9.37079      2.74108      4.94033        -0.008521      0.010528      0.022516
      6.55972      2.77058      4.86870        -0.015896     -0.037677      0.076420
     11.98589      4.30080      2.86021        -0.004170     -0.026204     -0.010366
      2.49448      1.93206      2.87475         0.000087      0.018408      0.000109
     12.00924      5.83331      0.94662        -0.000204      0.018290      0.011742
      6.59401      5.89345      1.01909         0.002310      0.008878     -0.005087
      8.06326      6.72352      2.85722         0.014046      0.003987     -0.013905
      6.60061      4.25332      2.83924        -0.013428      0.003933      0.004068
     10.68169      3.58923      7.02241        -0.004917      0.003607     -0.006834
     10.66176      3.51658      0.94680         0.004247     -0.027581     -0.010046
     10.67093      0.52619      4.87945        -0.030393      0.003097     -0.023753
      9.31133      7.48384      4.95374         0.013414      0.005314     -0.011771
      6.69853      7.49883      4.94828         0.015447     -0.026963     -0.018346
      5.15662      0.25853      4.91069         0.053040      0.031779      0.065974
      6.50793      1.17231     10.17966         0.043739      0.011681      0.019163
 -----------------------------------------------------------------------------------
    total drift:                               -0.005790      0.036621     -0.024793


--------------------------------------------------------------------------------------------------------



  FREE ENERGIE OF THE ION-ELECTRON SYSTEM (eV)
  ---------------------------------------------------
  free  energy   TOTEN  =      -507.63895239 eV

  energy  without entropy=     -507.66034766  energy(sigma->0) =     -507.64608414
 
 d Force = 0.9686692E-03[ 0.338E-03, 0.160E-02]  d Energy = 0.9784988E-03-0.983E-05
 d Force =-0.2857311E+02[-0.286E+02,-0.286E+02]  d Ewald  =-0.2857311E+02 0.661E-05


--------------------------------------------------------------------------------------------------------


    POTLOK:  cpu time    0.3791: real time    0.3898


--------------------------------------------------------------------------------------------------------


 Conjugate gradient step on ions:
 trial-energy change:   -0.000978  1 .order   -0.000969   -0.001600   -0.000338
  (g-gl).g = 0.107E-02      g.g   = 0.106E-02  gl.gl    = 0.241E-02
 g(Force)  = 0.106E-02   g(Stress)= 0.000E+00 ortho     =-0.102E-03
 gamma     =   0.44551
 trial     =   1.57586
 opt step  =   1.99746  (harmonic =   1.99746) maximal distance =0.00831463
 next E    =  -507.638988   (d E  =  -0.00101)


--------------------------------------------------------------------------------------------------------


  
 reached required accuracy - stopping structural energy minimisation
     LOOP+:  cpu time  501.1180: real time  503.8126
    4ORBIT:  cpu time    0.0000: real time    0.0000

 total amount of memory used by VASP MPI-rank0   234350. kBytes
=======================================================================

   base      :      30000. kBytes
   nonlr-proj:      32779. kBytes
   fftplans  :      16141. kBytes
   grid      :      49182. kBytes
   one-center:        653. kBytes
   wavefun   :     105595. kBytes
 
  
  
 General timing and accounting informations for this job:
 ========================================================
  
                  Total CPU time used (sec):    12404.376
                            User time (sec):    12050.945
                          System time (sec):      353.431
                         Elapsed time (sec):    12535.391
  
                   Maximum memory used (kb):      391260.
                   Average memory used (kb):           0.
  
                          Minor page faults:     13330529
                          Major page faults:          210
                 Voluntary context switches:         8641
