 vasp.5.4.4.18Apr17-6-g9f103f2a35 (build Oct 25 2019 11:13:22) complex          
  
 executed on             LinuxIFC date 2021.10.15  09:56:01
 running on   48 total cores
 distrk:  each k-point on   48 cores,    1 groups
 distr:  one band on NCORES_PER_BAND=   4 cores,   12 groups


--------------------------------------------------------------------------------------------------------


 INCAR:
 POTCAR:    PAW_PBE Pt 04Feb2005                  
 POTCAR:    PAW_PBE Fe 06Sep2000                  
 POTCAR:    PAW_PBE Co 02Aug2007                  
 POTCAR:    PAW_PBE Cu 22Jun2005                  
 POTCAR:    PAW_PBE Ni 02Aug2007                  
 POTCAR:    PAW_PBE H 15Jun2001                   
 POTCAR:    PAW_PBE Pt 04Feb2005                  
   VRHFIN =Pt: s1d9                                                             
   LEXCH  = PE                                                                  
   EATOM  =   729.1176 eV,   53.5886 Ry                                         
                                                                                
   TITEL  = PAW_PBE Pt 04Feb2005                                                
   LULTRA =        F    use ultrasoft PP ?                                      
   IUNSCR =        1    unscreen: 0-lin 1-nonlin 2-no                           
   RPACOR =    2.330    partial core radius                                     
   POMASS =  195.080; ZVAL   =   10.000    mass and valenz                      
   RCORE  =    2.600    outmost cutoff radius                                   
   RWIGS  =    2.750; RWIGS  =    1.455    wigner-seitz radius (au A)           
   ENMAX  =  230.283; ENMIN  =  172.712 eV                                      
   ICORE  =        3    local potential                                         
   LCOR   =        T    correct aug charges                                     
   LPAW   =        T    paw PP                                                  
   EAUG   =  358.966                                                            
   DEXC   =    0.000                                                            
   RMAX   =    2.658    core radius for proj-oper                               
   RAUG   =    1.300    factor for augmentation sphere                          
   RDEP   =    2.761    radius for radial grids                                 
   RDEPT  =    2.203    core radius for aug-charge                              
                                                                                
   Atomic configuration                                                         
   16 entries                                                                   
     n  l   j            E        occ.                                          
     1  0  0.50    -78401.1885   2.0000                                         
     2  0  0.50    -13770.7750   2.0000                                         
     2  1  1.50    -11931.0468   6.0000                                         
     3  0  0.50     -3234.7234   2.0000                                         
     3  1  1.50     -2699.2216   6.0000                                         
     3  2  2.50     -2119.5714  10.0000                                         
     4  0  0.50      -695.1528   2.0000                                         
     4  1  1.50      -519.6034   6.0000                                         
     4  2  2.50      -306.6786  10.0000                                         
     4  3  3.50       -70.1041  14.0000                                         
     5  0  0.50      -101.7747   2.0000                                         
     5  1  1.50       -55.9873   6.0000                                         
     5  2  2.50        -6.1423   9.0000                                         
     6  0  0.50        -5.6573   1.0000                                         
     6  1  1.50        -6.8029   0.0000                                         
     5  3  2.50        -1.3606   0.0000                                         
   Description                                                                  
     l       E           TYP  RCUT    TYP  RCUT                                 
     2     -6.1423404     23  2.500                                             
     2     -7.5029230     23  2.500                                             
     0     -5.6573207     23  2.500                                             
     0      0.7416693     23  2.500                                             
     1     -2.7211652     23  2.600                                             
     1     20.4087390     23  2.600                                             
     3     -1.3605826     23  2.500                                             
  local pseudopotential read in
  partial core-charges read in
  partial kinetic energy density read in
  atomic valenz-charges read in
  non local Contribution for L=           2  read in
    real space projection operators read in
  non local Contribution for L=           2  read in
    real space projection operators read in
  non local Contribution for L=           0  read in
    real space projection operators read in
  non local Contribution for L=           0  read in
    real space projection operators read in
  non local Contribution for L=           1  read in
    real space projection operators read in
  non local Contribution for L=           1  read in
    real space projection operators read in
    PAW grid and wavefunctions read in
 
   number of l-projection  operators is LMAX  =           6
   number of lm-projection operators is LMMAX =          18
 
 POTCAR:    PAW_PBE Fe 06Sep2000                  
   VRHFIN =Fe:  d7 s1                                                           
   LEXCH  = PE                                                                  
   EATOM  =   594.3153 eV,   43.6809 Ry                                         
                                                                                
   TITEL  = PAW_PBE Fe 06Sep2000                                                
   LULTRA =        F    use ultrasoft PP ?                                      
   IUNSCR =        1    unscreen: 0-lin 1-nonlin 2-no                           
   RPACOR =    2.000    partial core radius                                     
   POMASS =   55.847; ZVAL   =    8.000    mass and valenz                      
   RCORE  =    2.300    outmost cutoff radius                                   
   RWIGS  =    2.460; RWIGS  =    1.302    wigner-seitz radius (au A)           
   ENMAX  =  267.882; ENMIN  =  200.911 eV                                      
   RCLOC  =    1.701    cutoff for local pot                                    
   LCOR   =        T    correct aug charges                                     
   LPAW   =        T    paw PP                                                  
   EAUG   =  511.368                                                            
   DEXC   =    0.000                                                            
   RMAX   =    2.356    core radius for proj-oper                               
   RAUG   =    1.300    factor for augmentation sphere                          
   RDEP   =    2.442    radius for radial grids                                 
   RDEPT  =    1.890    core radius for aug-charge                              
                                                                                
   Atomic configuration                                                         
    9 entries                                                                   
     n  l   j            E        occ.                                          
     1  0  0.50     -6993.8440   2.0000                                         
     2  0  0.50      -814.6047   2.0000                                         
     2  1  1.50      -693.3689   6.0000                                         
     3  0  0.50       -89.4732   2.0000                                         
     3  1  1.50       -55.6373   6.0000                                         
     3  2  2.50        -3.8151   7.0000                                         
     4  0  0.50        -4.2551   1.0000                                         
     4  1  1.50        -3.4015   0.0000                                         
     4  3  2.50        -1.3606   0.0000                                         
   Description                                                                  
     l       E           TYP  RCUT    TYP  RCUT                                 
     2     -3.8151135     23  2.300                                             
     2     -5.1756961     23  2.300                                             
     0     -4.2550963     23  2.300                                             
     0      7.2035603     23  2.300                                             
     1     -2.7211652     23  2.300                                             
     1     18.4316424     23  2.300                                             
  local pseudopotential read in
  partial core-charges read in
  partial kinetic energy density read in
  atomic valenz-charges read in
  non local Contribution for L=           2  read in
    real space projection operators read in
  non local Contribution for L=           2  read in
    real space projection operators read in
  non local Contribution for L=           0  read in
    real space projection operators read in
  non local Contribution for L=           0  read in
    real space projection operators read in
  non local Contribution for L=           1  read in
    real space projection operators read in
  non local Contribution for L=           1  read in
    real space projection operators read in
    PAW grid and wavefunctions read in
 
   number of l-projection  operators is LMAX  =           6
   number of lm-projection operators is LMMAX =          18
 
 POTCAR:    PAW_PBE Co 02Aug2007                  
   VRHFIN =Co: d8 s1                                                            
   LEXCH  = PE                                                                  
   EATOM  =   813.3670 eV,   59.7808 Ry                                         
                                                                                
   TITEL  = PAW_PBE Co 02Aug2007                                                
   LULTRA =        F    use ultrasoft PP ?                                      
   IUNSCR =        1    unscreen: 0-lin 1-nonlin 2-no                           
   RPACOR =    2.000    partial core radius                                     
   POMASS =   58.933; ZVAL   =    9.000    mass and valenz                      
   RCORE  =    2.300    outmost cutoff radius                                   
   RWIGS  =    2.460; RWIGS  =    1.302    wigner-seitz radius (au A)           
   ENMAX  =  267.968; ENMIN  =  200.976 eV                                      
   RCLOC  =    1.203    cutoff for local pot                                    
   LCOR   =        T    correct aug charges                                     
   LPAW   =        T    paw PP                                                  
   EAUG   =  477.818                                                            
   DEXC   =    0.000                                                            
   RMAX   =    2.360    core radius for proj-oper                               
   RAUG   =    1.300    factor for augmentation sphere                          
   RDEP   =    2.393    radius for radial grids                                 
   RDEPT  =    1.864    core radius for aug-charge                              
                                                                                
   Atomic configuration                                                         
    9 entries                                                                   
     n  l   j            E        occ.                                          
     1  0  0.50     -7587.6674   2.0000                                         
     2  0  0.50      -893.6084   2.0000                                         
     2  1  1.50      -764.5805   6.0000                                         
     3  0  0.50       -97.5973   2.0000                                         
     3  1  1.50       -60.9648   6.0000                                         
     3  2  2.50        -4.2382   8.0000                                         
     4  0  0.50        -4.3746   1.0000                                         
     4  1  1.50        -4.0817   0.0000                                         
     4  3  2.50        -1.3606   0.0000                                         
   Description                                                                  
     l       E           TYP  RCUT    TYP  RCUT                                 
     2     -4.2382362     23  2.300                                             
     2     -5.5988188     23  2.300                                             
     0     -4.3745797     23  2.300                                             
     0      5.7660125     23  2.300                                             
     1     -2.7211652     23  2.300                                             
     1     16.9860234     23  2.300                                             
  local pseudopotential read in
  partial core-charges read in
  partial kinetic energy density read in
  atomic valenz-charges read in
  non local Contribution for L=           2  read in
    real space projection operators read in
  non local Contribution for L=           2  read in
    real space projection operators read in
  non local Contribution for L=           0  read in
    real space projection operators read in
  non local Contribution for L=           0  read in
    real space projection operators read in
  non local Contribution for L=           1  read in
    real space projection operators read in
  non local Contribution for L=           1  read in
    real space projection operators read in
    PAW grid and wavefunctions read in
 
   number of l-projection  operators is LMAX  =           6
   number of lm-projection operators is LMMAX =          18
 
 POTCAR:    PAW_PBE Cu 22Jun2005                  
   VRHFIN =Cu: d10 p1                                                           
   LEXCH  = PE                                                                  
   EATOM  =  1390.9808 eV,  102.2342 Ry                                         
                                                                                
   TITEL  = PAW_PBE Cu 22Jun2005                                                
   LULTRA =        F    use ultrasoft PP ?                                      
   IUNSCR =        1    unscreen: 0-lin 1-nonlin 2-no                           
   RPACOR =    2.000    partial core radius                                     
   POMASS =   63.546; ZVAL   =   11.000    mass and valenz                      
   RCORE  =    2.300    outmost cutoff radius                                   
   RWIGS  =    2.200; RWIGS  =    1.164    wigner-seitz radius (au A)           
   ENMAX  =  295.446; ENMIN  =  221.585 eV                                      
   ICORE  =        3    local potential                                         
   LCOR   =        T    correct aug charges                                     
   LPAW   =        T    paw PP                                                  
   EAUG   =  586.980                                                            
   DEXC   =    0.000                                                            
   RMAX   =    2.344    core radius for proj-oper                               
   RAUG   =    1.300    factor for augmentation sphere                          
   RDEP   =    2.302    radius for radial grids                                 
   RDEPT  =    1.771    core radius for aug-charge                              
                                                                                
   Atomic configuration                                                         
    9 entries                                                                   
     n  l   j            E        occ.                                          
     1  0  0.50     -8850.2468   2.0000                                         
     2  0  0.50     -1062.3498   2.0000                                         
     2  1  1.50      -916.8226   6.0000                                         
     3  0  0.50      -114.6929   2.0000                                         
     3  1  1.50       -72.1325   6.0000                                         
     3  2  2.50        -5.0394  10.0000                                         
     4  0  0.50        -4.6097   1.0000                                         
     4  1  0.50        -4.0817   0.0000                                         
     4  3  2.50        -1.3606   0.0000                                         
   Description                                                                  
     l       E           TYP  RCUT    TYP  RCUT                                 
     2     -5.0393973     23  2.200                                             
     2     10.8846608     23  2.200                                             
     0     -4.6097109     23  2.200                                             
     0      8.2520465     23  2.200                                             
     1     -2.7211652     23  2.200                                             
     1     21.7055443     23  2.200                                             
     3      2.7211652     23  2.300                                             
  local pseudopotential read in
  partial core-charges read in
  partial kinetic energy density read in
  atomic valenz-charges read in
  non local Contribution for L=           2  read in
    real space projection operators read in
  non local Contribution for L=           2  read in
    real space projection operators read in
  non local Contribution for L=           0  read in
    real space projection operators read in
  non local Contribution for L=           0  read in
    real space projection operators read in
  non local Contribution for L=           1  read in
    real space projection operators read in
  non local Contribution for L=           1  read in
    real space projection operators read in
    PAW grid and wavefunctions read in
 
   number of l-projection  operators is LMAX  =           6
   number of lm-projection operators is LMMAX =          18
 
 POTCAR:    PAW_PBE Ni 02Aug2007                  
   VRHFIN =Ni:                                                                  
   LEXCH  = PE                                                                  
   EATOM  =  1077.6739 eV,   79.2068 Ry                                         
                                                                                
   TITEL  = PAW_PBE Ni 02Aug2007                                                
   LULTRA =        F    use ultrasoft PP ?                                      
   IUNSCR =        1    unscreen: 0-lin 1-nonlin 2-no                           
   RPACOR =    2.000    partial core radius                                     
   POMASS =   58.690; ZVAL   =   10.000    mass and valenz                      
   RCORE  =    2.300    outmost cutoff radius                                   
   RWIGS  =    2.430; RWIGS  =    1.286    wigner-seitz radius (au A)           
   ENMAX  =  269.532; ENMIN  =  202.149 eV                                      
   RCLOC  =    1.201    cutoff for local pot                                    
   LCOR   =        T    correct aug charges                                     
   LPAW   =        T    paw PP                                                  
   EAUG   =  544.565                                                            
   DEXC   =    0.000                                                            
   RMAX   =    2.357    core radius for proj-oper                               
   RAUG   =    1.300    factor for augmentation sphere                          
   RDEP   =    2.390    radius for radial grids                                 
   RDEPT  =    1.838    core radius for aug-charge                              
                                                                                
   Atomic configuration                                                         
    9 entries                                                                   
     n  l   j            E        occ.                                          
     1  0  0.50     -8206.4253   2.0000                                         
     2  0  0.50      -976.1748   2.0000                                         
     2  1  1.50      -839.0571   6.0000                                         
     3  0  0.50      -105.9991   2.0000                                         
     3  1  1.50       -66.4603   6.0000                                         
     3  2  2.50        -4.6458   9.0000                                         
     4  0  0.50        -4.4926   1.0000                                         
     4  1  1.50        -4.0817   0.0000                                         
     4  3  2.50        -1.3606   0.0000                                         
   Description                                                                  
     l       E           TYP  RCUT    TYP  RCUT                                 
     2     -4.6457903     23  2.300                                             
     2     -6.0063729     23  2.300                                             
     0     -4.4925590     23  2.300                                             
     0      5.0102601     23  2.300                                             
     1     -2.7211652     23  2.300                                             
     1     16.5183231     23  2.300                                             
  local pseudopotential read in
  partial core-charges read in
  partial kinetic energy density read in
  atomic valenz-charges read in
  non local Contribution for L=           2  read in
    real space projection operators read in
  non local Contribution for L=           2  read in
    real space projection operators read in
  non local Contribution for L=           0  read in
    real space projection operators read in
  non local Contribution for L=           0  read in
    real space projection operators read in
  non local Contribution for L=           1  read in
    real space projection operators read in
  non local Contribution for L=           1  read in
    real space projection operators read in
    PAW grid and wavefunctions read in
 
   number of l-projection  operators is LMAX  =           6
   number of lm-projection operators is LMMAX =          18
 
 POTCAR:    PAW_PBE H 15Jun2001                   
   VRHFIN =H: ultrasoft test                                                    
   LEXCH  = PE                                                                  
   EATOM  =    12.4884 eV,    0.9179 Ry                                         
                                                                                
   TITEL  = PAW_PBE H 15Jun2001                                                 
   LULTRA =        F    use ultrasoft PP ?                                      
   IUNSCR =        0    unscreen: 0-lin 1-nonlin 2-no                           
   RPACOR =    0.000    partial core radius                                     
   POMASS =    1.000; ZVAL   =    1.000    mass and valenz                      
   RCORE  =    1.100    outmost cutoff radius                                   
   RWIGS  =    0.700; RWIGS  =    0.370    wigner-seitz radius (au A)           
   ENMAX  =  250.000; ENMIN  =  200.000 eV                                      
   RCLOC  =    0.701    cutoff for local pot                                    
   LCOR   =        T    correct aug charges                                     
   LPAW   =        T    paw PP                                                  
   EAUG   =  400.000                                                            
   RMAX   =    1.123    core radius for proj-oper                               
   RAUG   =    1.200    factor for augmentation sphere                          
   RDEP   =    1.112    radius for radial grids                                 
   RDEPT  =    0.926    core radius for aug-charge                              
                                                                                
   Atomic configuration                                                         
    2 entries                                                                   
     n  l   j            E        occ.                                          
     1  0  0.50        -6.4927   1.0000                                         
     2  1  0.50        -3.4015   0.0000                                         
   Description                                                                  
     l       E           TYP  RCUT    TYP  RCUT                                 
     0     -6.4927494     23  1.100                                             
     0      6.8029130     23  1.100                                             
     1     -4.0817478     23  1.100                                             
  local pseudopotential read in
  atomic valenz-charges read in
  non local Contribution for L=           0  read in
    real space projection operators read in
  non local Contribution for L=           0  read in
    real space projection operators read in
  non local Contribution for L=           1  read in
    real space projection operators read in
    PAW grid and wavefunctions read in
 
   number of l-projection  operators is LMAX  =           3
   number of lm-projection operators is LMMAX =           5
 
 Optimization of the real space projectors (new method)

 maximal supplied QI-value         = 14.36
 optimisation between [QCUT,QGAM] = [ 11.92, 23.98] = [ 39.79,161.09] Ry 
 Optimized for a Real-space Cutoff    1.49 Angstroem

   l    n(q)    QCUT    max X(q) W(low)/X(q) W(high)/X(q)  e(spline) 
   2     10    11.920    66.195    0.79E-04    0.18E-03    0.24E-06
   2     10    11.920    64.643    0.81E-04    0.19E-03    0.24E-06
   0     11    11.920    95.520    0.28E-04    0.54E-04    0.18E-06
   0     11    11.920    63.403    0.27E-04    0.52E-04    0.17E-06
   1     10    11.920    19.961    0.18E-04    0.11E-03    0.23E-06
   1     10    11.920    13.289    0.25E-04    0.87E-04    0.19E-06
 Optimization of the real space projectors (new method)

 maximal supplied QI-value         = 16.25
 optimisation between [QCUT,QGAM] = [ 11.86, 23.89] = [ 39.41,159.82] Ry 
 Optimized for a Real-space Cutoff    1.49 Angstroem

   l    n(q)    QCUT    max X(q) W(low)/X(q) W(high)/X(q)  e(spline) 
   2     10    11.864    80.901    0.13E-03    0.23E-03    0.37E-06
   2     10    11.864    75.754    0.13E-03    0.23E-03    0.38E-06
   0     11    11.864    58.752    0.44E-04    0.11E-04    0.20E-06
   0     11    11.864    30.679    0.36E-04    0.10E-04    0.18E-06
   1     10    11.864    17.977    0.31E-04    0.45E-04    0.10E-06
   1     10    11.864    13.559    0.25E-04    0.37E-04    0.89E-07
 Optimization of the real space projectors (new method)

 maximal supplied QI-value         = 16.25
 optimisation between [QCUT,QGAM] = [ 11.86, 23.89] = [ 39.41,159.82] Ry 
 Optimized for a Real-space Cutoff    1.33 Angstroem

   l    n(q)    QCUT    max X(q) W(low)/X(q) W(high)/X(q)  e(spline) 
   2      9    11.864    65.824    0.22E-03    0.53E-03    0.26E-06
   2      9    11.864    61.429    0.22E-03    0.53E-03    0.26E-06
   0      9    11.864    56.174    0.21E-03    0.32E-04    0.15E-06
   0      9    11.864    31.263    0.19E-03    0.30E-04    0.14E-06
   1      9    11.864    19.828    0.63E-04    0.30E-03    0.16E-06
   1      9    11.864    15.139    0.49E-04    0.25E-03    0.13E-06
 Optimization of the real space projectors (new method)

 maximal supplied QI-value         = 16.25
 optimisation between [QCUT,QGAM] = [ 11.86, 23.89] = [ 39.41,159.82] Ry 
 Optimized for a Real-space Cutoff    1.49 Angstroem

   l    n(q)    QCUT    max X(q) W(low)/X(q) W(high)/X(q)  e(spline) 
   2     10    11.864     4.610    0.10E-03    0.20E-03    0.29E-06
   2     10    11.864     8.522    0.17E-03    0.33E-03    0.50E-06
   0     11    11.864    51.609    0.52E-04    0.55E-04    0.33E-06
   0     11    11.864    27.747    0.46E-04    0.52E-04    0.31E-06
   1     10    11.864    20.408    0.54E-04    0.25E-04    0.21E-06
   1     10    11.864    13.425    0.48E-04    0.22E-04    0.18E-06
 Optimization of the real space projectors (new method)

 maximal supplied QI-value         = 16.25
 optimisation between [QCUT,QGAM] = [ 11.86, 23.89] = [ 39.41,159.82] Ry 
 Optimized for a Real-space Cutoff    1.33 Angstroem

   l    n(q)    QCUT    max X(q) W(low)/X(q) W(high)/X(q)  e(spline) 
   2      9    11.864    60.317    0.21E-03    0.51E-03    0.25E-06
   2      9    11.864    55.921    0.21E-03    0.51E-03    0.26E-06
   0      9    11.864    51.690    0.22E-03    0.30E-04    0.17E-06
   0      9    11.864    30.015    0.20E-03    0.28E-04    0.15E-06
   1      9    11.864    18.849    0.76E-04    0.33E-03    0.17E-06
   1      9    11.864    14.624    0.60E-04    0.28E-03    0.15E-06
 Optimization of the real space projectors (new method)

 maximal supplied QI-value         = 34.20
 optimisation between [QCUT,QGAM] = [ 11.97, 23.94] = [ 40.13,160.53] Ry 
 Optimized for a Real-space Cutoff    1.18 Angstroem

   l    n(q)    QCUT    max X(q) W(low)/X(q) W(high)/X(q)  e(spline) 
   0      8    11.971    19.460    0.15E-03    0.31E-03    0.25E-06
   0      8    11.971    12.209    0.13E-03    0.29E-03    0.25E-06
   1      8    11.971     4.655    0.22E-03    0.24E-03    0.21E-06
  PAW_PBE Pt 04Feb2005                  :
 energy of atom  1       EATOM= -729.1176
 kinetic energy error for atom=    0.0021 (will be added to EATOM!!)
  PAW_PBE Fe 06Sep2000                  :
 energy of atom  2       EATOM= -594.3153
 kinetic energy error for atom=    0.0024 (will be added to EATOM!!)
  PAW_PBE Co 02Aug2007                  :
 energy of atom  3       EATOM= -813.3670
 kinetic energy error for atom=    0.0026 (will be added to EATOM!!)
  PAW_PBE Cu 22Jun2005                  :
 energy of atom  4       EATOM=-1390.9808
 kinetic energy error for atom=    0.0036 (will be added to EATOM!!)
  PAW_PBE Ni 02Aug2007                  :
 energy of atom  5       EATOM=-1077.6739
 kinetic energy error for atom=    0.0027 (will be added to EATOM!!)
  PAW_PBE H 15Jun2001                   :
 energy of atom  6       EATOM=  -12.4884
 kinetic energy error for atom=    0.0008 (will be added to EATOM!!)
 
 
 POSCAR: 10.86                                   
  positions in direct lattice
  velocities in cartesian coordinates
 exchange correlation table for  LEXCH =        8
   RHO(1)=    0.500       N(1)  =     2000
   RHO(2)=  100.500       N(2)  =     4000
 


--------------------------------------------------------------------------------------------------------


 ion  position               nearest neighbor table
   1  0.786  0.880  0.315-  49 2.61  28 2.62  59 2.63  19 2.70  61 2.72  33 2.73  60 2.74  11 2.74
                            29 2.74   2 2.80   4 2.81  12 2.83
   2  0.043  0.882  0.314-  79 2.56  77 2.60  28 2.68  60 2.70  30 2.70  33 2.73  52 2.73  22 2.76
                             6 2.79   1 2.80   4 2.86  16 2.92
   3  0.279  0.381  0.317-  64 2.56  39 2.64  31 2.64  33 2.67  68 2.69   5 2.76  19 2.77  13 2.78
                            30 2.78  43 2.79  25 2.81  18 2.89
   4  0.870  0.965  0.421-  17 2.67  11 2.70   9 2.72  12 2.76   6 2.77  60 2.78  16 2.79   1 2.81
                             2 2.86
   5  0.119  0.464  0.422-  16 2.67  12 2.68   7 2.68  39 2.68  33 2.70  10 2.70  25 2.75   3 2.76
                            13 2.78
   6  0.126  0.964  0.419-  81 1.64   8 2.67  10 2.71  14 2.74   9 2.74  52 2.76   4 2.77   2 2.79
                            16 2.79  22 2.83
   7  0.875  0.458  0.422-  39 2.66   9 2.68   5 2.68  15 2.68  10 2.70  75 2.71  12 2.72  27 2.75
                            29 2.76
   8  0.374  0.960  0.416-  43 2.58  52 2.66   6 2.67  14 2.68  27 2.69  61 2.70  13 2.70  10 2.72
                            11 2.72
   9  0.871  0.214  0.416-  75 2.65   7 2.68  15 2.68  60 2.69  17 2.70   4 2.72   6 2.74  10 2.76
                            22 2.79
  10  0.126  0.213  0.418-  81 1.70  39 2.65  13 2.68   5 2.70   7 2.70  43 2.70   6 2.71   8 2.72
                            22 2.75   9 2.76
  11  0.624  0.960  0.419-   4 2.70  13 2.70  12 2.70  27 2.71  17 2.72   8 2.72   1 2.74  61 2.78
                            19 2.81
  12  0.872  0.710  0.421-   5 2.68  33 2.68  11 2.70  27 2.71   7 2.72  16 2.74  29 2.75   4 2.76
                             1 2.83
  13  0.375  0.208  0.419-  10 2.68   8 2.70  11 2.70  43 2.72  17 2.72  25 2.74   5 2.78   3 2.78
                            19 2.78
  14  0.378  0.711  0.418-  27 2.65  44 2.65   8 2.68  52 2.70  15 2.70   6 2.74  25 2.74  30 2.75
                            16 2.76
  15  0.626  0.462  0.418-  44 2.66   9 2.68  75 2.68   7 2.68  27 2.69  14 2.70  18 2.74  17 2.74
                            25 2.74
  16  0.127  0.707  0.423-   5 2.67  33 2.68  25 2.68  12 2.74  14 2.76   6 2.79   4 2.79  30 2.81
                             2 2.92
  17  0.624  0.211  0.417-   4 2.67   9 2.70  25 2.72  11 2.72  13 2.72  18 2.73  15 2.74  60 2.74
                            19 2.83
  18  0.547  0.377  0.315-  67 2.55  68 2.63  26 2.67  60 2.68  75 2.69  44 2.70  17 2.73  15 2.74
                            30 2.79  19 2.81  25 2.83   3 2.89
  19  0.534  0.125  0.313-  80 2.54  68 2.57  59 2.59  43 2.62   1 2.70  61 2.72   3 2.77  13 2.78
                            11 2.81  18 2.81  17 2.83  60 2.84
  20  0.548  0.123  0.046-  57 2.55  37 2.56  48 2.57  62 2.70  63 2.72  56 2.74  34 2.77  47 2.78
                            45 2.79
  21  0.119  0.458  0.130-  47 2.52  40 2.52  36 2.52  42 2.59  64 2.63  69 2.66  70 2.71  50 2.71
                            31 2.72  57 2.77  58 2.80  74 2.82
  22  0.045  0.135  0.313-  65 2.53  55 2.55  77 2.56  43 2.65  39 2.66  75 2.72  10 2.75   2 2.76
                            60 2.77   9 2.79  52 2.80   6 2.83  31 3.39
  23  0.041  0.131  0.037-  70 2.56  41 2.60  40 2.63  76 2.66  45 2.69  24 2.69  62 2.70  53 2.82
                            35 2.83
  24  0.131  0.958  0.134-  79 2.51  77 2.55  35 2.56  53 2.57  55 2.59  70 2.67  23 2.69  73 2.70
                            58 2.70  38 2.71  66 2.77  41 2.81
  25  0.374  0.461  0.420-  16 2.68  17 2.72  13 2.74  14 2.74  15 2.74   5 2.75  30 2.80   3 2.81
                            18 2.83
  26  0.456  0.548  0.219-  73 2.51  74 2.54  51 2.56  79 2.65  30 2.66  18 2.67  78 2.71  44 2.72
                            64 2.72  32 2.72  68 2.75  67 2.82
  27  0.622  0.712  0.419-  14 2.65  44 2.68  15 2.69   8 2.69  11 2.71  12 2.71  61 2.73   7 2.75
                            29 2.77
  28  0.955  0.786  0.220-  58 2.56  50 2.57  66 2.58   1 2.62  42 2.64  49 2.66  33 2.68   2 2.68
                            64 2.70  59 2.80  79 2.93  77 2.93
  29  0.795  0.623  0.318-  42 2.54  39 2.60  32 2.63  75 2.64  49 2.66  33 2.72  44 2.74   1 2.74
                            61 2.74  12 2.75   7 2.76  27 2.77
  30  0.290  0.632  0.316-  79 2.55  64 2.59  26 2.66  52 2.67   2 2.70  33 2.70  44 2.71  14 2.75
                             3 2.78  18 2.79  25 2.80  16 2.81
  31  0.200  0.277  0.226-  70 2.50  43 2.57  57 2.59  55 2.60  65 2.61  39 2.64   3 2.64  21 2.72
                            80 2.77  42 2.79  68 2.89  64 2.93  22 3.39
  32  0.705  0.552  0.221-  54 2.54  69 2.56  51 2.59  49 2.62  29 2.63  78 2.66  44 2.67  42 2.68
                            75 2.69  65 2.69  26 2.72  67 2.76
  33  0.040  0.633  0.323-   3 2.67  28 2.68  16 2.68  12 2.68  64 2.69   5 2.70  30 2.70  42 2.71
                            29 2.72   2 2.73  39 2.73   1 2.73
  34  0.796  0.861  0.048-  50 2.37  48 2.49  66 2.51  36 2.61  71 2.62  63 2.66  20 2.77  35 2.86
                            62 2.86
  35  0.057  0.863  0.043-  58 2.52  24 2.56  72 2.57  36 2.58  66 2.62  53 2.74  62 2.83  23 2.83
                            34 2.86
  36  0.046  0.632  0.043-  21 2.52  58 2.57  35 2.58  50 2.60  34 2.61  72 2.67  47 2.71  71 2.78
                            40 2.85
  37  0.628  0.226  0.132-  51 2.50  67 2.50  56 2.50  68 2.55  59 2.56  20 2.56  74 2.57  62 2.59
                            41 2.59  66 2.75  57 2.86  48 3.06
  38  0.382  0.953  0.132-  53 2.44  80 2.47  45 2.47  78 2.53  63 2.54  55 2.56  73 2.58  48 2.60
                            54 2.61  24 2.71  57 2.71  70 2.76
  39  0.035  0.384  0.322-  29 2.60  42 2.62   3 2.64  31 2.64  75 2.65  10 2.65   7 2.66  22 2.66
                             5 2.68  65 2.71  33 2.73  43 2.89
  40  0.027  0.380  0.042-  69 2.41  21 2.52  76 2.55  70 2.56  71 2.56  23 2.63  36 2.85  45 2.88
                            47 2.94
  41  0.872  0.216  0.131-  76 2.44  77 2.50  65 2.53  67 2.53  62 2.56  37 2.59  23 2.60  51 2.63
                            69 2.64  70 2.71  66 2.72  24 2.81
  42  0.955  0.544  0.224-  50 2.54  29 2.54  21 2.59  69 2.60  39 2.62  28 2.64  65 2.67  32 2.68
                            49 2.69  33 2.71  64 2.75  31 2.79
  43  0.298  0.115  0.320-  55 2.52  31 2.57   8 2.58  80 2.62  19 2.62  52 2.63  61 2.63  22 2.65
                            10 2.70  13 2.72   3 2.79  39 2.89
  44  0.541  0.628  0.320-  78 2.62  61 2.65  14 2.65  52 2.65  15 2.66  32 2.67  27 2.68  18 2.70
                            75 2.70  30 2.71  26 2.72  29 2.74
  45  0.295  0.117  0.044-  38 2.47  70 2.47  57 2.57  53 2.58  63 2.67  23 2.69  20 2.79  40 2.88
                            47 2.89
  46  0.552  0.624  0.047-  51 2.40  54 2.41  73 2.41  71 2.63  76 2.68  63 2.70  53 2.71  56 2.73
                            72 2.79
  47  0.296  0.383  0.044-  74 2.37  21 2.52  57 2.61  72 2.64  56 2.64  36 2.71  20 2.78  45 2.89
                            40 2.94
  48  0.625  0.946  0.135-  49 2.39  80 2.48  54 2.49  34 2.49  63 2.54  20 2.57  59 2.57  38 2.60
                            50 2.63  57 2.77  66 2.80  37 3.06
  49  0.707  0.792  0.221-  48 2.39  50 2.47  54 2.49   1 2.61  80 2.62  32 2.62  61 2.63  28 2.66
                            29 2.66  78 2.67  42 2.69  59 2.80
  50  0.864  0.701  0.131-  34 2.37  71 2.39  49 2.47  54 2.50  42 2.54  28 2.57  69 2.60  36 2.60
                            48 2.63  21 2.71  66 2.91
  51  0.628  0.457  0.129-  46 2.40  76 2.45  37 2.50  56 2.52  26 2.56  32 2.59  67 2.62  41 2.63
                            69 2.68  74 2.70  73 2.73  54 2.82
  52  0.298  0.873  0.317-  55 2.43  79 2.51  78 2.53  61 2.61  43 2.63  44 2.65   8 2.66  30 2.67
                            14 2.70   2 2.73   6 2.76  22 2.80
  53  0.303  0.875  0.044-  73 2.42  38 2.44  24 2.57  45 2.58  63 2.62  46 2.71  35 2.74  72 2.75
                            23 2.82
  54  0.626  0.717  0.129-  46 2.41  71 2.48  63 2.49  48 2.49  49 2.49  50 2.50  32 2.54  38 2.61
                            78 2.63  73 2.63  69 2.76  51 2.82
  55  0.228  0.025  0.228-  52 2.43  78 2.50  43 2.52  79 2.53  80 2.54  22 2.55  38 2.56  24 2.59
                            31 2.60  70 2.73  77 2.82
  56  0.541  0.379  0.039-  74 2.49  37 2.50  51 2.52  47 2.64  72 2.69  76 2.73  46 2.73  20 2.74
                            62 2.77
  57  0.376  0.206  0.136-  68 2.47  20 2.55  80 2.56  45 2.57  31 2.59  47 2.61  74 2.71  70 2.71
                            38 2.71  48 2.77  21 2.77  37 2.86
  58  0.139  0.705  0.135-  72 2.44  64 2.48  35 2.52  79 2.55  28 2.56  36 2.57  74 2.69  24 2.70
                            73 2.73  21 2.80
  59  0.704  0.051  0.220-  66 2.51  37 2.56  48 2.57  19 2.59  60 2.61   1 2.63  68 2.67  67 2.68
                            77 2.74  80 2.78  49 2.80  28 2.80
  60  0.793  0.129  0.315-  67 2.52  77 2.56  59 2.61  18 2.68   9 2.69   2 2.70   1 2.74  17 2.74
                            75 2.75  22 2.77   4 2.78  19 2.84
  61  0.539  0.872  0.316-  78 2.48  80 2.51  52 2.61  49 2.63  43 2.63  44 2.65   8 2.70  19 2.72
                             1 2.72  27 2.73  29 2.74  11 2.78
  62  0.796  0.123  0.039-  66 2.51  41 2.56  37 2.59  20 2.70  23 2.70  76 2.72  56 2.77  35 2.83
                            34 2.86
  63  0.544  0.876  0.039-  54 2.49  48 2.54  38 2.54  53 2.62  34 2.66  45 2.67  46 2.70  20 2.72
                            71 2.76
  64  0.208  0.543  0.224-  58 2.48   3 2.56  30 2.59  21 2.63  74 2.65  33 2.69  28 2.70  68 2.70
                            26 2.72  42 2.75  79 2.82  31 2.93
  65  0.949  0.301  0.222-  69 2.51  41 2.53  22 2.53  67 2.57  75 2.59  31 2.61  70 2.62  77 2.63
                            42 2.67  32 2.69  39 2.71
  66  0.873  0.966  0.132-  59 2.51  34 2.51  62 2.51  77 2.56  28 2.58  35 2.62  41 2.72  37 2.75
                            24 2.77  48 2.80  50 2.91
  67  0.717  0.291  0.225-  37 2.50  60 2.52  41 2.53  18 2.55  77 2.57  65 2.57  75 2.60  51 2.62
                            59 2.68  32 2.76  26 2.82
  68  0.457  0.295  0.221-  57 2.47  74 2.51  37 2.55  19 2.57  18 2.63  59 2.67   3 2.69  64 2.70
                            26 2.75  80 2.88  31 2.89
  69  0.875  0.457  0.130-  40 2.41  71 2.45  76 2.46  65 2.51  32 2.56  50 2.60  42 2.60  41 2.64
                            21 2.66  51 2.68  70 2.74  54 2.76
  70  0.127  0.205  0.131-  45 2.47  31 2.50  40 2.56  23 2.56  65 2.62  24 2.67  21 2.71  57 2.71
                            41 2.71  55 2.73  69 2.74  38 2.76
  71  0.796  0.620  0.043-  50 2.39  69 2.45  54 2.48  40 2.56  34 2.62  46 2.63  76 2.68  63 2.76
                            36 2.78
  72  0.294  0.627  0.046-  58 2.44  74 2.45  73 2.50  35 2.57  47 2.64  36 2.67  56 2.69  53 2.75
                            46 2.79
  73  0.385  0.715  0.130-  46 2.41  53 2.42  72 2.50  26 2.51  78 2.56  38 2.58  79 2.61  54 2.63
                            24 2.70  51 2.73  58 2.73  74 2.87
  74  0.382  0.452  0.129-  47 2.37  72 2.45  56 2.49  68 2.51  26 2.54  37 2.57  64 2.65  58 2.69
                            51 2.70  57 2.71  21 2.82  73 2.87
  75  0.793  0.382  0.319-  65 2.59  67 2.60  29 2.64  39 2.65   9 2.65  15 2.68  32 2.69  18 2.69
                            44 2.70   7 2.71  22 2.72  60 2.75
  76  0.795  0.374  0.043-  41 2.44  51 2.45  69 2.46  40 2.55  23 2.66  46 2.68  71 2.68  62 2.72
                            56 2.73
  77  0.955  0.056  0.222-  41 2.50  24 2.55  60 2.56  22 2.56  66 2.56  67 2.57   2 2.60  65 2.63
                            59 2.74  55 2.82  79 2.84  28 2.93
  78  0.460  0.796  0.225-  61 2.48  55 2.50  80 2.53  38 2.53  52 2.53  73 2.56  79 2.61  44 2.62
                            54 2.63  32 2.66  49 2.67  26 2.71
  79  0.218  0.797  0.225-  52 2.51  24 2.51  55 2.53  30 2.55  58 2.55   2 2.56  78 2.61  73 2.61
                            26 2.65  64 2.82  77 2.84  28 2.93
  80  0.461  0.027  0.223-  38 2.47  48 2.48  61 2.51  78 2.53  19 2.54  55 2.54  57 2.56  49 2.62
                            43 2.62  31 2.77  59 2.78  68 2.88
  81  0.126  0.086  0.463-   6 1.64  10 1.70
 
  LATTYP: Found a hexagonal cell.
 ALAT       =    10.8599996567
 C/A-ratio  =     2.0257827528
  
  Lattice vectors:
  
 A1 = (   5.4299998284,  -9.4050355878,   0.0000000000)
 A2 = ( -10.8599996567,   0.0000000000,   0.0000000000)
 A3 = (   0.0000000000,   0.0000000000, -22.0000000000)


Analysis of symmetry for initial positions (statically):
=====================================================================
 Subroutine PRICEL returns:
 Original cell was already a primitive cell.
 

 Routine SETGRP: Setting up the symmetry group for a 
 hexagonal supercell.


 Subroutine GETGRP returns: Found  1 space group operations
 (whereof  1 operations were pure point group operations)
 out of a pool of 24 trial point group operations.


The static configuration has the point symmetry C_1 .


Analysis of symmetry for dynamics (positions and initial velocities):
=====================================================================
 Subroutine PRICEL returns:
 Original cell was already a primitive cell.
 

 Routine SETGRP: Setting up the symmetry group for a 
 hexagonal supercell.


 Subroutine GETGRP returns: Found  1 space group operations
 (whereof  1 operations were pure point group operations)
 out of a pool of 24 trial point group operations.


The dynamic configuration has the point symmetry C_1 .


Analysis of constrained symmetry for selective dynamics:
=====================================================================
 Subroutine PRICEL returns:
 Original cell was already a primitive cell.
 

 Routine SETGRP: Setting up the symmetry group for a 
 hexagonal supercell.


 Subroutine GETGRP returns: Found  1 space group operations
 (whereof  1 operations were pure point group operations)
 out of a pool of 24 trial point group operations.


The constrained configuration has the point symmetry C_1 .


Analysis of structural, dynamic, and magnetic symmetry:
=====================================================================
 Subroutine PRICEL returns:
 Original cell was already a primitive cell.
 

 Routine SETGRP: Setting up the symmetry group for a 
 hexagonal supercell.


 Subroutine GETGRP returns: Found  1 space group operations
 (whereof  1 operations were pure point group operations)
 out of a pool of 24 trial point group operations.


The magnetic configuration has the point symmetry C_1 .


 Subroutine INISYM returns: Found  1 space group operations
 (whereof  1 operations are pure point group operations),
 and found     1 'primitive' translations

 
 
 KPOINTS: mesh auto                               

Automatic generation of k-mesh.
Space group operators:
 irot       det(A)        alpha          n_x          n_y          n_z        tau_x        tau_y        tau_z
    1     1.000000     0.000001     1.000000     0.000000     0.000000     0.000000     0.000000     0.000000
 
 Subroutine IBZKPT returns following result:
 ===========================================
 
 Found      4 irreducible k-points:
 
 Following reciprocal coordinates:
            Coordinates               Weight
  0.000000  0.000000  0.000000      1.000000
  0.500000  0.000000  0.000000      1.000000
  0.000000  0.500000  0.000000      1.000000
  0.500000  0.500000  0.000000      1.000000
 
 Following cartesian coordinates:
            Coordinates               Weight
  0.000000  0.000000  0.000000      1.000000
  0.046041 -0.026582  0.000000      1.000000
  0.000000  0.053163  0.000000      1.000000
  0.046041  0.026582  0.000000      1.000000
 


--------------------------------------------------------------------------------------------------------




 Dimension of arrays:
   k-points           NKPTS =      4   k-points in BZ     NKDIM =      4   number of bands    NBANDS=    588
   number of dos      NEDOS =    301   number of ions     NIONS =     81
   non local maximal  LDIM  =      6   non local SUM 2l+1 LMDIM =     18
   total plane-waves  NPLWV = ******
   max r-space proj   IRMAX =   7380   max aug-charges    IRDMAX=  32147
   dimension x,y,z NGX =    84 NGY =   84 NGZ =  168
   dimension x,y,z NGXF=   168 NGYF=  168 NGZF=  336
   support grid    NGXF=   168 NGYF=  168 NGZF=  336
   ions per type =              32  13  10  13  12   1
   NGX,Y,Z   is equivalent  to a cutoff of  12.86, 12.86, 12.70 a.u.
   NGXF,Y,Z  is equivalent  to a cutoff of  25.72, 25.72, 25.39 a.u.

 SYSTEM =  Pt111                                   
 POSCAR =  10.86                                   

 Startparameter for this run:
   NWRITE =      2    write-flag & timer
   PREC   = accura    normal or accurate (medium, high low for compatibility)
   ISTART =      0    job   : 0-new  1-cont  2-samecut
   ICHARG =      2    charge: 1-file 2-atom 10-const
   ISPIN  =      2    spin polarized calculation?
   LNONCOLLINEAR =      F non collinear calculations
   LSORBIT =      F    spin-orbit coupling
   INIWAV =      1    electr: 0-lowe 1-rand  2-diag
   LASPH  =      F    aspherical Exc in radial PAW
   METAGGA=      F    non-selfconsistent MetaGGA calc.

 Electronic Relaxation 1
   ENCUT  =  550.0 eV  40.42 Ry    6.36 a.u.  20.77 20.77 42.07*2*pi/ulx,y,z
   ENINI  =  550.0     initial cutoff
   ENAUG  =  587.0 eV  augmentation charge cutoff
   NELM   =    200;   NELMIN=  2; NELMDL= -5     # of ELM steps 
   EDIFF  = 0.1E-04   stopping-criterion for ELM
   LREAL  =      T    real-space projection
   NLSPLINE    = F    spline interpolate recip. space projectors
   LCOMPAT=      F    compatible to vasp.4.4
   GGA_COMPAT  = T    GGA compatible to vasp.4.4-vasp.4.6
   LMAXPAW     = -100 max onsite density
   LMAXMIX     =    2 max onsite mixed and CHGCAR
   VOSKOWN=      0    Vosko Wilk Nusair interpolation
   ROPT   =   -0.00025  -0.00025  -0.00025  -0.00025
   ROPT   =   -0.00025  -0.00025
 Ionic relaxation
   EDIFFG = -.5E-01   stopping-criterion for IOM
   NSW    =    300    number of steps for IOM
   NBLOCK =      1;   KBLOCK =    300    inner block; outer block 
   IBRION =      2    ionic relax: 0-MD 1-quasi-New 2-CG
   NFREE  =      1    steps in history (QN), initial steepest desc. (CG)
   ISIF   =      2    stress and relaxation
   IWAVPR =     11    prediction:  0-non 1-charg 2-wave 3-comb
   ISYM   =      2    0-nonsym 1-usesym 2-fastsym
   LCORR  =      T    Harris-Foulkes like correction to forces

   POTIM  = 0.5000    time-step for ionic-motion
   TEIN   =    0.0    initial temperature
   TEBEG  =    0.0;   TEEND  =   0.0 temperature during run
   SMASS  =  -3.00    Nose mass-parameter (am)
   estimated Nose-frequenzy (Omega)   =  0.10E-29 period in steps =****** mass=  -0.270E-26a.u.
   SCALEE = 1.0000    scale energy and forces
   NPACO  =    256;   APACO  = 16.0  distance and # of slots for P.C.
   PSTRESS=    0.0 pullay stress

  Mass of Ions in am
   POMASS = 195.08 55.85 58.93 63.55 58.69  1.00
  Ionic Valenz
   ZVAL   =  10.00  8.00  9.00 11.00 10.00  1.00
  Atomic Wigner-Seitz radii
   RWIGS  =  -1.00 -1.00 -1.00 -1.00 -1.00 -1.00
  virtual crystal weights 
   VCA    =   1.00  1.00  1.00  1.00  1.00  1.00
   NELECT =     778.0000    total number of electrons
   NUPDOWN=      -1.0000    fix difference up-down

 DOS related values:
   EMIN   =  10.00;   EMAX   =-10.00  energy-range for DOS
   EFERMI =   0.00
   ISMEAR =     1;   SIGMA  =   0.10  broadening in eV -4-tet -1-fermi 0-gaus

 Electronic relaxation 2 (details)
   IALGO  =     68    algorithm
   LDIAG  =      T    sub-space diagonalisation (order eigenvalues)
   LSUBROT=      F    optimize rotation matrix (better conditioning)
   TURBO    =      0    0=normal 1=particle mesh
   IRESTART =      0    0=no restart 2=restart with 2 vectors
   NREBOOT  =      0    no. of reboots
   NMIN     =      0    reboot dimension
   EREF     =   0.00    reference energy to select bands
   IMIX   =      4    mixing-type and parameters
     AMIX     =   0.40;   BMIX     =  1.00
     AMIX_MAG =   1.60;   BMIX_MAG =  1.00
     AMIN     =   0.10
     WC   =   100.;   INIMIX=   1;  MIXPRE=   1;  MAXMIX= -45

 Intra band minimization:
   WEIMIN = 0.0010     energy-eigenvalue tresh-hold
   EBREAK =  0.43E-08  absolut break condition
   DEPER  =   0.30     relativ break condition  

   TIME   =   0.40     timestep for ELM

  volume/ion in A,a.u.               =      27.74       187.21
  Fermi-wavevector in a.u.,A,eV,Ry     =   1.149557  2.172347 17.979834  1.321481
  Thomas-Fermi vector in A             =   2.286226
 
 Write flags
   LWAVE        =      F    write WAVECAR
   LDOWNSAMPLE  =      F    k-point downsampling of WAVECAR
   LCHARG       =      F    write CHGCAR
   LVTOT        =      F    write LOCPOT, total local potential
   LVHAR        =      F    write LOCPOT, Hartree potential only
   LELF         =      F    write electronic localiz. function (ELF)
   LORBIT       =      0    0 simple, 1 ext, 2 COOP (PROOUT), +10 PAW based schemes


 Dipole corrections
   LMONO  =      F    monopole corrections only (constant potential shift)
   LDIPOL =      F    correct potential (dipole corrections)
   IDIPOL =      0    1-x, 2-y, 3-z, 4-all directions 
   EPSILON=  1.0000000 bulk dielectric constant

 Exchange correlation treatment:
   GGA     =    --    GGA type
   LEXCH   =     8    internal setting for exchange type
   VOSKOWN=      0    Vosko Wilk Nusair interpolation
   LHFCALC =     F    Hartree Fock is set to
   LHFONE  =     F    Hartree Fock one center treatment
   AEXX    =    0.0000 exact exchange contribution

 Linear response parameters
   LEPSILON=     F    determine dielectric tensor
   LRPA    =     F    only Hartree local field effects (RPA)
   LNABLA  =     F    use nabla operator in PAW spheres
   LVEL    =     F    velocity operator in full k-point grid
   LINTERFAST=   F  fast interpolation
   KINTER  =     0    interpolate to denser k-point grid
   CSHIFT  =0.1000    complex shift for real part using Kramers Kronig
   OMEGAMAX=  -1.0    maximum frequency
   DEG_THRESHOLD= 0.2000000E-02 threshold for treating states as degnerate
   RTIME   =   -0.100 relaxation time in fs
  (WPLASMAI=    0.000 imaginary part of plasma frequency in eV, 0.658/RTIME)
   DFIELD  = 0.0000000 0.0000000 0.0000000 field for delta impulse in time
 
 Orbital magnetization related:
   ORBITALMAG=     F  switch on orbital magnetization
   LCHIMAG   =     F  perturbation theory with respect to B field
   DQ        =  0.001000  dq finite difference perturbation B field
   LLRAUG    =     F  two centre corrections for induced B field



--------------------------------------------------------------------------------------------------------


 conjugate gradient relaxation of ions
   using selective dynamics as specified on POSCAR
 charge density and potential will be updated during run
 spin polarized calculation
 RMM-DIIS sequential band-by-band and
  variant of blocked Davidson during initial phase
 perform sub-space diagonalisation
    before iterative eigenvector-optimisation
 modified Broyden-mixing scheme, WC =      100.0
 initial mixing is a Kerker type mixing with AMIX =  0.4000 and BMIX =      1.0000
 Hartree-type preconditioning will be used
 using additional bands          199
 real space projection scheme for non local part
 use partial core corrections
 calculate Harris-corrections to forces 
   (improved forces if not selfconsistent)
 use gradient corrections 
 use of overlap-Matrix (Vanderbilt PP)
 Methfessel and Paxton  Order N= 1 SIGMA  =   0.10


--------------------------------------------------------------------------------------------------------


  energy-cutoff  :      550.00
  volume of cell :     2247.05
      direct lattice vectors                 reciprocal lattice vectors
    10.859999657  0.000000000  0.000000000     0.092081034 -0.053163010  0.000000000
     5.429999828  9.405035588  0.000000000     0.000000000  0.106326020  0.000000000
     0.000000000  0.000000000 22.000000000     0.000000000  0.000000000  0.045454545

  length of vectors
    10.859999657 10.859999657 22.000000000     0.106326020  0.106326020  0.045454545


 
 k-points in units of 2pi/SCALE and weight: mesh auto                               
   0.00000000  0.00000000  0.00000000       0.250
   0.04604052 -0.02658150  0.00000000       0.250
   0.00000000  0.05316301  0.00000000       0.250
   0.04604052  0.02658150  0.00000000       0.250
 
 k-points in reciprocal lattice and weights: mesh auto                               
   0.00000000  0.00000000  0.00000000       0.250
   0.50000000  0.00000000  0.00000000       0.250
   0.00000000  0.50000000  0.00000000       0.250
   0.50000000  0.50000000  0.00000000       0.250
 
 position of ions in fractional coordinates (direct lattice) 
   0.78590659  0.88020874  0.31524800
   0.04257364  0.88177964  0.31370973
   0.27915875  0.38064670  0.31692810
   0.87019317  0.96469293  0.42059480
   0.11910411  0.46412808  0.42183603
   0.12590040  0.96354724  0.41888153
   0.87497682  0.45849172  0.42177784
   0.37351107  0.96016846  0.41627808
   0.87133592  0.21392693  0.41557518
   0.12593070  0.21269212  0.41782953
   0.62423098  0.96005486  0.41886136
   0.87215243  0.70997132  0.42130498
   0.37466262  0.20841756  0.41949267
   0.37825765  0.71135960  0.41847626
   0.62610267  0.46220814  0.41803141
   0.12654405  0.70651036  0.42340325
   0.62422487  0.21060947  0.41708615
   0.54742151  0.37652352  0.31512903
   0.53351562  0.12532292  0.31279272
   0.54838833  0.12337347  0.04616746
   0.11897632  0.45840873  0.12986490
   0.04519691  0.13481382  0.31292212
   0.04066573  0.13149863  0.03673280
   0.13095494  0.95789127  0.13392649
   0.37415356  0.46077425  0.42048794
   0.45565223  0.54806677  0.21862214
   0.62164913  0.71224100  0.41944012
   0.95463232  0.78624459  0.22047772
   0.79516797  0.62339251  0.31784064
   0.28950236  0.63151888  0.31649645
   0.20027086  0.27704785  0.22602515
   0.70458292  0.55163211  0.22088515
   0.04025146  0.63259584  0.32276453
   0.79551100  0.86095123  0.04803851
   0.05739494  0.86293659  0.04269821
   0.04587539  0.63174243  0.04254194
   0.62839887  0.22641754  0.13184280
   0.38235880  0.95332843  0.13196947
   0.03496334  0.38411755  0.32212798
   0.02680797  0.37973819  0.04163164
   0.87237911  0.21580924  0.13075454
   0.95470242  0.54363827  0.22446703
   0.29778641  0.11532772  0.31966125
   0.54097877  0.62778136  0.32012546
   0.29450499  0.11703562  0.04414884
   0.55196850  0.62406631  0.04671093
   0.29607773  0.38273525  0.04410119
   0.62495157  0.94618873  0.13463855
   0.70730076  0.79195600  0.22069804
   0.86416424  0.70149040  0.13101985
   0.62840973  0.45654274  0.12888101
   0.29795006  0.87334357  0.31736468
   0.30340848  0.87503324  0.04361807
   0.62639551  0.71686996  0.12943899
   0.22824609  0.02519273  0.22797437
   0.54119566  0.37869383  0.03864044
   0.37588607  0.20624082  0.13551792
   0.13910459  0.70498816  0.13510658
   0.70439885  0.05140639  0.22049063
   0.79314448  0.12865017  0.31534633
   0.53912410  0.87242739  0.31621751
   0.79634723  0.12315750  0.03929397
   0.54409452  0.87593854  0.03924591
   0.20790243  0.54310364  0.22378593
   0.94893253  0.30075086  0.22244782
   0.87251125  0.96557984  0.13164478
   0.71714769  0.29144814  0.22456062
   0.45673307  0.29458484  0.22130469
   0.87502942  0.45728685  0.13000961
   0.12698014  0.20542845  0.13067041
   0.79570639  0.62023288  0.04302802
   0.29386926  0.62662746  0.04632212
   0.38503102  0.71488529  0.12987367
   0.38167182  0.45223852  0.12905631
   0.79263017  0.38181100  0.31912704
   0.79479377  0.37390398  0.04303644
   0.95461703  0.05594721  0.22179318
   0.45953371  0.79572721  0.22516979
   0.21814710  0.79732026  0.22492198
   0.46108295  0.02748800  0.22321297
   0.12560308  0.08557190  0.46303984
 
 position of ions in cartesian coordinates  (Angst):
  13.31447860  8.27839457  6.93545601
   5.25041305  8.29316891  6.90161400
   5.09857541  3.57999573  6.97241823
  14.68858001  9.07297136  9.25308569
   3.81368605  4.36514115  9.28039260
   6.59933968  9.06219610  9.21539374
  11.99185797  4.31213095  9.27911242
   9.27004463  9.03041851  9.15811781
  10.62433106  2.01199043  9.14265403
   2.52252555  2.00037700  9.19224965
  11.99224599  9.02935010  9.21494983
  13.32671927  6.67730555  9.26870945
   5.20054319  1.96017455  9.22883871
   7.97056043  6.69036233  9.20647782
   9.30926491  4.34708399  9.19669105
   5.21061952  6.64475508  9.31487152
   7.92269128  1.98078954  9.17589539
   7.98952006  3.54121711  6.93283870
   6.47448293  1.17866656  6.88143981
   6.62541500  1.16033190  1.01568419
   3.78124213  4.31135041  2.85702788
   1.22287740  1.26792875  6.88428671
   1.15566737  1.23674932  0.80812154
   6.62352002  9.00900149  2.94638274
   6.56531168  4.33359822  9.25073475
   7.92438554  5.15458743  4.80968704
  10.61857789  6.69865194  9.22768255
  14.63661464  7.39465836  4.85050991
  12.02054516  5.86302877  6.99249403
   6.57314290  5.93945753  6.96292184
   3.67931125  2.60564485  4.97255331
  10.64713259  5.18811965  4.85947330
   3.87212614  5.94958636  7.10081957
  13.31421424  8.09727694  1.05684727
   5.30905455  8.11594932  0.93936063
   3.92856797  5.94156004  0.93592272
   8.05385868  2.12946499  2.90054150
   9.32898959  8.96608780  2.90332824
   2.46546009  3.61263925  7.08681556
   2.35311289  3.57145122  0.91589603
  10.64588090  2.02969355  2.87659996
  13.32002369  5.11293728  4.93827471
   3.86018984  1.08466134  7.03254748
   9.28388194  5.90430608  7.04276009
   3.83382754  1.10072422  0.97127449
   9.38305771  5.86936583  1.02764050
   5.29365641  3.59963866  0.97022617
  11.92477847  8.89893867  2.96204804
  11.98160699  7.44837437  4.85535685
  13.19391605  6.59754215  2.88243667
   9.30355646  4.29380068  2.83538226
   7.97799297  8.21382733  6.98202303
   8.04644638  8.22971881  0.95959753
  10.69525881  6.74218749  2.84765773
   2.61554891  0.23693848  5.01543608
   7.93369212  3.56162890  0.85008961
   5.20201026  1.93970225  2.98139421
   5.33876141  6.63043871  2.97234485
   7.92890800  0.48347894  4.85079390
   9.31211921  1.20995941  6.93761933
  10.59216817  8.20521066  6.95678528
   9.31707587  1.15830066  0.86446726
  10.66521242  8.23823315  0.86341001
   5.20687297  5.10790903  4.92329037
  11.93848408  2.82857251  4.89385205
  14.71857022  9.08131274  2.89618505
   9.37078710  2.74108017  4.94033374
   6.55971659  2.77058089  4.86870315
  11.98588670  4.30079906  2.86021139
   2.49448074  1.93206192  2.87474900
  12.00923557  5.83331228  0.94661646
   6.59400710  5.89345359  1.01908661
   8.06326377  6.72352161  2.85722084
   6.60061090  4.25331933  2.83923887
  10.68119700  3.59094600  7.02079478
  10.66175863  3.51658022  0.94680163
  10.67093399  0.52618548  4.87945005
   9.31133460  7.48384275  4.95373546
   6.69852636  7.49882547  4.94828364
   5.15662057  0.25852564  4.91068524
   1.82870475  0.80480672 10.18687646
 


--------------------------------------------------------------------------------------------------------


 k-point  1 :   0.0000 0.0000 0.0000  plane waves:   65767
 k-point  2 :   0.5000 0.0000 0.0000  plane waves:   65808
 k-point  3 :   0.0000 0.5000 0.0000  plane waves:   65808
 k-point  4 :   0.5000 0.5000 0.0000  plane waves:   65808

 maximum and minimum number of plane-waves per node :     16481    16415

 maximum number of plane-waves:     65808
 maximum index in each direction: 
   IXMAX=   20   IYMAX=   20   IZMAX=   42
   IXMIN=  -21   IYMIN=  -21   IZMIN=  -42


 real space projection operators:
  total allocation   :      73594.00 KBytes
  max/ min on nodes  :      18406.33      18382.97


 parallel 3D FFT for wavefunctions:
    minimum data exchange during FFTs selected (reduces bandwidth)
 parallel 3D FFT for charge:
    minimum data exchange during FFTs selected (reduces bandwidth)


 total amount of memory used by VASP MPI-rank0   234350. kBytes
=======================================================================

   base      :      30000. kBytes
   nonlr-proj:      32779. kBytes
   fftplans  :      16141. kBytes
   grid      :      49182. kBytes
   one-center:        653. kBytes
   wavefun   :     105595. kBytes
 
     INWAV:  cpu time    0.0000: real time    0.0004
 Broyden mixing: mesh for mixing (old mesh)
   NGX = 41   NGY = 41   NGZ = 85
  (NGX  =168   NGY  =168   NGZ  =336)
  gives a total of 142885 points

 initial charge density was supplied:
 charge density of overlapping atoms calculated
 number of electron     778.0000000 magnetization     231.0000000
 keeping initial charge density in first step


--------------------------------------------------------------------------------------------------------


 Maximum index for non-local projection operator         1800
 Maximum index for augmentation-charges         1400 (set IRDMAX)


--------------------------------------------------------------------------------------------------------


 First call to EWALD:  gamma=   0.135
 Maximum number of real-space cells 4x 4x 2
 Maximum number of reciprocal cells 2x 2x 4

    FEWALD:  cpu time    0.0043: real time    0.0043


--------------------------------------- Iteration      1(   1)  ---------------------------------------


    POTLOK:  cpu time    0.3626: real time    0.3758
    SETDIJ:  cpu time    0.0319: real time    0.0320
     EDDAV:  cpu time   59.8399: real time   60.0139
       DOS:  cpu time    0.0022: real time    0.0354
    --------------------------------------------
      LOOP:  cpu time   60.2367: real time   60.4571

 eigenvalue-minimisations  :  9408
 total energy-change (2. order) : 0.7712054E+04  (-0.3285318E+05)
 number of electron     778.0000000 magnetization     231.0000000
 augmentation part      778.0000000 magnetization     231.0000000

 Free energy of the ion-electron system (eV)
  ---------------------------------------------------
  alpha Z        PSCENC =      2116.97411455
  Ewald energy   TEWEN  =    220595.21691010
  -Hartree energ DENC   =   -292508.62327771
  -exchange      EXHF   =         0.00000000
  -V(xc)+E(xc)   XCENC  =      1378.65772130
  PAW double counting   =     64136.80006862   -66038.70876209
  entropy T*S    EENTRO =         0.00086015
  eigenvalues    EBANDS =      7813.08169729
  atomic energy  EATOM  =     70218.65458108
  Solvation  Ediel_sol  =         0.00000000
  ---------------------------------------------------
  free energy    TOTEN  =      7712.05391329 eV

  energy without entropy =     7712.05305313  energy(sigma->0) =     7712.05362657


--------------------------------------------------------------------------------------------------------




--------------------------------------- Iteration      1(   2)  ---------------------------------------


     EDDAV:  cpu time   59.9237: real time   60.1166
       DOS:  cpu time    0.0028: real time    0.0071
    --------------------------------------------
      LOOP:  cpu time   59.9265: real time   60.1236

 eigenvalue-minimisations  :  9408
 total energy-change (2. order) :-0.6917964E+04  (-0.6197205E+04)
 number of electron     778.0000000 magnetization     231.0000000
 augmentation part      778.0000000 magnetization     231.0000000

 Free energy of the ion-electron system (eV)
  ---------------------------------------------------
  alpha Z        PSCENC =      2116.97411455
  Ewald energy   TEWEN  =    220595.21691010
  -Hartree energ DENC   =   -292508.62327771
  -exchange      EXHF   =         0.00000000
  -V(xc)+E(xc)   XCENC  =      1378.65772130
  PAW double counting   =     64136.80006862   -66038.70876209
  entropy T*S    EENTRO =         0.00078113
  eigenvalues    EBANDS =       895.11749384
  atomic energy  EATOM  =     70218.65458108
  Solvation  Ediel_sol  =         0.00000000
  ---------------------------------------------------
  free energy    TOTEN  =       794.08963081 eV

  energy without entropy =      794.08884969  energy(sigma->0) =      794.08937044


--------------------------------------------------------------------------------------------------------




--------------------------------------- Iteration      1(   3)  ---------------------------------------


     EDDAV:  cpu time   59.8531: real time   60.0363
       DOS:  cpu time    0.0029: real time    0.0164
    --------------------------------------------
      LOOP:  cpu time   59.8560: real time   60.0527

 eigenvalue-minimisations  :  9408
 total energy-change (2. order) :-0.1171061E+04  (-0.9485409E+03)
 number of electron     778.0000000 magnetization     231.0000000
 augmentation part      778.0000000 magnetization     231.0000000

 Free energy of the ion-electron system (eV)
  ---------------------------------------------------
  alpha Z        PSCENC =      2116.97411455
  Ewald energy   TEWEN  =    220595.21691010
  -Hartree energ DENC   =   -292508.62327771
  -exchange      EXHF   =         0.00000000
  -V(xc)+E(xc)   XCENC  =      1378.65772130
  PAW double counting   =     64136.80006862   -66038.70876209
  entropy T*S    EENTRO =         0.00032768
  eigenvalues    EBANDS =      -275.94264073
  atomic energy  EATOM  =     70218.65458108
  Solvation  Ediel_sol  =         0.00000000
  ---------------------------------------------------
  free energy    TOTEN  =      -376.97095720 eV

  energy without entropy =     -376.97128488  energy(sigma->0) =     -376.97106643


--------------------------------------------------------------------------------------------------------




--------------------------------------- Iteration      1(   4)  ---------------------------------------


     EDDAV:  cpu time   71.7812: real time   72.0043
       DOS:  cpu time    0.0030: real time    0.0132
    --------------------------------------------
      LOOP:  cpu time   71.7842: real time   72.0175

 eigenvalue-minimisations  : 11904
 total energy-change (2. order) :-0.1153532E+03  (-0.1053344E+03)
 number of electron     778.0000000 magnetization     231.0000000
 augmentation part      778.0000000 magnetization     231.0000000

 Free energy of the ion-electron system (eV)
  ---------------------------------------------------
  alpha Z        PSCENC =      2116.97411455
  Ewald energy   TEWEN  =    220595.21691010
  -Hartree energ DENC   =   -292508.62327771
  -exchange      EXHF   =         0.00000000
  -V(xc)+E(xc)   XCENC  =      1378.65772130
  PAW double counting   =     64136.80006862   -66038.70876209
  entropy T*S    EENTRO =        -0.01332972
  eigenvalues    EBANDS =      -391.28214541
  atomic energy  EATOM  =     70218.65458108
  Solvation  Ediel_sol  =         0.00000000
  ---------------------------------------------------
  free energy    TOTEN  =      -492.32411929 eV

  energy without entropy =     -492.31078956  energy(sigma->0) =     -492.31967605


--------------------------------------------------------------------------------------------------------




--------------------------------------- Iteration      1(   5)  ---------------------------------------


     EDDAV:  cpu time   68.0750: real time   68.3331
       DOS:  cpu time    0.0029: real time    0.0387
    CHARGE:  cpu time    3.7924: real time    3.8065
    MIXING:  cpu time    0.0097: real time    0.0099
    --------------------------------------------
      LOOP:  cpu time   71.8800: real time   72.1882

 eigenvalue-minimisations  : 11136
 total energy-change (2. order) :-0.4402040E+01  (-0.4364337E+01)
 number of electron     778.0000037 magnetization     216.7021289
 augmentation part      335.1174175 magnetization     183.6990935

 Broyden mixing:
  rms(total) = 0.11449E+02    rms(broyden)= 0.11449E+02
  rms(prec ) = 0.11807E+02
  weight for this iteration     100.00

 Free energy of the ion-electron system (eV)
  ---------------------------------------------------
  alpha Z        PSCENC =      2116.97411455
  Ewald energy   TEWEN  =    220595.21691010
  -Hartree energ DENC   =   -292508.62327771
  -exchange      EXHF   =         0.00000000
  -V(xc)+E(xc)   XCENC  =      1378.65772130
  PAW double counting   =     64136.80006862   -66038.70876209
  entropy T*S    EENTRO =        -0.01417915
  eigenvalues    EBANDS =      -395.68333589
  atomic energy  EATOM  =     70218.65458108
  Solvation  Ediel_sol  =         0.00000000
  ---------------------------------------------------
  free energy    TOTEN  =      -496.72615920 eV

  energy without entropy =     -496.71198004  energy(sigma->0) =     -496.72143281


--------------------------------------------------------------------------------------------------------




--------------------------------------- Iteration      1(   6)  ---------------------------------------


    POTLOK:  cpu time    0.3410: real time    0.3607
    SETDIJ:  cpu time    0.0309: real time    0.0311
    EDDIAG:  cpu time   10.7572: real time   10.8062
  RMM-DIIS:  cpu time   37.1792: real time   37.2828
    ORTHCH:  cpu time    1.2645: real time    1.2682
       DOS:  cpu time    0.0025: real time    0.0025
    CHARGE:  cpu time    3.6334: real time    3.6432
    MIXING:  cpu time    0.0108: real time    0.0114
    --------------------------------------------
      LOOP:  cpu time   53.2197: real time   53.4060

 eigenvalue-minimisations  :  9612
 total energy-change (2. order) :-0.2267450E+03  (-0.9812242E+02)
 number of electron     778.0000041 magnetization     212.9812386
 augmentation part      407.3628717 magnetization     179.2892457

 Broyden mixing:
  rms(total) = 0.20787E+02    rms(broyden)= 0.20787E+02
  rms(prec ) = 0.27375E+02
  weight for this iteration     100.00

 eigenvalues of (default mixing * dielectric matrix)
  average eigenvalue GAMMA=   0.2007
  0.2007

 Free energy of the ion-electron system (eV)
  ---------------------------------------------------
  alpha Z        PSCENC =      2116.97411455
  Ewald energy   TEWEN  =    220595.21691010
  -Hartree energ DENC   =   -290891.54237405
  -exchange      EXHF   =         0.00000000
  -V(xc)+E(xc)   XCENC  =      1333.06347153
  PAW double counting   =     68655.93449784   -70337.43700036
  entropy T*S    EENTRO =        -0.00152047
  eigenvalues    EBANDS =     -2414.33387636
  atomic energy  EATOM  =     70218.65458108
  Solvation  Ediel_sol  =         0.00000000
  ---------------------------------------------------
  free energy    TOTEN  =      -723.47119615 eV

  energy without entropy =     -723.46967567  energy(sigma->0) =     -723.47068932


--------------------------------------------------------------------------------------------------------




--------------------------------------- Iteration      1(   7)  ---------------------------------------


    POTLOK:  cpu time    0.3443: real time    0.3769
    SETDIJ:  cpu time    0.0308: real time    0.0310
    EDDIAG:  cpu time   10.6733: real time   10.7612
  RMM-DIIS:  cpu time   36.4143: real time   36.5758
    ORTHCH:  cpu time    1.2648: real time    1.2682
       DOS:  cpu time    0.0024: real time    0.0024
    CHARGE:  cpu time    3.6612: real time    3.6711
    MIXING:  cpu time    0.0112: real time    0.0113
    --------------------------------------------
      LOOP:  cpu time   52.4023: real time   52.6979

 eigenvalue-minimisations  :  9423
 total energy-change (2. order) : 0.2150540E+03  (-0.1585431E+02)
 number of electron     778.0000041 magnetization     208.1857326
 augmentation part      371.9539957 magnetization     165.0722400

 Broyden mixing:
  rms(total) = 0.14428E+02    rms(broyden)= 0.14428E+02
  rms(prec ) = 0.18891E+02
  weight for this iteration     100.00

 eigenvalues of (default mixing * dielectric matrix)
  average eigenvalue GAMMA=   0.2644
  0.3585  0.1703

 Free energy of the ion-electron system (eV)
  ---------------------------------------------------
  alpha Z        PSCENC =      2116.97411455
  Ewald energy   TEWEN  =    220595.21691010
  -Hartree energ DENC   =   -291546.92771104
  -exchange      EXHF   =         0.00000000
  -V(xc)+E(xc)   XCENC  =      1351.63376554
  PAW double counting   =     69606.66176124   -71440.06603547
  entropy T*S    EENTRO =        -0.00700893
  eigenvalues    EBANDS =     -1410.55755075
  atomic energy  EATOM  =     70218.65458108
  Solvation  Ediel_sol  =         0.00000000
  ---------------------------------------------------
  free energy    TOTEN  =      -508.41717368 eV

  energy without entropy =     -508.41016475  energy(sigma->0) =     -508.41483737


--------------------------------------------------------------------------------------------------------




--------------------------------------- Iteration      1(   8)  ---------------------------------------


    POTLOK:  cpu time    0.3435: real time    0.3649
    SETDIJ:  cpu time    0.0309: real time    0.0312
    EDDIAG:  cpu time   10.7128: real time   10.7635
  RMM-DIIS:  cpu time   36.5133: real time   36.6160
    ORTHCH:  cpu time    1.2658: real time    1.2694
       DOS:  cpu time    0.0026: real time    0.0026
    CHARGE:  cpu time    3.5656: real time    3.5751
    MIXING:  cpu time    0.0113: real time    0.0115
    --------------------------------------------
      LOOP:  cpu time   52.4458: real time   52.6343

 eigenvalue-minimisations  :  9437
 total energy-change (2. order) : 0.3195217E+02  (-0.1299950E+02)
 number of electron     778.0000048 magnetization     200.9859796
 augmentation part      373.9632659 magnetization     163.7433136

 Broyden mixing:
  rms(total) = 0.15997E+02    rms(broyden)= 0.15996E+02
  rms(prec ) = 0.18712E+02
  weight for this iteration     100.00

 eigenvalues of (default mixing * dielectric matrix)
  average eigenvalue GAMMA=   0.3105
  0.5829  0.2647  0.0840

 Free energy of the ion-electron system (eV)
  ---------------------------------------------------
  alpha Z        PSCENC =      2116.97411455
  Ewald energy   TEWEN  =    220595.21691010
  -Hartree energ DENC   =   -291782.52168621
  -exchange      EXHF   =         0.00000000
  -V(xc)+E(xc)   XCENC  =      1358.64876313
  PAW double counting   =     70793.50061894   -72704.88122811
  entropy T*S    EENTRO =        -0.01500816
  eigenvalues    EBANDS =     -1072.04206853
  atomic energy  EATOM  =     70218.65458108
  Solvation  Ediel_sol  =         0.00000000
  ---------------------------------------------------
  free energy    TOTEN  =      -476.46500322 eV

  energy without entropy =     -476.44999506  energy(sigma->0) =     -476.46000050


--------------------------------------------------------------------------------------------------------




--------------------------------------- Iteration      1(   9)  ---------------------------------------


    POTLOK:  cpu time    0.3498: real time    0.4420
    SETDIJ:  cpu time    0.0309: real time    0.0311
    EDDIAG:  cpu time   10.6964: real time   10.7402
  RMM-DIIS:  cpu time   36.6274: real time   36.7806
    ORTHCH:  cpu time    1.2625: real time    1.2665
       DOS:  cpu time    0.0025: real time    0.0025
    CHARGE:  cpu time    3.6084: real time    3.6223
    MIXING:  cpu time    0.0115: real time    0.0116
    --------------------------------------------
      LOOP:  cpu time   52.5894: real time   52.8967

 eigenvalue-minimisations  :  9449
 total energy-change (2. order) : 0.7554655E+02  (-0.1565562E+02)
 number of electron     778.0000032 magnetization     193.3150605
 augmentation part      376.6038496 magnetization     146.9547692

 Broyden mixing:
  rms(total) = 0.12996E+02    rms(broyden)= 0.12996E+02
  rms(prec ) = 0.14701E+02
  weight for this iteration     100.00

 eigenvalues of (default mixing * dielectric matrix)
  average eigenvalue GAMMA=   0.3500
  0.8304  0.3446  0.1125  0.1125

 Free energy of the ion-electron system (eV)
  ---------------------------------------------------
  alpha Z        PSCENC =      2116.97411455
  Ewald energy   TEWEN  =    220595.21691010
  -Hartree energ DENC   =   -291544.19712768
  -exchange      EXHF   =         0.00000000
  -V(xc)+E(xc)   XCENC  =      1375.58814856
  PAW double counting   =     72149.68118768   -74114.52860033
  entropy T*S    EENTRO =         0.00747323
  eigenvalues    EBANDS =     -1198.31513743
  atomic energy  EATOM  =     70218.65458108
  Solvation  Ediel_sol  =         0.00000000
  ---------------------------------------------------
  free energy    TOTEN  =      -400.91845024 eV

  energy without entropy =     -400.92592347  energy(sigma->0) =     -400.92094132


[...]
   -.687E+01 0.331E+02 -.283E+04   0.694E+01 -.329E+02 0.283E+04   -.377E-01 -.207E+00 0.125E+01   -.479E-01 0.185E-01 -.874E-02
   -.233E+02 0.268E+01 -.282E+04   0.224E+02 -.236E+01 0.282E+04   0.855E+00 -.383E+00 0.189E+01   0.427E-01 0.804E-01 -.158E-01
   0.141E+02 0.184E+02 -.280E+04   -.138E+02 -.183E+02 0.280E+04   -.230E+00 -.110E+00 -.607E+00   -.766E-01 -.416E-02 0.485E-02
   -.238E+02 -.648E+01 -.286E+04   0.239E+02 0.599E+01 0.286E+04   -.553E-01 0.459E+00 0.186E+01   -.545E-01 0.247E-01 -.348E-01
   0.203E+02 -.269E+02 -.283E+04   -.198E+02 0.266E+02 0.283E+04   -.533E+00 0.378E+00 0.266E+01   0.282E-01 -.250E-01 0.633E-02
   -.284E+02 0.200E+02 -.283E+04   0.275E+02 -.193E+02 0.283E+04   0.985E+00 -.715E+00 0.177E+01   -.849E-01 -.218E-01 -.301E-01
   -.140E+02 -.107E+02 -.281E+04   0.147E+02 0.112E+02 0.281E+04   -.644E+00 -.548E+00 0.112E+01   -.470E-01 -.225E-01 -.138E-01
   -.155E+02 -.105E+02 -.286E+04   0.157E+02 0.102E+02 0.286E+04   -.299E+00 0.316E+00 0.111E+01   0.100E+00 0.751E-02 -.822E-02
   -.183E+02 -.272E-01 -.283E+04   0.185E+02 -.325E+00 0.283E+04   -.214E+00 0.276E+00 0.157E+01   0.256E-01 0.726E-01 -.199E-01
   0.124E+01 -.292E+02 -.282E+04   -.147E+01 0.288E+02 0.282E+04   0.140E+00 0.465E+00 0.140E+01   0.101E+00 -.253E-02 -.772E-02
   0.339E+02 0.127E+02 -.284E+04   -.331E+02 -.126E+02 0.284E+04   -.736E+00 0.119E-01 0.191E+01   -.180E-01 -.634E-01 -.622E-02
   0.337E+02 -.660E+01 -.285E+04   -.331E+02 0.703E+01 0.285E+04   -.537E+00 -.350E+00 0.170E+01   -.330E-01 -.324E-01 -.530E-01
   0.125E+01 0.235E+01 -.282E+04   -.149E+01 -.282E+01 0.282E+04   0.251E+00 0.434E+00 0.165E+01   -.281E-01 0.788E-02 -.150E-01
   0.314E+02 -.116E+02 -.284E+04   -.314E+02 0.118E+02 0.284E+04   -.377E-01 -.234E+00 0.146E+01   0.320E-01 -.261E-01 -.144E-01
   0.689E+02 -.625E+02 -.148E+04   -.677E+02 0.627E+02 0.147E+04   -.119E+01 -.208E+00 0.170E+01   0.384E-01 0.679E-02 -.214E-02
   0.258E+02 -.431E+02 -.145E+04   -.270E+02 0.427E+02 0.145E+04   0.111E+01 0.375E+00 0.242E+01   0.689E-01 -.658E-02 0.132E-01
   0.311E+02 0.250E+02 0.290E+04   -.312E+02 -.251E+02 -.290E+04   0.557E-01 0.209E+00 -.262E+01   0.672E-01 -.797E-01 -.536E-02
   0.207E+02 -.708E+01 0.155E+04   -.215E+02 0.774E+01 -.156E+04   0.995E+00 -.661E+00 0.933E+00   -.105E+00 0.538E-01 0.769E-01
   -.642E+02 0.146E+02 -.145E+04   0.652E+02 -.141E+02 0.144E+04   -.954E+00 -.578E+00 0.260E+01   -.257E-01 0.126E-02 -.595E-01
   -.459E+02 0.631E+02 0.298E+04   0.467E+02 -.619E+02 -.298E+04   -.771E+00 -.118E+01 -.245E+01   -.317E-01 0.411E-01 0.208E-01
   0.120E+02 -.505E+02 0.154E+04   -.118E+02 0.499E+02 -.154E+04   -.274E+00 0.538E+00 -.761E+00   0.228E-01 0.208E-01 0.329E-01
   0.131E+02 0.262E+01 -.283E+04   -.133E+02 -.260E+01 0.283E+04   0.171E+00 -.238E-01 0.130E+01   0.421E-01 0.283E-02 -.166E-01
   -.155E+02 0.157E+01 0.297E+02   0.156E+02 -.123E+01 -.308E+02   -.100E+00 -.374E+00 0.109E+01   0.175E-01 -.212E-01 0.979E-02
   -.163E+02 0.133E+02 -.286E+04   0.156E+02 -.134E+02 0.286E+04   0.621E+00 0.108E+00 0.167E+01   0.217E-01 -.127E-01 -.333E-01
   0.385E+01 0.451E+02 0.321E+02   -.493E+01 -.464E+02 -.324E+02   0.128E+01 0.137E+01 0.943E-01   -.377E-01 -.165E-01 -.856E-02
   -.638E+02 0.720E+01 -.145E+04   0.643E+02 -.841E+01 0.144E+04   -.452E+00 0.122E+01 0.278E+01   -.202E-01 0.366E-01 -.519E-01
   0.299E+02 0.288E+02 -.149E+04   -.297E+02 -.279E+02 0.148E+04   -.195E+00 -.804E+00 0.219E+01   -.382E-02 -.374E-01 -.259E-01
   0.147E+01 -.649E+02 -.715E+02   -.243E+01 0.643E+02 0.718E+02   0.107E+01 0.542E+00 -.322E+00   -.439E-01 -.400E-01 -.318E-01
   -.167E+02 -.193E+02 0.206E+02   0.174E+02 0.200E+02 -.212E+02   -.718E+00 -.778E+00 0.547E+00   -.788E-02 -.480E-01 0.405E-01
   0.163E+02 0.135E+02 -.119E+04   -.163E+02 -.139E+02 0.119E+04   0.494E-01 0.386E+00 0.225E+00   0.473E-02 0.361E-01 -.252E-01
   -.674E+02 -.945E+01 0.234E+04   0.676E+02 0.818E+01 -.233E+04   -.273E+00 0.133E+01 -.287E+01   0.164E-01 -.179E-01 0.113E-01
   0.353E+02 -.230E+02 0.238E+04   -.352E+02 0.212E+02 -.238E+04   -.341E-01 0.184E+01 -.271E+01   -.113E-01 0.137E-01 0.122E-01
   0.278E+02 0.142E+01 0.237E+04   -.276E+02 -.698E+00 -.237E+04   -.124E+00 -.823E+00 -.305E+01   -.575E-01 0.734E-01 0.180E-01
   0.225E+02 0.607E+02 0.123E+04   -.216E+02 -.599E+02 -.123E+04   -.994E+00 -.852E+00 -.715E-01   0.630E-01 0.212E-01 0.295E-02
   0.281E+02 -.606E+02 0.124E+04   -.279E+02 0.602E+02 -.124E+04   -.105E+00 0.328E+00 -.438E+00   -.609E-01 0.443E-01 0.263E-01
   -.569E+02 -.138E+02 -.119E+04   0.571E+02 0.141E+02 0.119E+04   -.140E+00 -.290E+00 0.589E+00   -.210E-01 0.109E-01 -.377E-01
   -.120E+03 0.160E+02 0.239E+04   0.119E+03 -.159E+02 -.239E+04   0.829E+00 -.158E+00 -.307E+01   -.106E+00 0.300E-02 0.147E-01
   -.347E+02 0.513E+02 0.125E+04   0.338E+02 -.509E+02 -.125E+04   0.870E+00 -.560E+00 -.473E+00   0.101E-01 0.449E-01 -.356E-01
   -.562E+02 0.285E+01 -.386E+02   0.559E+02 -.258E+01 0.387E+02   0.257E+00 -.396E+00 -.175E+00   -.128E-01 0.423E-01 -.192E-01
   0.208E+02 -.831E+02 -.121E+04   -.210E+02 0.829E+02 0.121E+04   0.179E+00 0.278E+00 0.837E+00   -.675E-02 0.190E-02 -.655E-01
   0.132E+02 0.260E+02 -.119E+04   -.134E+02 -.261E+02 0.119E+04   0.162E+00 0.579E-01 0.109E+00   0.148E-01 -.561E-01 -.219E-01
   -.168E+01 -.649E+02 0.236E+04   0.829E+00 0.638E+02 -.236E+04   0.922E+00 0.117E+01 -.305E+01   -.585E-01 -.428E-01 0.123E-01
   0.182E+02 -.171E+02 0.266E+04   -.181E+02 0.174E+02 -.266E+04   -.818E-01 -.220E+00 -.296E+01   -.722E-02 -.830E-01 -.533E-01
   0.129E+03 0.397E+02 0.269E+04   -.129E+03 -.387E+02 -.268E+04   0.169E+00 -.980E+00 -.282E+01   -.578E-02 0.163E-01 0.677E-02
   -.511E+02 -.483E+02 0.136E+04   0.504E+02 0.472E+02 -.136E+04   0.537E+00 0.119E+01 -.299E+00   0.567E-01 -.114E-01 0.308E-01
   -.648E+02 0.494E+02 0.243E+02   0.649E+02 -.493E+02 -.249E+02   -.874E-01 -.120E+00 0.525E+00   0.674E-01 -.304E-02 0.465E-01
   -.108E+03 0.821E+01 0.136E+04   0.107E+03 -.781E+01 -.136E+04   0.482E+00 -.471E+00 -.132E+00   0.393E-01 0.527E-02 0.255E-01
   -.121E+02 -.124E+02 0.136E+04   0.123E+02 0.121E+02 -.136E+04   -.133E+00 0.425E+00 -.203E+00   0.232E-01 -.945E-02 -.621E-01
   0.497E+02 -.420E+01 -.136E+04   -.496E+02 0.408E+01 0.136E+04   -.148E+00 0.178E+00 0.113E+01   -.107E-01 0.138E-03 -.750E-01
   0.545E+02 -.488E+02 0.268E+04   -.541E+02 0.490E+02 -.267E+04   -.425E+00 -.184E+00 -.296E+01   0.377E-02 -.285E-01 0.619E-03
   -.104E+01 0.127E+02 0.136E+04   0.114E+01 -.124E+02 -.136E+04   -.200E+00 -.307E+00 -.520E+00   0.113E-01 -.553E-01 -.326E-01
   0.340E+02 -.756E+02 -.185E+02   -.332E+02 0.751E+02 0.189E+02   -.829E+00 0.562E+00 -.454E+00   -.264E-01 0.246E-01 -.611E-01
   0.222E+02 0.186E+02 0.332E+04   -.228E+02 -.180E+02 -.332E+04   0.451E+00 -.538E+00 -.427E+01   0.221E+00 0.582E-01 0.782E-02
   0.544E+02 0.702E+01 0.167E+04   -.546E+02 -.751E+01 -.167E+04   0.175E+00 0.576E+00 -.111E+00   -.363E-01 -.735E-01 0.901E-01
   0.112E+03 -.377E+02 0.164E+04   -.112E+03 0.378E+02 -.164E+04   -.192E+00 -.103E+00 -.143E+00   -.146E-01 0.451E-01 0.380E-01
   0.244E+02 0.643E+02 0.107E+03   -.250E+02 -.642E+02 -.107E+03   0.547E+00 -.225E+00 0.251E+00   0.220E-02 -.390E-01 0.191E-01
   0.927E+01 0.551E+02 -.163E+04   -.870E+01 -.549E+02 0.163E+04   -.547E+00 -.257E+00 0.107E+01   -.281E-01 0.270E-01 0.431E-01
   -.396E+02 0.266E+02 -.163E+04   0.387E+02 -.263E+02 0.163E+04   0.954E+00 -.212E+00 0.199E+01   0.833E-01 -.488E-01 -.417E-01
   0.326E+01 0.103E+03 0.327E+04   -.319E+01 -.103E+03 -.327E+04   -.150E+00 0.378E+00 -.346E+01   0.442E-01 0.350E-01 -.650E-03
   -.163E+02 -.589E+02 0.331E+04   0.154E+02 0.590E+02 -.330E+04   0.875E+00 -.166E+00 -.330E+01   -.116E-01 -.384E-01 -.657E-01
   0.109E+03 0.140E+02 -.473E+02   -.109E+03 -.139E+02 0.476E+02   -.573E-01 -.277E+00 -.474E+00   0.995E-02 0.452E-01 0.173E-01
   -.118E+03 -.210E+02 0.317E+02   0.117E+03 0.209E+02 -.315E+02   0.333E+00 0.373E-01 -.994E-01   -.165E-01 -.373E-02 -.410E-01
   -.563E+01 0.700E+02 0.174E+04   0.550E+01 -.693E+02 -.174E+04   0.183E+00 -.710E+00 -.880E+00   0.801E-03 -.274E-01 -.157E-01
   0.242E+02 -.666E+02 0.382E+02   -.237E+02 0.654E+02 -.386E+02   -.432E+00 0.129E+01 0.299E+00   0.762E-02 0.589E-01 0.567E-02
   0.557E+02 -.184E+02 0.127E+02   -.551E+02 0.182E+02 -.126E+02   -.753E+00 0.237E+00 -.916E-01   0.410E-01 0.274E-01 0.348E-01
   -.693E+02 -.139E+01 0.150E+04   0.689E+02 0.159E+01 -.150E+04   0.483E+00 -.121E+00 -.251E+00   -.297E-01 -.410E-01 -.440E-01
   -.207E+02 0.165E+02 0.156E+04   0.211E+02 -.167E+02 -.156E+04   -.392E+00 0.304E+00 -.504E+00   -.562E-01 -.274E-01 0.311E-01
   -.864E+02 -.143E+02 0.299E+04   0.869E+02 0.143E+02 -.299E+04   -.667E+00 0.487E-01 -.198E+01   -.301E-01 -.600E-01 -.320E-01
   0.400E+02 -.470E+02 0.298E+04   -.408E+02 0.475E+02 -.298E+04   0.858E+00 -.585E+00 -.136E+01   0.975E-01 0.860E-01 0.100E-01
   0.112E+02 -.203E+02 0.154E+04   -.107E+02 0.202E+02 -.154E+04   -.381E+00 0.192E+00 -.671E-02   -.243E-01 -.422E-01 -.321E-01
   0.474E+02 0.931E+00 0.154E+04   -.470E+02 -.107E+01 -.154E+04   -.581E+00 0.114E+00 -.293E+00   0.119E+00 0.659E-01 0.107E+00
   -.349E+02 -.559E+02 -.150E+04   0.350E+02 0.559E+02 0.150E+04   0.629E-01 -.422E-01 0.472E+00   -.625E-01 0.148E-01 -.345E-01
   -.257E+02 0.143E+02 0.297E+04   0.263E+02 -.138E+02 -.296E+04   -.634E+00 -.461E+00 -.217E+01   -.305E-01 0.446E-01 0.161E-01
   -.521E+02 0.867E+02 0.756E+02   0.525E+02 -.864E+02 -.754E+02   -.373E+00 -.324E+00 -.167E+00   0.322E-01 0.217E-02 -.159E-01
   0.815E+00 0.598E+02 -.719E+00   -.856E+00 -.590E+02 0.561E+00   0.950E-01 -.813E+00 -.235E-01   -.257E-01 0.120E-01 0.219E-01
   0.655E+02 -.466E+01 -.254E+02   -.652E+02 0.530E+01 0.255E+02   -.389E+00 -.682E+00 -.138E+00   -.735E-02 0.128E-01 -.388E-01
   0.291E+01 -.682E+02 0.360E+02   -.329E+01 0.678E+02 -.361E+02   0.353E+00 0.494E+00 0.292E-01   -.211E-01 -.219E-01 -.434E-02
   -.155E+01 -.229E+01 -.339E+03   0.182E+01 0.260E+01 0.340E+03   -.243E+00 -.338E+00 -.187E+01   -.662E-02 -.313E-02 0.224E-02
 -----------------------------------------------------------------------------------------------
   -.130E+01 0.139E+00 0.276E+01   0.925E-12 -.560E-12 0.557E-11   0.116E+01 -.191E+00 -.226E+01   0.126E+00 0.703E-01 -.506E+00
 
 
 POSITION                                       TOTAL-FORCE (eV/Angst)
 -----------------------------------------------------------------------------------
     13.30826      8.27608      6.92814        -0.005845      0.009252     -0.017458
      5.26372      8.30282      6.89195        -0.000952      0.002990     -0.006387
      5.10099      3.57814      6.97231        -0.000778      0.007839      0.010498
     14.70712      9.06563      9.17964        -0.014500     -0.006812      0.027002
      3.81542      4.36990      9.26888         0.000846     -0.004360      0.009208
      6.55767      9.02875      9.21879         0.004146      0.013044      0.020558
     11.98571      4.32368      9.27249        -0.013357      0.012004      0.007497
      9.30736      9.00920      9.14818        -0.006959      0.011398     -0.001938
     10.59727      2.01038      9.12518         0.019070      0.000518     -0.001080
      2.53741      2.02380      9.26231        -0.018798     -0.013729      0.003313
     11.99817      9.02603      9.21900         0.006178      0.021507     -0.000239
     13.35505      6.69383      9.26625         0.014352     -0.004705      0.002298
      5.21269      1.96262      9.22691         0.009029      0.005969      0.001962
      7.95939      6.68835      9.21135        -0.002623     -0.003113     -0.002692
      9.31308      4.35066      9.19875         0.009822      0.016298     -0.003635
      5.20402      6.68754      9.24752        -0.002405     -0.011354      0.012315
      7.92146      1.97859      9.17982        -0.011006     -0.016409     -0.001725
      7.99012      3.54040      6.93436        -0.003885      0.005175     -0.007916
      6.47594      1.17878      6.88001         0.006827      0.002317     -0.000164
      6.62542      1.16033      1.01568        -0.002202      0.006435      0.013043
      3.78124      4.31135      2.85703        -0.008130     -0.007340     -0.004751
      1.24107      1.28289      6.89317        -0.010658     -0.017363      0.030251
      1.15567      1.23675      0.80812        -0.009999      0.004272     -0.006867
      6.62352      9.00900      2.94638         0.011517     -0.004007     -0.002308
      6.56580      4.34013      9.25215        -0.005866      0.013790     -0.001000
      7.92439      5.15459      4.80969         0.019835     -0.007613     -0.011260
     10.62279      6.68877      9.23491        -0.002971     -0.019502     -0.008192
     14.63661      7.39466      4.85051         0.056798     -0.012317     -0.119501
     12.02085      5.86807      6.99111         0.004349     -0.012810      0.001044
      6.58127      5.93832      6.95635         0.000984     -0.003715     -0.000929
      3.67931      2.60564      4.97255        -0.023171     -0.030584     -0.051807
     10.64713      5.18812      4.85947        -0.000374     -0.012364     -0.024350
      3.87195      5.94982      7.08548         0.013139     -0.013465      0.012219
     13.31421      8.09728      1.05685        -0.006719      0.005063      0.019480
      5.30905      8.11595      0.93936        -0.011365      0.024800      0.008179
      3.92857      5.94156      0.93592         0.001368      0.008511      0.018470
      8.05386      2.12946      2.90054        -0.027911      0.009628     -0.013273
      9.32899      8.96609      2.90333         0.003979      0.044585     -0.009037
      2.47241      3.62210      7.08335        -0.003044     -0.004727      0.005803
      2.35311      3.57145      0.91590        -0.008252     -0.014402     -0.004127
     10.64588      2.02969      2.87660        -0.024095     -0.002462     -0.021521
     13.32002      5.11294      4.93827        -0.025188     -0.047488      0.006135
      3.86174      1.08151      7.03912         0.001268     -0.005034      0.024897
      9.28253      5.90389      7.04314         0.005245      0.003780     -0.000910
      3.83383      1.10072      0.97127        -0.017154      0.014406      0.048010
      9.38306      5.86937      1.02764        -0.011916      0.010574      0.010423
      5.29366      3.59964      0.97023        -0.000401     -0.029536      0.004679
     11.92478      8.89894      2.96205        -0.009980      0.013145      0.021221
     11.98161      7.44837      4.85536         0.001564      0.016202     -0.004532
     13.19392      6.59754      2.88244        -0.003281     -0.028453     -0.012431
      9.30356      4.29380      2.83538         0.017812      0.024972     -0.024819
      7.98467      8.21209      6.97642         0.004596      0.009034      0.008630
      8.04645      8.22972      0.95960        -0.010523      0.027580     -0.003237
     10.69526      6.74219      2.84766        -0.031646     -0.003993     -0.013701
      2.61555      0.23694      5.01544         0.014460      0.009510      0.015434
      7.93369      3.56163      0.85009         0.002394     -0.007629      0.016368
      5.20201      1.93970      2.98139        -0.011152     -0.026928      0.001157
      5.33876      6.63044      2.97234         0.002027      0.001177      0.017931
      7.92891      0.48348      4.85079         0.006492     -0.000258     -0.018127
      9.31237      1.21516      6.92198         0.004352      0.002672      0.006639
     10.59456      8.20251      6.95336         0.000090      0.002313      0.003170
      9.31708      1.15830      0.86447        -0.004824      0.011842      0.011607
     10.66521      8.23823      0.86341         0.001508      0.006687      0.015708
      5.20687      5.10791      4.92329        -0.002851     -0.017595     -0.024787
     11.93848      2.82857      4.89385         0.016446     -0.031317      0.031094
     14.71857      9.08131      2.89619         0.012962      0.021343      0.002506
      9.37079      2.74108      4.94033        -0.002485      0.023631     -0.007390
      6.55972      2.77058      4.86870        -0.002519      0.015013      0.000078
     11.98589      4.30080      2.86021         0.005362     -0.023062     -0.002992
      2.49448      1.93206      2.87475         0.011219      0.018701      0.008798
     12.00924      5.83331      0.94662         0.000131      0.013434      0.020900
      6.59401      5.89345      1.01909        -0.002210      0.007445     -0.020097
      8.06326      6.72352      2.85722         0.027988      0.000178     -0.008890
      6.60061      4.25332      2.83924        -0.010783     -0.006582     -0.004640
     10.68365      3.59634      7.01462        -0.000001     -0.001699      0.006036
     10.66176      3.51658      0.94680         0.003616     -0.023535     -0.015869
     10.67093      0.52619      4.87945         0.029917      0.012546      0.034765
      9.31133      7.48384      4.95374         0.006410     -0.001069     -0.036095
      6.69853      7.49883      4.94828         0.003134      0.004152      0.008042
      5.15662      0.25853      4.91069        -0.014218      0.018317      0.001674
      1.82177      0.72349     10.31378         0.025767     -0.036722     -0.008368
 -----------------------------------------------------------------------------------
    total drift:                               -0.015676      0.017912     -0.006714


--------------------------------------------------------------------------------------------------------



  FREE ENERGIE OF THE ION-ELECTRON SYSTEM (eV)
  ---------------------------------------------------
  free  energy   TOTEN  =      -507.52545850 eV

  energy  without entropy=     -507.54253698  energy(sigma->0) =     -507.53115132
 
 d Force = 0.9727048E-03[ 0.202E-03, 0.174E-02]  d Energy = 0.9721510E-03 0.554E-06
 d Force = 0.1488123E+02[ 0.149E+02, 0.149E+02]  d Ewald  = 0.1488124E+02-0.351E-05


--------------------------------------------------------------------------------------------------------


    POTLOK:  cpu time    0.4178: real time    0.4243


--------------------------------------------------------------------------------------------------------


 Conjugate gradient step on ions:
 trial-energy change:   -0.000972  1 .order   -0.000973   -0.001744   -0.000202
  (g-gl).g = 0.125E-02      g.g   = 0.110E-02  gl.gl    = 0.220E-02
 g(Force)  = 0.110E-02   g(Stress)= 0.000E+00 ortho     =-0.211E-03
 gamma     =   0.57026
 trial     =   1.77400
 opt step  =   2.00597  (harmonic =   2.00597) maximal distance =0.00917926
 next E    =  -507.525472   (d E  =  -0.00099)


--------------------------------------------------------------------------------------------------------


  
 reached required accuracy - stopping structural energy minimisation
     LOOP+:  cpu time  600.3900: real time  603.2240
    4ORBIT:  cpu time    0.0000: real time    0.0000

 total amount of memory used by VASP MPI-rank0   234350. kBytes
=======================================================================

   base      :      30000. kBytes
   nonlr-proj:      32779. kBytes
   fftplans  :      16141. kBytes
   grid      :      49182. kBytes
   one-center:        653. kBytes
   wavefun   :     105595. kBytes
 
  
  
 General timing and accounting informations for this job:
 ========================================================
  
                  Total CPU time used (sec):    15135.852
                            User time (sec):    14735.046
                          System time (sec):      400.805
                         Elapsed time (sec):    15256.696
  
                   Maximum memory used (kb):      423824.
                   Average memory used (kb):           0.
  
                          Minor page faults:      3119924
                          Major page faults:          331
                 Voluntary context switches:        12898
