 vasp.5.4.4.18Apr17-6-g9f103f2a35 (build Oct 25 2019 11:13:22) complex          
  
 executed on             LinuxIFC date 2021.10.14  19:36:49
 running on   48 total cores
 distrk:  each k-point on   48 cores,    1 groups
 distr:  one band on NCORES_PER_BAND=   4 cores,   12 groups


--------------------------------------------------------------------------------------------------------


 INCAR:
 POTCAR:    PAW_PBE Pt 04Feb2005                  
 POTCAR:    PAW_PBE Fe 06Sep2000                  
 POTCAR:    PAW_PBE Co 02Aug2007                  
 POTCAR:    PAW_PBE Cu 22Jun2005                  
 POTCAR:    PAW_PBE Ni 02Aug2007                  
 POTCAR:    PAW_PBE H 15Jun2001                   
 POTCAR:    PAW_PBE Pt 04Feb2005                  
   VRHFIN =Pt: s1d9                                                             
   LEXCH  = PE                                                                  
   EATOM  =   729.1176 eV,   53.5886 Ry                                         
                                                                                
   TITEL  = PAW_PBE Pt 04Feb2005                                                
   LULTRA =        F    use ultrasoft PP ?                                      
   IUNSCR =        1    unscreen: 0-lin 1-nonlin 2-no                           
   RPACOR =    2.330    partial core radius                                     
   POMASS =  195.080; ZVAL   =   10.000    mass and valenz                      
   RCORE  =    2.600    outmost cutoff radius                                   
   RWIGS  =    2.750; RWIGS  =    1.455    wigner-seitz radius (au A)           
   ENMAX  =  230.283; ENMIN  =  172.712 eV                                      
   ICORE  =        3    local potential                                         
   LCOR   =        T    correct aug charges                                     
   LPAW   =        T    paw PP                                                  
   EAUG   =  358.966                                                            
   DEXC   =    0.000                                                            
   RMAX   =    2.658    core radius for proj-oper                               
   RAUG   =    1.300    factor for augmentation sphere                          
   RDEP   =    2.761    radius for radial grids                                 
   RDEPT  =    2.203    core radius for aug-charge                              
                                                                                
   Atomic configuration                                                         
   16 entries                                                                   
     n  l   j            E        occ.                                          
     1  0  0.50    -78401.1885   2.0000                                         
     2  0  0.50    -13770.7750   2.0000                                         
     2  1  1.50    -11931.0468   6.0000                                         
     3  0  0.50     -3234.7234   2.0000                                         
     3  1  1.50     -2699.2216   6.0000                                         
     3  2  2.50     -2119.5714  10.0000                                         
     4  0  0.50      -695.1528   2.0000                                         
     4  1  1.50      -519.6034   6.0000                                         
     4  2  2.50      -306.6786  10.0000                                         
     4  3  3.50       -70.1041  14.0000                                         
     5  0  0.50      -101.7747   2.0000                                         
     5  1  1.50       -55.9873   6.0000                                         
     5  2  2.50        -6.1423   9.0000                                         
     6  0  0.50        -5.6573   1.0000                                         
     6  1  1.50        -6.8029   0.0000                                         
     5  3  2.50        -1.3606   0.0000                                         
   Description                                                                  
     l       E           TYP  RCUT    TYP  RCUT                                 
     2     -6.1423404     23  2.500                                             
     2     -7.5029230     23  2.500                                             
     0     -5.6573207     23  2.500                                             
     0      0.7416693     23  2.500                                             
     1     -2.7211652     23  2.600                                             
     1     20.4087390     23  2.600                                             
     3     -1.3605826     23  2.500                                             
  local pseudopotential read in
  partial core-charges read in
  partial kinetic energy density read in
  atomic valenz-charges read in
  non local Contribution for L=           2  read in
    real space projection operators read in
  non local Contribution for L=           2  read in
    real space projection operators read in
  non local Contribution for L=           0  read in
    real space projection operators read in
  non local Contribution for L=           0  read in
    real space projection operators read in
  non local Contribution for L=           1  read in
    real space projection operators read in
  non local Contribution for L=           1  read in
    real space projection operators read in
    PAW grid and wavefunctions read in
 
   number of l-projection  operators is LMAX  =           6
   number of lm-projection operators is LMMAX =          18
 
 POTCAR:    PAW_PBE Fe 06Sep2000                  
   VRHFIN =Fe:  d7 s1                                                           
   LEXCH  = PE                                                                  
   EATOM  =   594.3153 eV,   43.6809 Ry                                         
                                                                                
   TITEL  = PAW_PBE Fe 06Sep2000                                                
   LULTRA =        F    use ultrasoft PP ?                                      
   IUNSCR =        1    unscreen: 0-lin 1-nonlin 2-no                           
   RPACOR =    2.000    partial core radius                                     
   POMASS =   55.847; ZVAL   =    8.000    mass and valenz                      
   RCORE  =    2.300    outmost cutoff radius                                   
   RWIGS  =    2.460; RWIGS  =    1.302    wigner-seitz radius (au A)           
   ENMAX  =  267.882; ENMIN  =  200.911 eV                                      
   RCLOC  =    1.701    cutoff for local pot                                    
   LCOR   =        T    correct aug charges                                     
   LPAW   =        T    paw PP                                                  
   EAUG   =  511.368                                                            
   DEXC   =    0.000                                                            
   RMAX   =    2.356    core radius for proj-oper                               
   RAUG   =    1.300    factor for augmentation sphere                          
   RDEP   =    2.442    radius for radial grids                                 
   RDEPT  =    1.890    core radius for aug-charge                              
                                                                                
   Atomic configuration                                                         
    9 entries                                                                   
     n  l   j            E        occ.                                          
     1  0  0.50     -6993.8440   2.0000                                         
     2  0  0.50      -814.6047   2.0000                                         
     2  1  1.50      -693.3689   6.0000                                         
     3  0  0.50       -89.4732   2.0000                                         
     3  1  1.50       -55.6373   6.0000                                         
     3  2  2.50        -3.8151   7.0000                                         
     4  0  0.50        -4.2551   1.0000                                         
     4  1  1.50        -3.4015   0.0000                                         
     4  3  2.50        -1.3606   0.0000                                         
   Description                                                                  
     l       E           TYP  RCUT    TYP  RCUT                                 
     2     -3.8151135     23  2.300                                             
     2     -5.1756961     23  2.300                                             
     0     -4.2550963     23  2.300                                             
     0      7.2035603     23  2.300                                             
     1     -2.7211652     23  2.300                                             
     1     18.4316424     23  2.300                                             
  local pseudopotential read in
  partial core-charges read in
  partial kinetic energy density read in
  atomic valenz-charges read in
  non local Contribution for L=           2  read in
    real space projection operators read in
  non local Contribution for L=           2  read in
    real space projection operators read in
  non local Contribution for L=           0  read in
    real space projection operators read in
  non local Contribution for L=           0  read in
    real space projection operators read in
  non local Contribution for L=           1  read in
    real space projection operators read in
  non local Contribution for L=           1  read in
    real space projection operators read in
    PAW grid and wavefunctions read in
 
   number of l-projection  operators is LMAX  =           6
   number of lm-projection operators is LMMAX =          18
 
 POTCAR:    PAW_PBE Co 02Aug2007                  
   VRHFIN =Co: d8 s1                                                            
   LEXCH  = PE                                                                  
   EATOM  =   813.3670 eV,   59.7808 Ry                                         
                                                                                
   TITEL  = PAW_PBE Co 02Aug2007                                                
   LULTRA =        F    use ultrasoft PP ?                                      
   IUNSCR =        1    unscreen: 0-lin 1-nonlin 2-no                           
   RPACOR =    2.000    partial core radius                                     
   POMASS =   58.933; ZVAL   =    9.000    mass and valenz                      
   RCORE  =    2.300    outmost cutoff radius                                   
   RWIGS  =    2.460; RWIGS  =    1.302    wigner-seitz radius (au A)           
   ENMAX  =  267.968; ENMIN  =  200.976 eV                                      
   RCLOC  =    1.203    cutoff for local pot                                    
   LCOR   =        T    correct aug charges                                     
   LPAW   =        T    paw PP                                                  
   EAUG   =  477.818                                                            
   DEXC   =    0.000                                                            
   RMAX   =    2.360    core radius for proj-oper                               
   RAUG   =    1.300    factor for augmentation sphere                          
   RDEP   =    2.393    radius for radial grids                                 
   RDEPT  =    1.864    core radius for aug-charge                              
                                                                                
   Atomic configuration                                                         
    9 entries                                                                   
     n  l   j            E        occ.                                          
     1  0  0.50     -7587.6674   2.0000                                         
     2  0  0.50      -893.6084   2.0000                                         
     2  1  1.50      -764.5805   6.0000                                         
     3  0  0.50       -97.5973   2.0000                                         
     3  1  1.50       -60.9648   6.0000                                         
     3  2  2.50        -4.2382   8.0000                                         
     4  0  0.50        -4.3746   1.0000                                         
     4  1  1.50        -4.0817   0.0000                                         
     4  3  2.50        -1.3606   0.0000                                         
   Description                                                                  
     l       E           TYP  RCUT    TYP  RCUT                                 
     2     -4.2382362     23  2.300                                             
     2     -5.5988188     23  2.300                                             
     0     -4.3745797     23  2.300                                             
     0      5.7660125     23  2.300                                             
     1     -2.7211652     23  2.300                                             
     1     16.9860234     23  2.300                                             
  local pseudopotential read in
  partial core-charges read in
  partial kinetic energy density read in
  atomic valenz-charges read in
  non local Contribution for L=           2  read in
    real space projection operators read in
  non local Contribution for L=           2  read in
    real space projection operators read in
  non local Contribution for L=           0  read in
    real space projection operators read in
  non local Contribution for L=           0  read in
    real space projection operators read in
  non local Contribution for L=           1  read in
    real space projection operators read in
  non local Contribution for L=           1  read in
    real space projection operators read in
    PAW grid and wavefunctions read in
 
   number of l-projection  operators is LMAX  =           6
   number of lm-projection operators is LMMAX =          18
 
 POTCAR:    PAW_PBE Cu 22Jun2005                  
   VRHFIN =Cu: d10 p1                                                           
   LEXCH  = PE                                                                  
   EATOM  =  1390.9808 eV,  102.2342 Ry                                         
                                                                                
   TITEL  = PAW_PBE Cu 22Jun2005                                                
   LULTRA =        F    use ultrasoft PP ?                                      
   IUNSCR =        1    unscreen: 0-lin 1-nonlin 2-no                           
   RPACOR =    2.000    partial core radius                                     
   POMASS =   63.546; ZVAL   =   11.000    mass and valenz                      
   RCORE  =    2.300    outmost cutoff radius                                   
   RWIGS  =    2.200; RWIGS  =    1.164    wigner-seitz radius (au A)           
   ENMAX  =  295.446; ENMIN  =  221.585 eV                                      
   ICORE  =        3    local potential                                         
   LCOR   =        T    correct aug charges                                     
   LPAW   =        T    paw PP                                                  
   EAUG   =  586.980                                                            
   DEXC   =    0.000                                                            
   RMAX   =    2.344    core radius for proj-oper                               
   RAUG   =    1.300    factor for augmentation sphere                          
   RDEP   =    2.302    radius for radial grids                                 
   RDEPT  =    1.771    core radius for aug-charge                              
                                                                                
   Atomic configuration                                                         
    9 entries                                                                   
     n  l   j            E        occ.                                          
     1  0  0.50     -8850.2468   2.0000                                         
     2  0  0.50     -1062.3498   2.0000                                         
     2  1  1.50      -916.8226   6.0000                                         
     3  0  0.50      -114.6929   2.0000                                         
     3  1  1.50       -72.1325   6.0000                                         
     3  2  2.50        -5.0394  10.0000                                         
     4  0  0.50        -4.6097   1.0000                                         
     4  1  0.50        -4.0817   0.0000                                         
     4  3  2.50        -1.3606   0.0000                                         
   Description                                                                  
     l       E           TYP  RCUT    TYP  RCUT                                 
     2     -5.0393973     23  2.200                                             
     2     10.8846608     23  2.200                                             
     0     -4.6097109     23  2.200                                             
     0      8.2520465     23  2.200                                             
     1     -2.7211652     23  2.200                                             
     1     21.7055443     23  2.200                                             
     3      2.7211652     23  2.300                                             
  local pseudopotential read in
  partial core-charges read in
  partial kinetic energy density read in
  atomic valenz-charges read in
  non local Contribution for L=           2  read in
    real space projection operators read in
  non local Contribution for L=           2  read in
    real space projection operators read in
  non local Contribution for L=           0  read in
    real space projection operators read in
  non local Contribution for L=           0  read in
    real space projection operators read in
  non local Contribution for L=           1  read in
    real space projection operators read in
  non local Contribution for L=           1  read in
    real space projection operators read in
    PAW grid and wavefunctions read in
 
   number of l-projection  operators is LMAX  =           6
   number of lm-projection operators is LMMAX =          18
 
 POTCAR:    PAW_PBE Ni 02Aug2007                  
   VRHFIN =Ni:                                                                  
   LEXCH  = PE                                                                  
   EATOM  =  1077.6739 eV,   79.2068 Ry                                         
                                                                                
   TITEL  = PAW_PBE Ni 02Aug2007                                                
   LULTRA =        F    use ultrasoft PP ?                                      
   IUNSCR =        1    unscreen: 0-lin 1-nonlin 2-no                           
   RPACOR =    2.000    partial core radius                                     
   POMASS =   58.690; ZVAL   =   10.000    mass and valenz                      
   RCORE  =    2.300    outmost cutoff radius                                   
   RWIGS  =    2.430; RWIGS  =    1.286    wigner-seitz radius (au A)           
   ENMAX  =  269.532; ENMIN  =  202.149 eV                                      
   RCLOC  =    1.201    cutoff for local pot                                    
   LCOR   =        T    correct aug charges                                     
   LPAW   =        T    paw PP                                                  
   EAUG   =  544.565                                                            
   DEXC   =    0.000                                                            
   RMAX   =    2.357    core radius for proj-oper                               
   RAUG   =    1.300    factor for augmentation sphere                          
   RDEP   =    2.390    radius for radial grids                                 
   RDEPT  =    1.838    core radius for aug-charge                              
                                                                                
   Atomic configuration                                                         
    9 entries                                                                   
     n  l   j            E        occ.                                          
     1  0  0.50     -8206.4253   2.0000                                         
     2  0  0.50      -976.1748   2.0000                                         
     2  1  1.50      -839.0571   6.0000                                         
     3  0  0.50      -105.9991   2.0000                                         
     3  1  1.50       -66.4603   6.0000                                         
     3  2  2.50        -4.6458   9.0000                                         
     4  0  0.50        -4.4926   1.0000                                         
     4  1  1.50        -4.0817   0.0000                                         
     4  3  2.50        -1.3606   0.0000                                         
   Description                                                                  
     l       E           TYP  RCUT    TYP  RCUT                                 
     2     -4.6457903     23  2.300                                             
     2     -6.0063729     23  2.300                                             
     0     -4.4925590     23  2.300                                             
     0      5.0102601     23  2.300                                             
     1     -2.7211652     23  2.300                                             
     1     16.5183231     23  2.300                                             
  local pseudopotential read in
  partial core-charges read in
  partial kinetic energy density read in
  atomic valenz-charges read in
  non local Contribution for L=           2  read in
    real space projection operators read in
  non local Contribution for L=           2  read in
    real space projection operators read in
  non local Contribution for L=           0  read in
    real space projection operators read in
  non local Contribution for L=           0  read in
    real space projection operators read in
  non local Contribution for L=           1  read in
    real space projection operators read in
  non local Contribution for L=           1  read in
    real space projection operators read in
    PAW grid and wavefunctions read in
 
   number of l-projection  operators is LMAX  =           6
   number of lm-projection operators is LMMAX =          18
 
 POTCAR:    PAW_PBE H 15Jun2001                   
   VRHFIN =H: ultrasoft test                                                    
   LEXCH  = PE                                                                  
   EATOM  =    12.4884 eV,    0.9179 Ry                                         
                                                                                
   TITEL  = PAW_PBE H 15Jun2001                                                 
   LULTRA =        F    use ultrasoft PP ?                                      
   IUNSCR =        0    unscreen: 0-lin 1-nonlin 2-no                           
   RPACOR =    0.000    partial core radius                                     
   POMASS =    1.000; ZVAL   =    1.000    mass and valenz                      
   RCORE  =    1.100    outmost cutoff radius                                   
   RWIGS  =    0.700; RWIGS  =    0.370    wigner-seitz radius (au A)           
   ENMAX  =  250.000; ENMIN  =  200.000 eV                                      
   RCLOC  =    0.701    cutoff for local pot                                    
   LCOR   =        T    correct aug charges                                     
   LPAW   =        T    paw PP                                                  
   EAUG   =  400.000                                                            
   RMAX   =    1.123    core radius for proj-oper                               
   RAUG   =    1.200    factor for augmentation sphere                          
   RDEP   =    1.112    radius for radial grids                                 
   RDEPT  =    0.926    core radius for aug-charge                              
                                                                                
   Atomic configuration                                                         
    2 entries                                                                   
     n  l   j            E        occ.                                          
     1  0  0.50        -6.4927   1.0000                                         
     2  1  0.50        -3.4015   0.0000                                         
   Description                                                                  
     l       E           TYP  RCUT    TYP  RCUT                                 
     0     -6.4927494     23  1.100                                             
     0      6.8029130     23  1.100                                             
     1     -4.0817478     23  1.100                                             
  local pseudopotential read in
  atomic valenz-charges read in
  non local Contribution for L=           0  read in
    real space projection operators read in
  non local Contribution for L=           0  read in
    real space projection operators read in
  non local Contribution for L=           1  read in
    real space projection operators read in
    PAW grid and wavefunctions read in
 
   number of l-projection  operators is LMAX  =           3
   number of lm-projection operators is LMMAX =           5
 
 Optimization of the real space projectors (new method)

 maximal supplied QI-value         = 14.36
 optimisation between [QCUT,QGAM] = [ 11.92, 23.98] = [ 39.79,161.09] Ry 
 Optimized for a Real-space Cutoff    1.49 Angstroem

   l    n(q)    QCUT    max X(q) W(low)/X(q) W(high)/X(q)  e(spline) 
   2     10    11.920    66.195    0.79E-04    0.18E-03    0.24E-06
   2     10    11.920    64.643    0.81E-04    0.19E-03    0.24E-06
   0     11    11.920    95.520    0.28E-04    0.54E-04    0.18E-06
   0     11    11.920    63.403    0.27E-04    0.52E-04    0.17E-06
   1     10    11.920    19.961    0.18E-04    0.11E-03    0.23E-06
   1     10    11.920    13.289    0.25E-04    0.87E-04    0.19E-06
 Optimization of the real space projectors (new method)

 maximal supplied QI-value         = 16.25
 optimisation between [QCUT,QGAM] = [ 11.86, 23.89] = [ 39.41,159.82] Ry 
 Optimized for a Real-space Cutoff    1.49 Angstroem

   l    n(q)    QCUT    max X(q) W(low)/X(q) W(high)/X(q)  e(spline) 
   2     10    11.864    80.901    0.13E-03    0.23E-03    0.37E-06
   2     10    11.864    75.754    0.13E-03    0.23E-03    0.38E-06
   0     11    11.864    58.752    0.44E-04    0.11E-04    0.20E-06
   0     11    11.864    30.679    0.36E-04    0.10E-04    0.18E-06
   1     10    11.864    17.977    0.31E-04    0.45E-04    0.10E-06
   1     10    11.864    13.559    0.25E-04    0.37E-04    0.89E-07
 Optimization of the real space projectors (new method)

 maximal supplied QI-value         = 16.25
 optimisation between [QCUT,QGAM] = [ 11.86, 23.89] = [ 39.41,159.82] Ry 
 Optimized for a Real-space Cutoff    1.33 Angstroem

   l    n(q)    QCUT    max X(q) W(low)/X(q) W(high)/X(q)  e(spline) 
   2      9    11.864    65.824    0.22E-03    0.53E-03    0.26E-06
   2      9    11.864    61.429    0.22E-03    0.53E-03    0.26E-06
   0      9    11.864    56.174    0.21E-03    0.32E-04    0.15E-06
   0      9    11.864    31.263    0.19E-03    0.30E-04    0.14E-06
   1      9    11.864    19.828    0.63E-04    0.30E-03    0.16E-06
   1      9    11.864    15.139    0.49E-04    0.25E-03    0.13E-06
 Optimization of the real space projectors (new method)

 maximal supplied QI-value         = 16.25
 optimisation between [QCUT,QGAM] = [ 11.86, 23.89] = [ 39.41,159.82] Ry 
 Optimized for a Real-space Cutoff    1.49 Angstroem

   l    n(q)    QCUT    max X(q) W(low)/X(q) W(high)/X(q)  e(spline) 
   2     10    11.864     4.610    0.10E-03    0.20E-03    0.29E-06
   2     10    11.864     8.522    0.17E-03    0.33E-03    0.50E-06
   0     11    11.864    51.609    0.52E-04    0.55E-04    0.33E-06
   0     11    11.864    27.747    0.46E-04    0.52E-04    0.31E-06
   1     10    11.864    20.408    0.54E-04    0.25E-04    0.21E-06
   1     10    11.864    13.425    0.48E-04    0.22E-04    0.18E-06
 Optimization of the real space projectors (new method)

 maximal supplied QI-value         = 16.25
 optimisation between [QCUT,QGAM] = [ 11.86, 23.89] = [ 39.41,159.82] Ry 
 Optimized for a Real-space Cutoff    1.33 Angstroem

   l    n(q)    QCUT    max X(q) W(low)/X(q) W(high)/X(q)  e(spline) 
   2      9    11.864    60.317    0.21E-03    0.51E-03    0.25E-06
   2      9    11.864    55.921    0.21E-03    0.51E-03    0.26E-06
   0      9    11.864    51.690    0.22E-03    0.30E-04    0.17E-06
   0      9    11.864    30.015    0.20E-03    0.28E-04    0.15E-06
   1      9    11.864    18.849    0.76E-04    0.33E-03    0.17E-06
   1      9    11.864    14.624    0.60E-04    0.28E-03    0.15E-06
 Optimization of the real space projectors (new method)

 maximal supplied QI-value         = 34.20
 optimisation between [QCUT,QGAM] = [ 11.97, 23.94] = [ 40.13,160.53] Ry 
 Optimized for a Real-space Cutoff    1.18 Angstroem

   l    n(q)    QCUT    max X(q) W(low)/X(q) W(high)/X(q)  e(spline) 
   0      8    11.971    19.460    0.15E-03    0.31E-03    0.25E-06
   0      8    11.971    12.209    0.13E-03    0.29E-03    0.25E-06
   1      8    11.971     4.655    0.22E-03    0.24E-03    0.21E-06
  PAW_PBE Pt 04Feb2005                  :
 energy of atom  1       EATOM= -729.1176
 kinetic energy error for atom=    0.0021 (will be added to EATOM!!)
  PAW_PBE Fe 06Sep2000                  :
 energy of atom  2       EATOM= -594.3153
 kinetic energy error for atom=    0.0024 (will be added to EATOM!!)
  PAW_PBE Co 02Aug2007                  :
 energy of atom  3       EATOM= -813.3670
 kinetic energy error for atom=    0.0026 (will be added to EATOM!!)
  PAW_PBE Cu 22Jun2005                  :
 energy of atom  4       EATOM=-1390.9808
 kinetic energy error for atom=    0.0036 (will be added to EATOM!!)
  PAW_PBE Ni 02Aug2007                  :
 energy of atom  5       EATOM=-1077.6739
 kinetic energy error for atom=    0.0027 (will be added to EATOM!!)
  PAW_PBE H 15Jun2001                   :
 energy of atom  6       EATOM=  -12.4884
 kinetic energy error for atom=    0.0008 (will be added to EATOM!!)
 
 
 POSCAR: 10.76                                   
  positions in direct lattice
  velocities in cartesian coordinates
 exchange correlation table for  LEXCH =        8
   RHO(1)=    0.500       N(1)  =     2000
   RHO(2)=  100.500       N(2)  =     4000
 


--------------------------------------------------------------------------------------------------------


 ion  position               nearest neighbor table
   1  0.786  0.880  0.316-  49 2.61  28 2.63  59 2.64  19 2.68  61 2.70  33 2.71  29 2.72  60 2.72
                            11 2.75   2 2.77   4 2.82  12 2.84
   2  0.042  0.882  0.314-  79 2.55  77 2.60  60 2.67  28 2.67  30 2.68  52 2.71  33 2.71  22 2.73
                             1 2.77   6 2.79   4 2.86  16 2.93
   3  0.279  0.381  0.318-  64 2.56  39 2.61  31 2.64  33 2.64  68 2.70  19 2.75  43 2.76  30 2.76
                             5 2.76  13 2.79  25 2.83  18 2.87
   4  0.871  0.964  0.422-  17 2.65  11 2.67   9 2.70  12 2.73   6 2.74  16 2.76  60 2.80   1 2.82
                             2 2.86
   5  0.120  0.463  0.424-  81 1.62  16 2.65  12 2.66   7 2.66  10 2.67  39 2.70  33 2.71  25 2.72
                            13 2.74   3 2.76
   6  0.125  0.964  0.420-   8 2.65  10 2.68   9 2.71  14 2.72   4 2.74  16 2.76  52 2.78   2 2.79
                            22 2.85
   7  0.874  0.459  0.423-   9 2.66  15 2.66   5 2.66  39 2.67  10 2.68  12 2.68  27 2.72  75 2.72
                            29 2.77
   8  0.374  0.960  0.418-  43 2.59   6 2.65  14 2.66  52 2.67  27 2.67  13 2.68  10 2.69  11 2.70
                            61 2.70
   9  0.872  0.214  0.417-  75 2.65   7 2.66  15 2.66  17 2.68   4 2.70  60 2.70   6 2.71  10 2.72
                            22 2.80
  10  0.125  0.212  0.419-  13 2.66  39 2.66   5 2.67   6 2.68   7 2.68   8 2.69  43 2.71   9 2.72
                            22 2.76
  11  0.624  0.960  0.420-   4 2.67  12 2.68  13 2.68  27 2.69  17 2.69   8 2.70   1 2.75  61 2.80
                            19 2.81
  12  0.872  0.710  0.423-   5 2.66  27 2.68  11 2.68   7 2.68  33 2.69  16 2.72   4 2.73  29 2.76
                             1 2.84
  13  0.374  0.209  0.421-  10 2.66   8 2.68  11 2.68  17 2.70  25 2.71   5 2.74  43 2.74   3 2.79
                            19 2.80
  14  0.378  0.711  0.420-  27 2.63  44 2.66   8 2.66  15 2.67  25 2.71   6 2.72  52 2.72  16 2.73
                            30 2.75
  15  0.626  0.462  0.420-   9 2.66   7 2.66  44 2.67  27 2.67  14 2.67  75 2.70  17 2.71  25 2.71
                            18 2.75
  16  0.126  0.707  0.425-  81 1.60   5 2.65  25 2.66  33 2.70  12 2.72  14 2.73   6 2.76   4 2.76
                            30 2.82   2 2.93
  17  0.624  0.211  0.419-   4 2.65   9 2.68  25 2.69  11 2.69  13 2.70  15 2.71  18 2.74  60 2.76
                            19 2.84
  18  0.548  0.376  0.316-  67 2.56  68 2.64  60 2.65  26 2.66  75 2.67  44 2.69  17 2.74  15 2.75
                            30 2.76  19 2.78  25 2.85   3 2.87
  19  0.534  0.125  0.314-  80 2.55  68 2.57  59 2.60  43 2.60   1 2.68  61 2.69   3 2.75  18 2.78
                            13 2.80  11 2.81  60 2.81  17 2.84
  20  0.548  0.123  0.044-  57 2.55  37 2.55  48 2.57  62 2.68  63 2.73  47 2.75  34 2.75  45 2.76
                            56 2.76
  21  0.119  0.460  0.129-  40 2.52  36 2.52  47 2.52  42 2.60  64 2.63  69 2.65  70 2.68  50 2.68
                            31 2.71  58 2.75  57 2.76  74 2.79
  22  0.044  0.136  0.313-  65 2.53  55 2.54  77 2.57  43 2.62  39 2.63  75 2.68   2 2.73  60 2.74
                            10 2.76  52 2.77   9 2.80   6 2.85  31 3.40
  23  0.041  0.131  0.035-  70 2.57  41 2.60  40 2.62  45 2.66  76 2.67  62 2.67  24 2.69  35 2.79
                            53 2.85
  24  0.131  0.958  0.133-  79 2.51  77 2.55  35 2.56  53 2.58  55 2.59  70 2.66  38 2.68  58 2.69
                            23 2.69  73 2.69  66 2.75  41 2.78
  25  0.374  0.461  0.422-  16 2.66  17 2.69  15 2.71  13 2.71  14 2.71   5 2.72  30 2.81   3 2.83
                            18 2.85
  26  0.455  0.547  0.219-  73 2.50  74 2.54  51 2.56  79 2.64  30 2.65  18 2.66  64 2.69  78 2.70
                            32 2.71  68 2.72  44 2.73  67 2.78
  27  0.622  0.712  0.421-  14 2.63  15 2.67   8 2.67  12 2.68  44 2.68  11 2.69   7 2.72  61 2.74
                            29 2.78
  28  0.956  0.787  0.221-  58 2.56  66 2.58  50 2.58  42 2.62   1 2.63  49 2.64   2 2.67  64 2.68
                            33 2.69  59 2.77  79 2.86  77 2.87
  29  0.795  0.623  0.318-  42 2.55  39 2.58  32 2.62  75 2.62  49 2.67  33 2.69  44 2.71   1 2.72
                            61 2.72  12 2.76   7 2.77  27 2.78
  30  0.290  0.632  0.317-  79 2.56  64 2.60  52 2.65  26 2.65   2 2.68  44 2.69  33 2.69  14 2.75
                             3 2.76  18 2.76  25 2.81  16 2.82
  31  0.201  0.279  0.225-  70 2.51  43 2.58  55 2.59  57 2.59  65 2.60   3 2.64  39 2.65  21 2.71
                            80 2.75  42 2.76  68 2.84  64 2.87  22 3.40
  32  0.705  0.551  0.221-  54 2.54  69 2.56  51 2.58  49 2.61  29 2.62  78 2.65  42 2.65  65 2.67
                            44 2.68  75 2.69  26 2.71  67 2.74
  33  0.040  0.632  0.323-   3 2.64  30 2.69  29 2.69  28 2.69  64 2.69  12 2.69  39 2.69  16 2.70
                             1 2.71   5 2.71   2 2.71  42 2.72
  34  0.795  0.861  0.046-  50 2.37  48 2.50  66 2.51  36 2.59  71 2.61  63 2.64  20 2.75  62 2.83
                            35 2.84
  35  0.058  0.864  0.041-  58 2.53  24 2.56  36 2.57  72 2.57  66 2.62  53 2.71  23 2.79  62 2.80
                            34 2.84
  36  0.046  0.632  0.040-  21 2.52  35 2.57  58 2.57  34 2.59  50 2.60  72 2.69  47 2.69  71 2.80
                            40 2.81
  37  0.628  0.225  0.130-  67 2.51  51 2.51  56 2.52  74 2.55  20 2.55  68 2.56  59 2.56  41 2.58
                            62 2.59  66 2.72  57 2.81  48 3.01
  38  0.383  0.954  0.131-  53 2.46  80 2.47  45 2.47  78 2.53  63 2.55  73 2.57  55 2.57  48 2.58
                            54 2.59  24 2.68  57 2.68  70 2.73
  39  0.035  0.384  0.323-  29 2.58   3 2.61  75 2.63  22 2.63  42 2.64  31 2.65  10 2.66   7 2.67
                            33 2.69   5 2.70  65 2.73  43 2.85
  40  0.026  0.381  0.040-  69 2.42  21 2.52  76 2.55  71 2.56  70 2.56  23 2.62  36 2.81  45 2.87
                            47 2.92
  41  0.872  0.215  0.130-  76 2.45  77 2.51  65 2.52  67 2.53  62 2.57  37 2.58  23 2.60  69 2.61
                            51 2.63  66 2.70  70 2.70  24 2.78
  42  0.955  0.544  0.224-  50 2.54  29 2.55  21 2.60  69 2.60  28 2.62  39 2.64  32 2.65  65 2.67
                            49 2.67  64 2.71  33 2.72  31 2.76
  43  0.297  0.116  0.320-  55 2.52  31 2.58   8 2.59  52 2.60  19 2.60  61 2.61  22 2.62  80 2.63
                            10 2.71  13 2.74   3 2.76  39 2.85
  44  0.541  0.629  0.321-  61 2.62  78 2.62  52 2.63  14 2.66  15 2.67  32 2.68  27 2.68  18 2.69
                            30 2.69  75 2.69  29 2.71  26 2.73
  45  0.295  0.116  0.043-  70 2.47  38 2.47  57 2.57  53 2.60  23 2.66  63 2.67  20 2.76  40 2.87
                            47 2.87
  46  0.550  0.625  0.046-  51 2.38  73 2.40  54 2.40  71 2.58  53 2.61  63 2.63  76 2.64  56 2.66
                            72 2.70
  47  0.297  0.382  0.042-  74 2.38  21 2.52  57 2.61  72 2.64  56 2.64  36 2.69  20 2.75  45 2.87
                            40 2.92
  48  0.625  0.947  0.134-  49 2.39  80 2.48  54 2.49  34 2.50  63 2.55  59 2.56  20 2.57  38 2.58
                            50 2.61  57 2.72  66 2.76  37 3.01
  49  0.707  0.793  0.220-  48 2.39  50 2.47  54 2.49  80 2.59   1 2.61  32 2.61  61 2.64  28 2.64
                            78 2.66  42 2.67  29 2.67  59 2.77
  50  0.864  0.703  0.130-  34 2.37  71 2.41  49 2.47  54 2.50  42 2.54  28 2.58  69 2.59  36 2.60
                            48 2.61  21 2.68  66 2.86
  51  0.627  0.459  0.128-  46 2.38  76 2.45  56 2.51  37 2.51  26 2.56  32 2.58  67 2.63  41 2.63
                            69 2.65  73 2.66  74 2.67  54 2.76
  52  0.298  0.874  0.318-  55 2.43  79 2.52  78 2.52  61 2.59  43 2.60  44 2.63  30 2.65   8 2.67
                             2 2.71  14 2.72  22 2.77   6 2.78
  53  0.307  0.869  0.043-  73 2.41  38 2.46  24 2.58  63 2.58  45 2.60  46 2.61  72 2.65  35 2.71
                            23 2.85
  54  0.626  0.716  0.129-  46 2.40  71 2.46  63 2.48  49 2.49  48 2.49  50 2.50  32 2.54  38 2.59
                            73 2.60  78 2.62  69 2.73  51 2.76
  55  0.226  0.027  0.228-  52 2.43  78 2.49  43 2.52  79 2.52  22 2.54  80 2.55  38 2.57  24 2.59
                            31 2.59  70 2.73  77 2.78  65 2.95
  56  0.542  0.382  0.037-  74 2.50  51 2.51  37 2.52  72 2.64  47 2.64  76 2.65  46 2.66  20 2.76
                            62 2.76
  57  0.377  0.206  0.134-  68 2.47  20 2.55  80 2.55  45 2.57  31 2.59  47 2.61  70 2.68  74 2.68
                            38 2.68  48 2.72  21 2.76  37 2.81
  58  0.139  0.705  0.134-  72 2.45  64 2.50  35 2.53  79 2.56  28 2.56  36 2.57  74 2.67  24 2.69
                            73 2.71  21 2.75
  59  0.704  0.051  0.220-  66 2.52  37 2.56  48 2.56  19 2.60  60 2.61  68 2.63   1 2.64  67 2.65
                            77 2.72  80 2.74  49 2.77  28 2.77
  60  0.793  0.129  0.316-  67 2.52  77 2.57  59 2.61  18 2.65   2 2.67   9 2.70  75 2.71   1 2.72
                            22 2.74  17 2.76   4 2.80  19 2.81
  61  0.539  0.873  0.317-  78 2.48  80 2.52  52 2.59  43 2.61  44 2.62  49 2.64  19 2.69   1 2.70
                             8 2.70  29 2.72  27 2.74  11 2.80
  62  0.796  0.123  0.038-  66 2.52  41 2.57  37 2.59  23 2.67  20 2.68  76 2.70  56 2.76  35 2.80
                            34 2.83
  63  0.545  0.871  0.038-  54 2.48  38 2.55  48 2.55  53 2.58  46 2.63  34 2.64  45 2.67  71 2.67
                            20 2.73
  64  0.208  0.542  0.224-  58 2.50   3 2.56  30 2.60  21 2.63  74 2.66  28 2.68  68 2.68  26 2.69
                            33 2.69  42 2.71  79 2.79  31 2.87
  65  0.950  0.299  0.222-  69 2.51  41 2.52  22 2.53  67 2.56  31 2.60  77 2.60  75 2.61  70 2.62
                            42 2.67  32 2.67  39 2.73  55 2.95
  66  0.872  0.965  0.131-  34 2.51  59 2.52  62 2.52  77 2.57  28 2.58  35 2.62  41 2.70  37 2.72
                            24 2.75  48 2.76  50 2.86
  67  0.716  0.291  0.224-  37 2.51  60 2.52  41 2.53  18 2.56  77 2.56  65 2.56  75 2.62  51 2.63
                            59 2.65  32 2.74  68 2.77  26 2.78
  68  0.457  0.293  0.221-  57 2.47  74 2.52  37 2.56  19 2.57  59 2.63  18 2.64  64 2.68   3 2.70
                            26 2.72  67 2.77  80 2.82  31 2.84
  69  0.875  0.457  0.129-  40 2.42  71 2.45  76 2.46  65 2.51  32 2.56  50 2.59  42 2.60  41 2.61
                            21 2.65  51 2.65  70 2.71  54 2.73
  70  0.127  0.207  0.130-  45 2.47  31 2.51  40 2.56  23 2.57  65 2.62  24 2.66  21 2.68  57 2.68
                            41 2.70  69 2.71  38 2.73  55 2.73
  71  0.791  0.621  0.042-  50 2.41  69 2.45  54 2.46  40 2.56  46 2.58  34 2.61  76 2.63  63 2.67
                            36 2.80
  72  0.298  0.627  0.045-  74 2.45  58 2.45  73 2.48  35 2.57  47 2.64  56 2.64  53 2.65  36 2.69
                            46 2.70
  73  0.386  0.713  0.130-  46 2.40  53 2.41  72 2.48  26 2.50  78 2.55  38 2.57  54 2.60  79 2.62
                            51 2.66  24 2.69  58 2.71  74 2.83
  74  0.382  0.452  0.128-  47 2.38  72 2.45  56 2.50  68 2.52  26 2.54  37 2.55  64 2.66  51 2.67
                            58 2.67  57 2.68  21 2.79  73 2.83
  75  0.793  0.381  0.320-  65 2.61  67 2.62  29 2.62  39 2.63   9 2.65  18 2.67  22 2.68  32 2.69
                            44 2.69  15 2.70  60 2.71   7 2.72
  76  0.791  0.377  0.042-  51 2.45  41 2.45  69 2.46  40 2.55  71 2.63  46 2.64  56 2.65  23 2.67
                            62 2.70
  77  0.955  0.054  0.222-  41 2.51  24 2.55  67 2.56  22 2.57  60 2.57  66 2.57   2 2.60  65 2.60
                            59 2.72  79 2.78  55 2.78  28 2.87
  78  0.459  0.796  0.225-  61 2.48  55 2.49  80 2.52  52 2.52  38 2.53  73 2.55  79 2.61  44 2.62
                            54 2.62  32 2.65  49 2.66  26 2.70
  79  0.216  0.798  0.225-  24 2.51  52 2.52  55 2.52   2 2.55  58 2.56  30 2.56  78 2.61  73 2.62
                            26 2.64  77 2.78  64 2.79  28 2.86
  80  0.462  0.029  0.223-  38 2.47  48 2.48  78 2.52  61 2.52  55 2.55  19 2.55  57 2.55  49 2.59
                            43 2.63  59 2.74  31 2.75  68 2.82
  81  0.124  0.585  0.466-  16 1.60   5 1.62
 
  LATTYP: Found a hexagonal cell.
 ALAT       =    10.7600002289
 C/A-ratio  =     2.0446096219
  
  Lattice vectors:
  
 A1 = (   5.3800001145,  -9.3184335429,   0.0000000000)
 A2 = ( -10.7600002289,   0.0000000000,   0.0000000000)
 A3 = (   0.0000000000,   0.0000000000, -22.0000000000)


Analysis of symmetry for initial positions (statically):
=====================================================================
 Subroutine PRICEL returns:
 Original cell was already a primitive cell.
 

 Routine SETGRP: Setting up the symmetry group for a 
 hexagonal supercell.


 Subroutine GETGRP returns: Found  1 space group operations
 (whereof  1 operations were pure point group operations)
 out of a pool of 24 trial point group operations.


The static configuration has the point symmetry C_1 .


Analysis of symmetry for dynamics (positions and initial velocities):
=====================================================================
 Subroutine PRICEL returns:
 Original cell was already a primitive cell.
 

 Routine SETGRP: Setting up the symmetry group for a 
 hexagonal supercell.


 Subroutine GETGRP returns: Found  1 space group operations
 (whereof  1 operations were pure point group operations)
 out of a pool of 24 trial point group operations.


The dynamic configuration has the point symmetry C_1 .


Analysis of constrained symmetry for selective dynamics:
=====================================================================
 Subroutine PRICEL returns:
 Original cell was already a primitive cell.
 

 Routine SETGRP: Setting up the symmetry group for a 
 hexagonal supercell.


 Subroutine GETGRP returns: Found  1 space group operations
 (whereof  1 operations were pure point group operations)
 out of a pool of 24 trial point group operations.


The constrained configuration has the point symmetry C_1 .


Analysis of structural, dynamic, and magnetic symmetry:
=====================================================================
 Subroutine PRICEL returns:
 Original cell was already a primitive cell.
 

 Routine SETGRP: Setting up the symmetry group for a 
 hexagonal supercell.


 Subroutine GETGRP returns: Found  1 space group operations
 (whereof  1 operations were pure point group operations)
 out of a pool of 24 trial point group operations.


The magnetic configuration has the point symmetry C_1 .


 Subroutine INISYM returns: Found  1 space group operations
 (whereof  1 operations are pure point group operations),
 and found     1 'primitive' translations

 
 
 KPOINTS: mesh auto                               

Automatic generation of k-mesh.
Space group operators:
 irot       det(A)        alpha          n_x          n_y          n_z        tau_x        tau_y        tau_z
    1     1.000000     0.000001     1.000000     0.000000     0.000000     0.000000     0.000000     0.000000
 
 Subroutine IBZKPT returns following result:
 ===========================================
 
 Found      4 irreducible k-points:
 
 Following reciprocal coordinates:
            Coordinates               Weight
  0.000000  0.000000  0.000000      1.000000
  0.500000  0.000000  0.000000      1.000000
  0.000000  0.500000  0.000000      1.000000
  0.500000  0.500000  0.000000      1.000000
 
 Following cartesian coordinates:
            Coordinates               Weight
  0.000000  0.000000  0.000000      1.000000
  0.046468 -0.026829  0.000000      1.000000
  0.000000  0.053657  0.000000      1.000000
  0.046468  0.026829  0.000000      1.000000
 


--------------------------------------------------------------------------------------------------------




 Dimension of arrays:
   k-points           NKPTS =      4   k-points in BZ     NKDIM =      4   number of bands    NBANDS=    588
   number of dos      NEDOS =    301   number of ions     NIONS =     81
   non local maximal  LDIM  =      6   non local SUM 2l+1 LMDIM =     18
   total plane-waves  NPLWV = ******
   max r-space proj   IRMAX =   7517   max aug-charges    IRDMAX=  32744
   dimension x,y,z NGX =    84 NGY =   84 NGZ =  168
   dimension x,y,z NGXF=   168 NGYF=  168 NGZF=  336
   support grid    NGXF=   168 NGYF=  168 NGZF=  336
   ions per type =              32  13  10  13  12   1
   NGX,Y,Z   is equivalent  to a cutoff of  12.98, 12.98, 12.70 a.u.
   NGXF,Y,Z  is equivalent  to a cutoff of  25.96, 25.96, 25.39 a.u.

 SYSTEM =  Pt111                                   
 POSCAR =  10.76                                   

 Startparameter for this run:
   NWRITE =      2    write-flag & timer
   PREC   = accura    normal or accurate (medium, high low for compatibility)
   ISTART =      0    job   : 0-new  1-cont  2-samecut
   ICHARG =      2    charge: 1-file 2-atom 10-const
   ISPIN  =      2    spin polarized calculation?
   LNONCOLLINEAR =      F non collinear calculations
   LSORBIT =      F    spin-orbit coupling
   INIWAV =      1    electr: 0-lowe 1-rand  2-diag
   LASPH  =      F    aspherical Exc in radial PAW
   METAGGA=      F    non-selfconsistent MetaGGA calc.

 Electronic Relaxation 1
   ENCUT  =  550.0 eV  40.42 Ry    6.36 a.u.  20.58 20.58 42.07*2*pi/ulx,y,z
   ENINI  =  550.0     initial cutoff
   ENAUG  =  587.0 eV  augmentation charge cutoff
   NELM   =    200;   NELMIN=  2; NELMDL= -5     # of ELM steps 
   EDIFF  = 0.1E-04   stopping-criterion for ELM
   LREAL  =      T    real-space projection
   NLSPLINE    = F    spline interpolate recip. space projectors
   LCOMPAT=      F    compatible to vasp.4.4
   GGA_COMPAT  = T    GGA compatible to vasp.4.4-vasp.4.6
   LMAXPAW     = -100 max onsite density
   LMAXMIX     =    2 max onsite mixed and CHGCAR
   VOSKOWN=      0    Vosko Wilk Nusair interpolation
   ROPT   =   -0.00025  -0.00025  -0.00025  -0.00025
   ROPT   =   -0.00025  -0.00025
 Ionic relaxation
   EDIFFG = -.5E-01   stopping-criterion for IOM
   NSW    =    300    number of steps for IOM
   NBLOCK =      1;   KBLOCK =    300    inner block; outer block 
   IBRION =      2    ionic relax: 0-MD 1-quasi-New 2-CG
   NFREE  =      1    steps in history (QN), initial steepest desc. (CG)
   ISIF   =      2    stress and relaxation
   IWAVPR =     11    prediction:  0-non 1-charg 2-wave 3-comb
   ISYM   =      2    0-nonsym 1-usesym 2-fastsym
   LCORR  =      T    Harris-Foulkes like correction to forces

   POTIM  = 0.5000    time-step for ionic-motion
   TEIN   =    0.0    initial temperature
   TEBEG  =    0.0;   TEEND  =   0.0 temperature during run
   SMASS  =  -3.00    Nose mass-parameter (am)
   estimated Nose-frequenzy (Omega)   =  0.10E-29 period in steps =****** mass=  -0.265E-26a.u.
   SCALEE = 1.0000    scale energy and forces
   NPACO  =    256;   APACO  = 16.0  distance and # of slots for P.C.
   PSTRESS=    0.0 pullay stress

  Mass of Ions in am
   POMASS = 195.08 55.85 58.93 63.55 58.69  1.00
  Ionic Valenz
   ZVAL   =  10.00  8.00  9.00 11.00 10.00  1.00
  Atomic Wigner-Seitz radii
   RWIGS  =  -1.00 -1.00 -1.00 -1.00 -1.00 -1.00
  virtual crystal weights 
   VCA    =   1.00  1.00  1.00  1.00  1.00  1.00
   NELECT =     778.0000    total number of electrons
   NUPDOWN=      -1.0000    fix difference up-down

 DOS related values:
   EMIN   =  10.00;   EMAX   =-10.00  energy-range for DOS
   EFERMI =   0.00
   ISMEAR =     1;   SIGMA  =   0.10  broadening in eV -4-tet -1-fermi 0-gaus

 Electronic relaxation 2 (details)
   IALGO  =     68    algorithm
   LDIAG  =      T    sub-space diagonalisation (order eigenvalues)
   LSUBROT=      F    optimize rotation matrix (better conditioning)
   TURBO    =      0    0=normal 1=particle mesh
   IRESTART =      0    0=no restart 2=restart with 2 vectors
   NREBOOT  =      0    no. of reboots
   NMIN     =      0    reboot dimension
   EREF     =   0.00    reference energy to select bands
   IMIX   =      4    mixing-type and parameters
     AMIX     =   0.40;   BMIX     =  1.00
     AMIX_MAG =   1.60;   BMIX_MAG =  1.00
     AMIN     =   0.10
     WC   =   100.;   INIMIX=   1;  MIXPRE=   1;  MAXMIX= -45

 Intra band minimization:
   WEIMIN = 0.0010     energy-eigenvalue tresh-hold
   EBREAK =  0.43E-08  absolut break condition
   DEPER  =   0.30     relativ break condition  

   TIME   =   0.40     timestep for ELM

  volume/ion in A,a.u.               =      27.23       183.78
  Fermi-wavevector in a.u.,A,eV,Ry     =   1.156668  2.185786 18.202976  1.337881
  Thomas-Fermi vector in A             =   2.293286
 
 Write flags
   LWAVE        =      F    write WAVECAR
   LDOWNSAMPLE  =      F    k-point downsampling of WAVECAR
   LCHARG       =      F    write CHGCAR
   LVTOT        =      F    write LOCPOT, total local potential
   LVHAR        =      F    write LOCPOT, Hartree potential only
   LELF         =      F    write electronic localiz. function (ELF)
   LORBIT       =      0    0 simple, 1 ext, 2 COOP (PROOUT), +10 PAW based schemes


 Dipole corrections
   LMONO  =      F    monopole corrections only (constant potential shift)
   LDIPOL =      F    correct potential (dipole corrections)
   IDIPOL =      0    1-x, 2-y, 3-z, 4-all directions 
   EPSILON=  1.0000000 bulk dielectric constant

 Exchange correlation treatment:
   GGA     =    --    GGA type
   LEXCH   =     8    internal setting for exchange type
   VOSKOWN=      0    Vosko Wilk Nusair interpolation
   LHFCALC =     F    Hartree Fock is set to
   LHFONE  =     F    Hartree Fock one center treatment
   AEXX    =    0.0000 exact exchange contribution

 Linear response parameters
   LEPSILON=     F    determine dielectric tensor
   LRPA    =     F    only Hartree local field effects (RPA)
   LNABLA  =     F    use nabla operator in PAW spheres
   LVEL    =     F    velocity operator in full k-point grid
   LINTERFAST=   F  fast interpolation
   KINTER  =     0    interpolate to denser k-point grid
   CSHIFT  =0.1000    complex shift for real part using Kramers Kronig
   OMEGAMAX=  -1.0    maximum frequency
   DEG_THRESHOLD= 0.2000000E-02 threshold for treating states as degnerate
   RTIME   =   -0.100 relaxation time in fs
  (WPLASMAI=    0.000 imaginary part of plasma frequency in eV, 0.658/RTIME)
   DFIELD  = 0.0000000 0.0000000 0.0000000 field for delta impulse in time
 
 Orbital magnetization related:
   ORBITALMAG=     F  switch on orbital magnetization
   LCHIMAG   =     F  perturbation theory with respect to B field
   DQ        =  0.001000  dq finite difference perturbation B field
   LLRAUG    =     F  two centre corrections for induced B field



--------------------------------------------------------------------------------------------------------


 conjugate gradient relaxation of ions
   using selective dynamics as specified on POSCAR
 charge density and potential will be updated during run
 spin polarized calculation
 RMM-DIIS sequential band-by-band and
  variant of blocked Davidson during initial phase
 perform sub-space diagonalisation
    before iterative eigenvector-optimisation
 modified Broyden-mixing scheme, WC =      100.0
 initial mixing is a Kerker type mixing with AMIX =  0.4000 and BMIX =      1.0000
 Hartree-type preconditioning will be used
 using additional bands          199
 real space projection scheme for non local part
 use partial core corrections
 calculate Harris-corrections to forces 
   (improved forces if not selfconsistent)
 use gradient corrections 
 use of overlap-Matrix (Vanderbilt PP)
 Methfessel and Paxton  Order N= 1 SIGMA  =   0.10


--------------------------------------------------------------------------------------------------------


  energy-cutoff  :      550.00
  volume of cell :     2205.86
      direct lattice vectors                 reciprocal lattice vectors
    10.760000229  0.000000000  0.000000000     0.092936801 -0.053657087  0.000000000
     5.380000114  9.318433543  0.000000000     0.000000000  0.107314174  0.000000000
     0.000000000  0.000000000 22.000000000     0.000000000  0.000000000  0.045454545

  length of vectors
    10.760000229 10.760000229 22.000000000     0.107314174  0.107314174  0.045454545


 
 k-points in units of 2pi/SCALE and weight: mesh auto                               
   0.00000000  0.00000000  0.00000000       0.250
   0.04646840 -0.02682854  0.00000000       0.250
   0.00000000  0.05365709  0.00000000       0.250
   0.04646840  0.02682854  0.00000000       0.250
 
 k-points in reciprocal lattice and weights: mesh auto                               
   0.00000000  0.00000000  0.00000000       0.250
   0.50000000  0.00000000  0.00000000       0.250
   0.00000000  0.50000000  0.00000000       0.250
   0.50000000  0.50000000  0.00000000       0.250
 
 position of ions in fractional coordinates (direct lattice) 
   0.78630364  0.87985516  0.31579062
   0.04224145  0.88241600  0.31447087
   0.27901334  0.38063736  0.31781889
   0.87059820  0.96425044  0.42229538
   0.11985466  0.46347373  0.42381962
   0.12534141  0.96365774  0.42039088
   0.87435511  0.45921883  0.42339424
   0.37365696  0.96026939  0.41753756
   0.87155940  0.21408433  0.41720951
   0.12547606  0.21244857  0.41934278
   0.62422563  0.96044136  0.42042077
   0.87200071  0.70988016  0.42286043
   0.37417258  0.20904536  0.42138655
   0.37802308  0.71127443  0.42019954
   0.62568644  0.46188242  0.41983128
   0.12633321  0.70689834  0.42512744
   0.62399740  0.21084321  0.41900992
   0.54776837  0.37585151  0.31592551
   0.53367310  0.12508775  0.31375184
   0.54792673  0.12328922  0.04383544
   0.11934534  0.45972459  0.12874496
   0.04423495  0.13553346  0.31339626
   0.04080409  0.13114989  0.03536365
   0.13130448  0.95799902  0.13303643
   0.37415327  0.46114175  0.42243279
   0.45548595  0.54686581  0.21920607
   0.62191861  0.71206042  0.42107375
   0.95569127  0.78735065  0.22050316
   0.79499587  0.62310480  0.31818313
   0.28974496  0.63167392  0.31731182
   0.20123751  0.27885537  0.22539603
   0.70531330  0.55071706  0.22107616
   0.04021377  0.63182323  0.32341881
   0.79547831  0.86112383  0.04571520
   0.05752126  0.86417890  0.04095355
   0.04560842  0.63181793  0.04035269
   0.62783056  0.22534483  0.13048248
   0.38256550  0.95351772  0.13142638
   0.03521903  0.38395190  0.32275966
   0.02606154  0.38108859  0.04031026
   0.87237117  0.21512876  0.12980204
   0.95473355  0.54429733  0.22390732
   0.29689872  0.11600876  0.32000987
   0.54070692  0.62864430  0.32103635
   0.29497516  0.11635164  0.04266773
   0.54978575  0.62534505  0.04613061
   0.29695661  0.38236522  0.04225645
   0.62494582  0.94748125  0.13365829
   0.70737833  0.79257412  0.22040958
   0.86436375  0.70296060  0.12998592
   0.62697878  0.45925237  0.12844896
   0.29789209  0.87406327  0.31758793
   0.30717798  0.86850230  0.04269928
   0.62598466  0.71583948  0.12941889
   0.22636977  0.02657626  0.22776586
   0.54227868  0.38236495  0.03729113
   0.37702362  0.20555691  0.13422710
   0.13865409  0.70465584  0.13379824
   0.70443847  0.05100720  0.22039029
   0.79292857  0.12924932  0.31584784
   0.53873159  0.87286112  0.31655115
   0.79646401  0.12292985  0.03752709
   0.54537813  0.87134059  0.03811632
   0.20799686  0.54236125  0.22387311
   0.95025177  0.29885657  0.22184935
   0.87213940  0.96454459  0.13055765
   0.71606081  0.29079466  0.22408721
   0.45720633  0.29314346  0.22115087
   0.87466671  0.45688038  0.12942461
   0.12748153  0.20654114  0.12968723
   0.79120473  0.62110974  0.04224622
   0.29782181  0.62682596  0.04505060
   0.38631574  0.71285295  0.13020276
   0.38227049  0.45188866  0.12824332
   0.79281427  0.38079923  0.31974615
   0.79144401  0.37652223  0.04177987
   0.95541234  0.05424527  0.22153844
   0.45873218  0.79628882  0.22538547
   0.21584487  0.79782265  0.22481112
   0.46163445  0.02868030  0.22280218
   0.12350446  0.58510468  0.46576459
 
 position of ions in cartesian coordinates  (Angst):
  13.19424822  8.19887186  6.94739367
   5.20191625  8.22273487  6.91835920
   5.05001263  3.54694393  6.99201568
  14.55530436  8.98530365  9.29049844
   3.78312494  4.31884917  9.32403160
   6.53315229  8.97978059  9.24859929
  11.87865858  4.27920019  9.31467326
   9.18679843  8.94820646  9.18582643
  10.52975302  1.99493057  9.17860932
   2.49309574  1.97968788  9.22554119
  11.88384260  8.94980901  9.24925697
  13.20188321  6.61497109  9.30292954
   5.15076115  1.94797528  9.27050407
   7.89418501  6.62796355  9.24438998
   9.21731369  4.30402065  9.23628810
   5.16245853  6.58718519  9.35280366
   7.84854866  1.96472843  9.21821827
   7.91606892  3.50234732  6.95036118
   6.41529472  1.16562184  6.90254055
   6.55898775  1.14886237  0.96437977
   3.75747418  4.28391300  2.83238908
   1.20513812  1.26295949  6.89471779
   1.14463842  1.22211154  0.77800032
   6.56687105  8.92705020  2.92680150
   6.50683193  4.29711880  9.29352134
   7.84316702  5.09593270  4.82253351
  10.52272949  6.63528772  9.26362240
  14.51918494  7.33687474  4.85106957
  11.90645966  5.80636069  7.00002893
   6.51606159  5.88621141  6.98086013
   3.66555757  2.59849521  4.95871257
  10.55202913  5.13182036  4.86367551
   3.83190924  5.88760283  7.11521375
  13.19219308  8.02432517  1.00573441
   5.26821132  8.05279369  0.90097800
   3.88992717  5.88755336  0.88775920
   7.96781219  2.09986084  2.87061459
   9.24633038  8.88529155  2.89138037
   2.44461807  3.57783030  7.10071246
   2.33067882  3.55114870  0.88682572
  10.54410677  2.00466306  2.85564487
  13.20125292  5.07199845  4.92596105
   3.81875744  1.08101994  7.04021717
   9.20011306  5.85798017  7.06279970
   3.79990464  1.08421507  0.93869010
   9.28005122  5.82723631  1.01487350
   5.25237804  3.56304485  0.92964181
  11.82186637  8.82904104  2.94048247
  11.87543982  7.38554930  4.84901070
  13.08248223  6.55049166  2.85969017
   9.21706959  4.27951266  2.82587719
   7.90777947  8.14490051  6.98693446
   7.97777754  8.09308092  0.93938418
  10.58681158  6.67050258  2.84721558
   2.57871913  0.24764915  5.01084896
   7.89204220  3.56304242  0.82040476
   5.16267047  1.91546844  2.95299618
   5.28296656  6.56628862  2.94356121
   7.85417690  0.47530725  4.84858632
   9.22727294  1.20440124  6.94865257
  10.49274493  8.13369836  6.96412523
   9.23131555  1.14551366  0.82559594
  10.55608126  8.11952937  0.83855902
   5.15594988  5.05395730  4.92520835
  11.83255762  2.78487505  4.88068561
  14.57347016  8.98804467  2.87226841
   9.26928977  2.70975073  4.92991863
   6.49665205  2.73163781  4.86531912
  11.86943045  4.25740942  2.84734150
   2.48289262  1.92463988  2.85311896
  11.85493352  5.78776983  0.92941673
   6.57688653  5.84103608  0.99111319
   7.99190642  6.64267286  2.86446066
   6.54439165  4.21089446  2.82135314
  10.57938165  3.54845234  7.03441524
  10.54162732  3.50859735  0.91915711
  10.57207652  0.50548096  4.87384564
   9.21999232  7.42016445  4.95848029
   6.61477676  7.43445734  4.94584463
   5.12148683  0.26725547  4.90164786
   4.47677126  5.45225912 10.24682090
 


--------------------------------------------------------------------------------------------------------


 k-point  1 :   0.0000 0.0000 0.0000  plane waves:   64687
 k-point  2 :   0.5000 0.0000 0.0000  plane waves:   64612
 k-point  3 :   0.0000 0.5000 0.0000  plane waves:   64612
 k-point  4 :   0.5000 0.5000 0.0000  plane waves:   64612

 maximum and minimum number of plane-waves per node :     16191    16134

 maximum number of plane-waves:     64687
 maximum index in each direction: 
   IXMAX=   20   IYMAX=   20   IZMAX=   42
   IXMIN=  -21   IYMIN=  -21   IZMIN=  -42


 real space projection operators:
  total allocation   :      74970.23 KBytes
  max/ min on nodes  :      18752.97      18729.79


 parallel 3D FFT for wavefunctions:
    minimum data exchange during FFTs selected (reduces bandwidth)
 parallel 3D FFT for charge:
    minimum data exchange during FFTs selected (reduces bandwidth)


 total amount of memory used by VASP MPI-rank0   233092. kBytes
=======================================================================

   base      :      30000. kBytes
   nonlr-proj:      33407. kBytes
   fftplans  :      16137. kBytes
   grid      :      49182. kBytes
   one-center:        653. kBytes
   wavefun   :     103713. kBytes
 
     INWAV:  cpu time    0.0000: real time    0.0000
 Broyden mixing: mesh for mixing (old mesh)
   NGX = 41   NGY = 41   NGZ = 85
  (NGX  =168   NGY  =168   NGZ  =336)
  gives a total of 142885 points

 initial charge density was supplied:
 charge density of overlapping atoms calculated
 number of electron     778.0000000 magnetization     231.0000000
 keeping initial charge density in first step


--------------------------------------------------------------------------------------------------------


 Maximum index for non-local projection operator         1828
 Maximum index for augmentation-charges         1428 (set IRDMAX)


--------------------------------------------------------------------------------------------------------


 First call to EWALD:  gamma=   0.136
 Maximum number of real-space cells 4x 4x 2
 Maximum number of reciprocal cells 2x 2x 4

    FEWALD:  cpu time    0.0083: real time    0.0083


--------------------------------------- Iteration      1(   1)  ---------------------------------------


    POTLOK:  cpu time    0.4133: real time    0.4178
    SETDIJ:  cpu time    0.0349: real time    0.0350
     EDDAV:  cpu time   63.1123: real time   63.4545
       DOS:  cpu time    0.0024: real time    0.0337
    --------------------------------------------
      LOOP:  cpu time   63.5630: real time   63.9411

 eigenvalue-minimisations  :  9408
 total energy-change (2. order) : 0.7769723E+04  (-0.3290493E+05)
 number of electron     778.0000000 magnetization     231.0000000
 augmentation part      778.0000000 magnetization     231.0000000

 Free energy of the ion-electron system (eV)
  ---------------------------------------------------
  alpha Z        PSCENC =      2156.50569604
  Ewald energy   TEWEN  =    221628.69219908
  -Hartree energ DENC   =   -293653.43725336
  -exchange      EXHF   =         0.00000000
  -V(xc)+E(xc)   XCENC  =      1381.70970274
  PAW double counting   =     64136.80006862   -66038.70876209
  entropy T*S    EENTRO =        -0.00324994
  eigenvalues    EBANDS =      7939.51020966
  atomic energy  EATOM  =     70218.65458108
  Solvation  Ediel_sol  =         0.00000000
  ---------------------------------------------------
  free energy    TOTEN  =      7769.72319184 eV

  energy without entropy =     7769.72644178  energy(sigma->0) =     7769.72427515


--------------------------------------------------------------------------------------------------------




--------------------------------------- Iteration      1(   2)  ---------------------------------------


     EDDAV:  cpu time   62.9966: real time   63.2633
       DOS:  cpu time    0.0028: real time    0.0435
    --------------------------------------------
      LOOP:  cpu time   62.9994: real time   63.3068

 eigenvalue-minimisations  :  9408
 total energy-change (2. order) :-0.6956115E+04  (-0.6224629E+04)
 number of electron     778.0000000 magnetization     231.0000000
 augmentation part      778.0000000 magnetization     231.0000000

 Free energy of the ion-electron system (eV)
  ---------------------------------------------------
  alpha Z        PSCENC =      2156.50569604
  Ewald energy   TEWEN  =    221628.69219908
  -Hartree energ DENC   =   -293653.43725336
  -exchange      EXHF   =         0.00000000
  -V(xc)+E(xc)   XCENC  =      1381.70970274
  PAW double counting   =     64136.80006862   -66038.70876209
  entropy T*S    EENTRO =         0.00171874
  eigenvalues    EBANDS =       983.39049061
  atomic energy  EATOM  =     70218.65458108
  Solvation  Ediel_sol  =         0.00000000
  ---------------------------------------------------
  free energy    TOTEN  =       813.60844147 eV

  energy without entropy =      813.60672272  energy(sigma->0) =      813.60786855


--------------------------------------------------------------------------------------------------------




--------------------------------------- Iteration      1(   3)  ---------------------------------------


     EDDAV:  cpu time   62.7180: real time   62.9303
       DOS:  cpu time    0.0029: real time    0.0036
    --------------------------------------------
      LOOP:  cpu time   62.7209: real time   62.9338

 eigenvalue-minimisations  :  9408
 total energy-change (2. order) :-0.1189530E+04  (-0.9635332E+03)
 number of electron     778.0000000 magnetization     231.0000000
 augmentation part      778.0000000 magnetization     231.0000000

 Free energy of the ion-electron system (eV)
  ---------------------------------------------------
  alpha Z        PSCENC =      2156.50569604
  Ewald energy   TEWEN  =    221628.69219908
  -Hartree energ DENC   =   -293653.43725336
  -exchange      EXHF   =         0.00000000
  -V(xc)+E(xc)   XCENC  =      1381.70970274
  PAW double counting   =     64136.80006862   -66038.70876209
  entropy T*S    EENTRO =        -0.00999441
  eigenvalues    EBANDS =      -206.12779978
  atomic energy  EATOM  =     70218.65458108
  Solvation  Ediel_sol  =         0.00000000
  ---------------------------------------------------
  free energy    TOTEN  =      -375.92156208 eV

  energy without entropy =     -375.91156767  energy(sigma->0) =     -375.91823061


--------------------------------------------------------------------------------------------------------




--------------------------------------- Iteration      1(   4)  ---------------------------------------


     EDDAV:  cpu time   75.1851: real time   75.5280
       DOS:  cpu time    0.0032: real time    0.0040
    --------------------------------------------
      LOOP:  cpu time   75.1883: real time   75.5319

 eigenvalue-minimisations  : 11820
 total energy-change (2. order) :-0.1168036E+03  (-0.1067634E+03)
 number of electron     778.0000000 magnetization     231.0000000
 augmentation part      778.0000000 magnetization     231.0000000

 Free energy of the ion-electron system (eV)
  ---------------------------------------------------
  alpha Z        PSCENC =      2156.50569604
  Ewald energy   TEWEN  =    221628.69219908
  -Hartree energ DENC   =   -293653.43725336
  -exchange      EXHF   =         0.00000000
  -V(xc)+E(xc)   XCENC  =      1381.70970274
  PAW double counting   =     64136.80006862   -66038.70876209
  entropy T*S    EENTRO =        -0.00433958
  eigenvalues    EBANDS =      -322.93702870
  atomic energy  EATOM  =     70218.65458108
  Solvation  Ediel_sol  =         0.00000000
  ---------------------------------------------------
  free energy    TOTEN  =      -492.72513617 eV

  energy without entropy =     -492.72079659  energy(sigma->0) =     -492.72368964


--------------------------------------------------------------------------------------------------------




--------------------------------------- Iteration      1(   5)  ---------------------------------------


     EDDAV:  cpu time   71.8687: real time   72.4437
       DOS:  cpu time    0.0047: real time    0.0826
    CHARGE:  cpu time    3.8799: real time    3.8903
    MIXING:  cpu time    0.0108: real time    0.0109
    --------------------------------------------
      LOOP:  cpu time   75.7642: real time   76.4276

 eigenvalue-minimisations  : 11184
 total energy-change (2. order) :-0.4397922E+01  (-0.4361660E+01)
 number of electron     777.9999975 magnetization     216.6211588
 augmentation part      335.1386438 magnetization     183.8704560

 Broyden mixing:
  rms(total) = 0.11602E+02    rms(broyden)= 0.11602E+02
  rms(prec ) = 0.11938E+02
  weight for this iteration     100.00

 Free energy of the ion-electron system (eV)
  ---------------------------------------------------
  alpha Z        PSCENC =      2156.50569604
  Ewald energy   TEWEN  =    221628.69219908
  -Hartree energ DENC   =   -293653.43725336
  -exchange      EXHF   =         0.00000000
  -V(xc)+E(xc)   XCENC  =      1381.70970274
  PAW double counting   =     64136.80006862   -66038.70876209
  entropy T*S    EENTRO =        -0.00499268
  eigenvalues    EBANDS =      -327.33429756
  atomic energy  EATOM  =     70218.65458108
  Solvation  Ediel_sol  =         0.00000000
  ---------------------------------------------------
  free energy    TOTEN  =      -497.12305813 eV

  energy without entropy =     -497.11806545  energy(sigma->0) =     -497.12139391


--------------------------------------------------------------------------------------------------------




--------------------------------------- Iteration      1(   6)  ---------------------------------------


    POTLOK:  cpu time    0.3964: real time    0.4121
    SETDIJ:  cpu time    0.0351: real time    0.0352
    EDDIAG:  cpu time   11.2559: real time   11.2868
  RMM-DIIS:  cpu time   37.7075: real time   37.8089
    ORTHCH:  cpu time    1.3338: real time    1.3410
       DOS:  cpu time    0.0024: real time    0.0024
    CHARGE:  cpu time    3.7390: real time    3.7490
    MIXING:  cpu time    0.0136: real time    0.2114
    --------------------------------------------
      LOOP:  cpu time   54.4836: real time   54.8466

 eigenvalue-minimisations  :  9590
 total energy-change (2. order) :-0.1918309E+03  (-0.9522118E+02)
 number of electron     777.9999957 magnetization     212.7116948
 augmentation part      406.9048590 magnetization     179.4516227

 Broyden mixing:
  rms(total) = 0.20215E+02    rms(broyden)= 0.20215E+02
  rms(prec ) = 0.26361E+02
  weight for this iteration     100.00

 eigenvalues of (default mixing * dielectric matrix)
  average eigenvalue GAMMA=   0.2127
  0.2127

 Free energy of the ion-electron system (eV)
  ---------------------------------------------------
  alpha Z        PSCENC =      2156.50569604
  Ewald energy   TEWEN  =    221628.69219908
  -Hartree energ DENC   =   -292042.53613926
  -exchange      EXHF   =         0.00000000
  -V(xc)+E(xc)   XCENC  =      1336.09305077
  PAW double counting   =     68892.33511311   -70579.74371831
  entropy T*S    EENTRO =        -0.00864505
  eigenvalues    EBANDS =     -2298.94613213
  atomic energy  EATOM  =     70218.65458108
  Solvation  Ediel_sol  =         0.00000000
  ---------------------------------------------------
  free energy    TOTEN  =      -688.95399467 eV

  energy without entropy =     -688.94534962  energy(sigma->0) =     -688.95111299


--------------------------------------------------------------------------------------------------------




--------------------------------------- Iteration      1(   7)  ---------------------------------------


    POTLOK:  cpu time    0.3948: real time    0.4133
    SETDIJ:  cpu time    0.0347: real time    0.0348
    EDDIAG:  cpu time   11.1863: real time   11.2161
  RMM-DIIS:  cpu time   37.1296: real time   37.2296
    ORTHCH:  cpu time    1.3252: real time    1.3312
       DOS:  cpu time    0.0027: real time    0.0027
    CHARGE:  cpu time    3.7782: real time    3.7912
    MIXING:  cpu time    0.0114: real time    0.0117
    --------------------------------------------
      LOOP:  cpu time   53.8629: real time   54.0303

 eigenvalue-minimisations  :  9419
 total energy-change (2. order) : 0.1669351E+03  (-0.1624048E+02)
 number of electron     777.9999972 magnetization     207.9841242
 augmentation part      368.8361701 magnetization     165.0381535

 Broyden mixing:
  rms(total) = 0.14968E+02    rms(broyden)= 0.14968E+02
  rms(prec ) = 0.19969E+02
  weight for this iteration     100.00

 eigenvalues of (default mixing * dielectric matrix)
  average eigenvalue GAMMA=   0.2689
  0.3707  0.1671

 Free energy of the ion-electron system (eV)
  ---------------------------------------------------
  alpha Z        PSCENC =      2156.50569604
  Ewald energy   TEWEN  =    221628.69219908
  -Hartree energ DENC   =   -292711.27868586
  -exchange      EXHF   =         0.00000000
  -V(xc)+E(xc)   XCENC  =      1355.53257650
  PAW double counting   =     69895.12412085   -71738.60830123
  entropy T*S    EENTRO =        -0.00820702
  eigenvalues    EBANDS =     -1326.63290448
  atomic energy  EATOM  =     70218.65458108
  Solvation  Ediel_sol  =         0.00000000
  ---------------------------------------------------
  free energy    TOTEN  =      -522.01892505 eV

  energy without entropy =     -522.01071803  energy(sigma->0) =     -522.01618938


--------------------------------------------------------------------------------------------------------




--------------------------------------- Iteration      1(   8)  ---------------------------------------


    POTLOK:  cpu time    0.3890: real time    0.4137
    SETDIJ:  cpu time    0.0345: real time    0.0346
    EDDIAG:  cpu time   11.3105: real time   11.3672
  RMM-DIIS:  cpu time   37.1461: real time   37.2490
    ORTHCH:  cpu time    1.3419: real time    1.3481
       DOS:  cpu time    0.0025: real time    0.0025
    CHARGE:  cpu time    3.6761: real time    3.6899
    MIXING:  cpu time    0.0122: real time    0.1395
    --------------------------------------------
      LOOP:  cpu time   53.9128: real time   54.2445

 eigenvalue-minimisations  :  9435
 total energy-change (2. order) : 0.4006396E+02  (-0.1144646E+02)
 number of electron     777.9999974 magnetization     200.8171590
 augmentation part      373.0776970 magnetization     163.8995701

 Broyden mixing:
  rms(total) = 0.16317E+02    rms(broyden)= 0.16317E+02
  rms(prec ) = 0.19153E+02
  weight for this iteration     100.00

 eigenvalues of (default mixing * dielectric matrix)
  average eigenvalue GAMMA=   0.3074
  0.5801  0.2607  0.0815

 Free energy of the ion-electron system (eV)
  ---------------------------------------------------
  alpha Z        PSCENC =      2156.50569604
  Ewald energy   TEWEN  =    221628.69219908
  -Hartree energ DENC   =   -292965.04532138
  -exchange      EXHF   =         0.00000000
  -V(xc)+E(xc)   XCENC  =      1361.39843571
  PAW double counting   =     71093.61151567   -73009.69992596
  entropy T*S    EENTRO =         0.00663094
  eigenvalues    EBANDS =      -966.07877693
  atomic energy  EATOM  =     70218.65458108
  Solvation  Ediel_sol  =         0.00000000
  ---------------------------------------------------
  free energy    TOTEN  =      -481.95496576 eV

  energy without entropy =     -481.96159670  energy(sigma->0) =     -481.95717607


--------------------------------------------------------------------------------------------------------




--------------------------------------- Iteration      1(   9)  ---------------------------------------


    POTLOK:  cpu time    0.3913: real time    0.5027
    SETDIJ:  cpu time    0.0342: real time    0.0344
    EDDIAG:  cpu time   11.1956: real time   11.2666
  RMM-DIIS:  cpu time   37.1993: real time   37.3475
    ORTHCH:  cpu time    1.3434: real time    1.3481
       DOS:  cpu time    0.0025: real time    0.0025
    CHARGE:  cpu time    3.7210: real time    3.7306
    MIXING:  cpu time    0.0122: real time    0.0124
    --------------------------------------------
      LOOP:  cpu time   53.8995: real time   54.2447

 eigenvalue-minimisations  :  9448
 total energy-change (2. order) : 0.9363234E+02  (-0.1510537E+02)
 number of electron     777.9999969 magnetization     192.7219608
 augmentation part      374.9594601 magnetization     147.4859393

 Broyden mixing:
  rms(total) = 0.12668E+02    rms(broyden)= 0.12668E+02
  rms(prec ) = 0.14367E+02
  weight for this iteration     100.00

 eigenvalues of (default mixing * dielectric matrix)
  average eigenvalue GAMMA=   0.3608
  0.8696  0.3461  0.1283  0.0993

 Free energy of the ion-electron system (eV)
  ---------------------------------------------------
  alpha Z        PSCENC =      2156.50569604
  Ewald energy   TEWEN  =    221628.69219908
  -Hartree energ DENC   =   -292700.46110805
  -exchange      EXHF   =         0.00000000
  -V(xc)+E(xc)   XCENC  =      1378.35461800
  PAW double counting   =     72488.52549254   -74457.09413939
  entropy T*S    EENTRO =        -0.01194154
  eigenvalues    EBANDS =     -1101.48801879
  atomic energy  EATOM  =     70218.65458108
  Solvation  Ediel_sol  =         0.00000000
  ---------------------------------------------------
  free energy    TOTEN  =      -388.32262103 eV

  energy without entropy =     -388.31067949  energy(sigma->0) =     -388.31864052


[...]
   -.482E+01 0.320E+02 -.286E+04   0.503E+01 -.315E+02 0.286E+04   -.216E+00 -.520E+00 0.111E+01   0.236E-01 -.892E-02 -.572E-02
   -.408E+01 0.201E+02 -.285E+04   0.344E+01 -.200E+02 0.285E+04   0.655E+00 -.159E+00 0.680E+00   -.152E-01 -.367E-01 -.759E-01
   0.182E+01 -.482E+01 -.285E+04   -.183E+01 0.439E+01 0.285E+04   0.290E-01 0.410E+00 0.131E+01   -.134E-02 -.123E-01 -.420E-01
   -.223E+02 -.755E+01 -.289E+04   0.222E+02 0.684E+01 0.289E+04   0.883E-01 0.693E+00 0.171E+01   0.154E-01 -.275E-02 -.117E-01
   0.140E+02 -.244E+02 -.288E+04   -.143E+02 0.246E+02 0.287E+04   0.423E+00 -.136E+00 0.209E+01   -.228E-01 0.100E-01 0.428E-02
   -.255E+02 0.173E+02 -.288E+04   0.253E+02 -.171E+02 0.288E+04   0.181E+00 -.203E+00 0.131E+01   0.194E-01 -.136E-01 0.200E-01
   -.623E+01 0.723E+01 -.283E+04   0.676E+01 -.668E+01 0.283E+04   -.505E+00 -.514E+00 0.186E+01   0.152E-01 0.142E-01 -.282E-01
   -.921E+01 -.750E+01 -.289E+04   0.947E+01 0.729E+01 0.289E+04   -.302E+00 0.199E+00 0.983E+00   0.610E-03 -.854E-02 0.149E-01
   -.173E+02 -.635E+00 -.284E+04   0.168E+02 0.705E+00 0.284E+04   0.638E+00 -.516E-01 0.184E+01   -.107E-01 -.165E-01 -.684E-02
   0.309E+01 -.233E+02 -.285E+04   -.338E+01 0.227E+02 0.285E+04   0.319E+00 0.617E+00 0.117E+01   -.359E-01 0.197E-01 -.135E-01
   0.309E+02 0.133E+02 -.287E+04   -.301E+02 -.130E+02 0.287E+04   -.859E+00 -.332E+00 0.173E+01   -.224E-01 0.169E-01 -.149E-01
   0.240E+02 -.725E+01 -.288E+04   -.236E+02 0.761E+01 0.288E+04   -.322E+00 -.328E+00 0.157E+01   -.470E-03 0.187E-01 0.455E-02
   -.134E+02 -.175E+02 -.284E+04   0.128E+02 0.169E+02 0.284E+04   0.533E+00 0.664E+00 -.529E+00   0.726E-02 0.412E-02 -.477E-01
   0.267E+02 -.803E+01 -.288E+04   -.266E+02 0.818E+01 0.287E+04   -.556E-01 -.205E+00 0.124E+01   -.166E-01 0.113E-01 0.140E-01
   0.702E+02 -.651E+02 -.149E+04   -.690E+02 0.653E+02 0.149E+04   -.120E+01 -.213E+00 0.174E+01   -.655E-02 0.784E-02 0.114E-01
   0.273E+02 -.437E+02 -.148E+04   -.284E+02 0.434E+02 0.148E+04   0.112E+01 0.386E+00 0.246E+01   -.208E-02 0.105E-01 0.149E-01
   0.339E+02 0.244E+02 0.295E+04   -.341E+02 -.246E+02 -.295E+04   0.927E-01 0.226E+00 -.262E+01   -.683E-02 0.938E-02 -.448E-02
   0.252E+02 -.619E+01 0.158E+04   -.261E+02 0.692E+01 -.158E+04   0.977E+00 -.678E+00 0.957E+00   0.279E-01 -.161E-01 -.189E-01
   -.664E+02 0.127E+02 -.145E+04   0.672E+02 -.121E+02 0.145E+04   -.842E+00 -.593E+00 0.259E+01   0.546E-02 -.281E-01 0.304E-01
   -.527E+02 0.593E+02 0.302E+04   0.534E+02 -.582E+02 -.301E+04   -.707E+00 -.110E+01 -.235E+01   0.570E-02 0.653E-03 -.397E-02
   0.907E+01 -.542E+02 0.156E+04   -.881E+01 0.536E+02 -.156E+04   -.295E+00 0.481E+00 -.778E+00   -.697E-02 -.372E-02 0.206E-01
   0.134E+02 -.994E+00 -.284E+04   -.127E+02 0.538E+00 0.284E+04   -.624E+00 0.450E+00 0.148E+01   -.118E-01 0.358E-02 -.175E-01
   -.133E+02 -.127E+01 0.100E+02   0.134E+02 0.150E+01 -.113E+02   -.119E+00 -.336E+00 0.115E+01   -.192E-01 0.133E-01 0.266E-01
   -.120E+02 0.939E+01 -.289E+04   0.115E+02 -.951E+01 0.288E+04   0.516E+00 0.140E+00 0.149E+01   0.137E-01 -.129E-01 -.123E-02
   0.114E+02 0.548E+02 0.249E+02   -.124E+02 -.561E+02 -.252E+02   0.109E+01 0.118E+01 0.219E+00   0.452E-01 0.182E-01 0.171E-01
   -.664E+02 0.779E+01 -.146E+04   0.669E+02 -.897E+01 0.145E+04   -.499E+00 0.125E+01 0.280E+01   -.702E-02 -.783E-02 0.568E-01
   0.344E+02 0.265E+02 -.151E+04   -.344E+02 -.257E+02 0.151E+04   -.106E+00 -.752E+00 0.214E+01   0.184E-01 0.291E-01 0.883E-02
   0.688E+01 -.656E+02 -.648E+02   -.788E+01 0.650E+02 0.652E+02   0.107E+01 0.529E+00 -.306E+00   0.574E-02 -.140E-01 0.235E-01
   -.213E+02 -.186E+02 0.691E+01   0.221E+02 0.193E+02 -.755E+01   -.787E+00 -.799E+00 0.571E+00   -.395E-01 -.207E-01 0.439E-01
   0.148E+02 0.152E+02 -.122E+04   -.149E+02 -.156E+02 0.122E+04   0.368E-01 0.478E+00 0.524E+00   0.190E-01 -.847E-02 0.319E-01
   -.671E+02 -.754E+01 0.237E+04   0.673E+02 0.623E+01 -.237E+04   -.308E+00 0.133E+01 -.286E+01   0.202E-01 0.102E-01 -.121E-01
   0.361E+02 -.200E+02 0.241E+04   -.359E+02 0.184E+02 -.241E+04   -.941E-01 0.167E+01 -.258E+01   -.748E-02 -.440E-02 -.325E-02
   0.266E+02 0.383E+01 0.241E+04   -.266E+02 -.305E+01 -.240E+04   -.438E-01 -.825E+00 -.313E+01   0.175E-01 0.206E-03 -.965E-02
   0.184E+02 0.605E+02 0.126E+04   -.175E+02 -.597E+02 -.126E+04   -.989E+00 -.795E+00 -.615E-01   -.559E-02 0.413E-02 0.321E-02
   0.304E+02 -.651E+02 0.125E+04   -.303E+02 0.647E+02 -.125E+04   -.106E+00 0.300E+00 -.432E+00   -.142E-01 0.316E-01 0.171E-01
   -.640E+02 -.257E+02 -.120E+04   0.642E+02 0.259E+02 0.120E+04   -.159E+00 -.187E+00 0.672E+00   0.101E-01 -.177E-01 0.367E-01
   -.119E+03 0.180E+02 0.242E+04   0.118E+03 -.178E+02 -.242E+04   0.775E+00 -.148E+00 -.301E+01   0.181E-01 -.150E-01 -.117E-01
   -.350E+02 0.509E+02 0.127E+04   0.341E+02 -.504E+02 -.127E+04   0.865E+00 -.549E+00 -.402E+00   0.513E-03 -.117E-01 0.315E-02
   -.551E+02 0.222E+01 -.371E+02   0.548E+02 -.179E+01 0.371E+02   0.248E+00 -.441E+00 -.117E+00   0.180E-01 -.200E-01 0.254E-01
   0.158E+02 -.827E+02 -.121E+04   -.158E+02 0.825E+02 0.121E+04   0.105E+00 0.243E+00 0.934E+00   -.158E-01 0.951E-03 0.214E-01
   0.131E+02 0.278E+02 -.121E+04   -.132E+02 -.278E+02 0.121E+04   0.135E+00 -.353E-01 0.200E+00   -.230E-01 0.160E-01 0.885E-02
   0.330E+01 -.624E+02 0.239E+04   -.411E+01 0.614E+02 -.239E+04   0.832E+00 0.105E+01 -.303E+01   0.854E-03 0.208E-01 -.234E-02
   0.111E+02 -.154E+02 0.269E+04   -.112E+02 0.157E+02 -.269E+04   0.451E-01 -.274E+00 -.252E+01   -.256E-01 -.199E-01 -.155E-01
   0.132E+03 0.385E+02 0.272E+04   -.132E+03 -.376E+02 -.272E+04   0.200E+00 -.891E+00 -.276E+01   -.396E-02 0.600E-03 -.175E-02
   -.477E+02 -.440E+02 0.138E+04   0.472E+02 0.429E+02 -.138E+04   0.508E+00 0.118E+01 -.369E+00   0.913E-02 0.407E-01 -.625E-02
   -.648E+02 0.535E+02 0.235E+02   0.649E+02 -.534E+02 -.242E+02   -.990E-01 -.157E+00 0.643E+00   -.168E-02 0.266E-01 0.327E-01
   -.106E+03 0.127E+02 0.138E+04   0.106E+03 -.123E+02 -.138E+04   0.466E+00 -.481E+00 -.189E+00   0.431E-01 0.120E-01 -.212E-01
   -.155E+02 0.613E+01 0.136E+04   0.157E+02 -.638E+01 -.136E+04   -.169E+00 0.342E+00 -.173E+00   -.283E-01 -.255E-01 0.196E-01
   0.466E+02 0.321E+01 -.137E+04   -.465E+02 -.339E+01 0.137E+04   -.240E+00 0.213E+00 0.124E+01   -.237E-01 -.315E-02 0.907E-02
   0.599E+02 -.792E+02 0.271E+04   -.595E+02 0.790E+02 -.270E+04   -.452E+00 0.216E+00 -.273E+01   -.252E-01 0.203E-01 -.208E-02
   -.133E+02 0.399E+01 0.135E+04   0.134E+02 -.373E+01 -.135E+04   -.150E+00 -.274E+00 -.501E+00   -.122E-01 0.111E-01 0.129E-01
   0.262E+02 -.733E+02 -.146E+02   -.253E+02 0.728E+02 0.149E+02   -.801E+00 0.604E+00 -.449E+00   -.104E-01 -.194E-01 0.287E-01
   0.360E+02 0.407E+02 0.336E+04   -.361E+02 -.398E+02 -.336E+04   0.958E-01 -.937E+00 -.398E+01   -.255E-01 -.107E-01 0.423E-03
   0.579E+02 0.481E+01 0.170E+04   -.581E+02 -.544E+01 -.170E+04   0.156E+00 0.661E+00 -.132E+00   -.630E-02 0.696E-02 -.515E-02
   0.114E+03 -.346E+02 0.167E+04   -.113E+03 0.346E+02 -.167E+04   -.187E+00 -.501E-01 -.761E-01   0.180E-01 0.273E-02 0.113E-02
   0.200E+02 0.668E+02 0.102E+03   -.205E+02 -.667E+02 -.103E+03   0.567E+00 -.192E+00 0.391E+00   0.824E-02 0.170E-01 0.175E-01
   0.131E+02 0.555E+02 -.166E+04   -.127E+02 -.552E+02 0.166E+04   -.452E+00 -.353E+00 0.124E+01   0.119E-01 -.922E-02 0.155E-01
   -.400E+02 0.277E+02 -.165E+04   0.392E+02 -.275E+02 0.165E+04   0.954E+00 -.251E+00 0.212E+01   -.391E-01 0.126E-02 0.244E-01
   0.163E+01 0.102E+03 0.331E+04   -.150E+01 -.103E+03 -.331E+04   -.173E+00 0.501E+00 -.327E+01   0.242E-02 -.131E-01 -.700E-02
   -.232E+02 -.845E+02 0.334E+04   0.223E+02 0.842E+02 -.334E+04   0.987E+00 0.282E+00 -.302E+01   0.148E-01 0.505E-01 -.277E-01
   0.110E+03 0.107E+02 -.562E+02   -.110E+03 -.105E+02 0.564E+02   -.187E-01 -.309E+00 -.398E+00   0.367E-01 0.307E-02 0.184E-01
   -.117E+03 -.287E+02 0.411E+02   0.116E+03 0.286E+02 -.411E+02   0.317E+00 0.116E+00 -.489E-01   0.442E-02 -.340E-01 0.288E-01
   -.822E+01 0.643E+02 0.176E+04   0.797E+01 -.636E+02 -.176E+04   0.281E+00 -.659E+00 -.833E+00   0.160E-01 -.283E-03 -.659E-02
   0.180E+02 -.668E+02 0.449E+02   -.176E+02 0.658E+02 -.454E+02   -.317E+00 0.124E+01 0.336E+00   -.997E-02 -.200E-02 0.173E-01
   0.590E+02 -.255E+02 0.903E+01   -.583E+02 0.252E+02 -.907E+01   -.785E+00 0.349E+00 0.816E-01   -.390E-02 0.122E-01 0.155E-01
   -.790E+02 0.296E+01 0.151E+04   0.785E+02 -.278E+01 -.151E+04   0.471E+00 -.926E-01 -.217E+00   0.102E-01 -.415E-01 -.102E-01
   -.188E+02 0.170E+02 0.159E+04   0.192E+02 -.173E+02 -.159E+04   -.377E+00 0.282E+00 -.458E+00   0.111E-01 -.114E-01 -.451E-02
   -.109E+03 -.799E+01 0.302E+04   0.109E+03 0.805E+01 -.302E+04   -.491E+00 -.166E-01 -.175E+01   0.385E-01 -.124E-01 -.367E-01
   0.698E+02 -.467E+02 0.301E+04   -.703E+02 0.473E+02 -.301E+04   0.526E+00 -.628E+00 -.111E+01   -.336E-01 -.869E-02 0.253E-03
   0.203E+02 -.328E+02 0.152E+04   -.199E+02 0.327E+02 -.152E+04   -.385E+00 0.215E+00 -.720E-01   -.505E-01 -.309E-02 0.424E-01
   0.570E+02 0.637E+01 0.155E+04   -.565E+02 -.641E+01 -.155E+04   -.554E+00 0.865E-01 -.223E+00   -.743E-02 0.413E-02 0.387E-02
   -.341E+02 -.627E+02 -.152E+04   0.340E+02 0.628E+02 0.152E+04   0.119E+00 -.932E-01 0.569E+00   0.767E-02 -.327E-02 0.212E-01
   -.428E+02 0.319E+02 0.300E+04   0.433E+02 -.313E+02 -.300E+04   -.496E+00 -.622E+00 -.203E+01   0.551E-02 -.288E-01 -.118E-01
   -.456E+02 0.830E+02 0.813E+02   0.460E+02 -.826E+02 -.814E+02   -.406E+00 -.417E+00 -.378E-01   0.163E-01 -.161E-01 0.270E-01
   -.280E+00 0.572E+02 -.122E+02   0.243E+00 -.564E+02 0.121E+02   0.131E+00 -.838E+00 -.400E-01   -.568E-01 0.135E-01 0.555E-01
   0.604E+02 0.855E+00 -.287E+02   -.600E+02 -.260E+00 0.287E+02   -.394E+00 -.666E+00 -.748E-01   0.112E-01 0.376E-02 0.419E-01
   0.978E+01 -.614E+02 0.361E+02   -.102E+02 0.610E+02 -.363E+02   0.366E+00 0.475E+00 0.731E-01   -.194E-01 0.178E-01 0.174E-01
   0.714E-01 0.211E+01 -.341E+03   -.261E+00 -.242E+01 0.343E+03   0.175E+00 0.309E+00 -.193E+01   0.674E-03 0.627E-03 -.105E-02
 -----------------------------------------------------------------------------------------------
   -.275E+01 -.159E+01 -.249E+00   0.439E-12 0.411E-12 0.337E-10   0.276E+01 0.163E+01 -.231E+00   -.442E-01 -.194E-02 0.504E+00
 
 
 POSITION                                       TOTAL-FORCE (eV/Angst)
 -----------------------------------------------------------------------------------
     13.18818      8.19511      6.94291         0.002819      0.003304     -0.005591
      5.19808      8.19769      6.91244         0.019937      0.020085      0.003891
      5.03059      3.55137      7.00462         0.009481     -0.002159      0.034787
     14.58030      8.98870      9.22126         0.022969     -0.000490      0.027453
      3.78577      4.29082      9.41404         0.000491     -0.039918      0.006921
      6.51744      8.95815      9.19054        -0.005644      0.000246      0.018985
     11.86844      4.26549      9.30170         0.004873     -0.001306      0.013104
      9.18987      8.94602      9.18789         0.009631      0.009377     -0.003234
     10.53008      1.96913      9.18129         0.019612      0.000229     -0.003053
      2.49495      1.98224      9.20591         0.007197      0.026992      0.031855
     11.88790      8.94858      9.25687        -0.006817      0.014857      0.001160
     13.19907      6.62882      9.28485         0.016801      0.008111      0.014571
      5.15739      1.93148      9.26527        -0.011668      0.010724     -0.000352
      7.89299      6.64595      9.24582        -0.019013      0.002521      0.001708
      9.21629      4.30571      9.23646         0.011711      0.021626     -0.001869
      5.16283      6.65303      9.36823        -0.001121      0.027321      0.013549
      7.85228      1.95732      9.21872         0.000099     -0.016168      0.000075
      7.91633      3.49809      6.94893        -0.007735     -0.001994     -0.005531
      6.41590      1.16762      6.89808        -0.004010      0.003978     -0.010934
      6.55899      1.14886      0.96438        -0.010504     -0.003758      0.013387
      3.75747      4.28391      2.83239        -0.007947     -0.014725     -0.013429
      1.19803      1.25723      6.88725         0.014268     -0.007497     -0.004018
      1.14464      1.22211      0.77800        -0.006978      0.021353     -0.001297
      6.56687      8.92705      2.92680         0.005667     -0.011766      0.003272
      6.53197      4.28273      9.27199         0.024450     -0.002360      0.014727
      7.84317      5.09593      4.82253         0.028379     -0.042367     -0.103120
     10.52566      6.62513      9.26169         0.017466     -0.020778     -0.009530
     14.51918      7.33687      4.85107         0.020556     -0.024121     -0.018155
     11.90761      5.80373      6.99440         0.001746     -0.011181      0.040069
      6.52144      5.87443      6.97738        -0.008151      0.006513      0.011095
      3.66556      2.59850      4.95871         0.002593     -0.018174     -0.004591
     10.55203      5.13182      4.86368        -0.012549     -0.023083     -0.042639
      3.83241      5.87027      7.13025         0.000926      0.016526      0.037158
     13.19219      8.02433      1.00573        -0.008661     -0.002507      0.012239
      5.26821      8.05279      0.90098        -0.000440      0.011413      0.007436
      3.88993      5.88755      0.88776         0.004564     -0.011129      0.009336
      7.96781      2.09986      2.87061        -0.026602      0.006429     -0.004908
      9.24633      8.88529      2.89138         0.005098      0.029453     -0.015514
      2.42945      3.56932      7.08812        -0.002776      0.004924      0.013828
      2.33068      3.55115      0.88683         0.030550     -0.001676     -0.009750
     10.54411      2.00466      2.85564        -0.012284      0.010551     -0.024624
     13.20125      5.07200      4.92596         0.002510     -0.003062     -0.007760
      3.82112      1.07259      7.03489         0.004150      0.005852      0.005658
      9.20201      5.85589      7.06026         0.000500     -0.007227     -0.007418
      3.79990      1.08422      0.93869        -0.004574     -0.001113      0.011500
      9.28005      5.82724      1.01487        -0.013566      0.007917      0.020535
      5.25238      3.56304      0.92964        -0.013706     -0.002913      0.005529
     11.82187      8.82904      2.94048        -0.012077      0.006179      0.012827
     11.87544      7.38555      4.84901         0.001296      0.002852     -0.018683
     13.08248      6.55049      2.85969         0.007136     -0.015345      0.003238
      9.21707      4.27951      2.82588        -0.012960      0.019592      0.000604
      7.90955      8.14413      6.98437        -0.012203     -0.012471      0.004419
      7.97778      8.09308      0.93938        -0.009150      0.027933     -0.004985
     10.58681      6.67050      2.84722        -0.021868      0.000423     -0.011307
      2.57872      0.24765      5.01085         0.028057      0.000280     -0.024171
      7.89204      3.56304      0.82040        -0.000471     -0.006464      0.006434
      5.16267      1.91547      2.95300        -0.004674     -0.009983      0.010408
      5.28297      6.56629      2.94356         0.007169     -0.007649      0.001558
      7.85418      0.47531      4.84859         0.012801      0.001032     -0.012720
      9.22919      1.20281      6.93954        -0.009460     -0.008884     -0.005858
     10.49541      8.13248      6.96588        -0.000551     -0.001739     -0.011441
      9.23132      1.14551      0.82560        -0.016430      0.004309      0.006913
     10.55608      8.11953      0.83856        -0.008748      0.004650      0.024983
      5.15595      5.05396      4.92521        -0.002033     -0.013969     -0.009160
     11.83256      2.78488      4.88069        -0.004714     -0.006630      0.026925
     14.57347      8.98804      2.87227         0.005499      0.017960     -0.000826
      9.26929      2.70975      4.92992         0.008764     -0.005529     -0.021388
      6.49665      2.73164      4.86532        -0.024166      0.023305      0.001836
     11.86943      4.25741      2.84734         0.005046     -0.016881     -0.023870
      2.48289      1.92464      2.85312        -0.024273      0.003390      0.004872
     11.85493      5.78777      0.92942        -0.007855      0.024862      0.002694
      6.57689      5.84104      0.99111         0.011991      0.002128     -0.007834
      7.99191      6.64267      2.86446         0.013460     -0.001174     -0.019572
      6.54439      4.21089      2.82135        -0.022031      0.004213      0.019274
     10.57617      3.54439      7.03127         0.009140      0.003285     -0.010246
     10.54163      3.50860      0.91916        -0.011068     -0.011871      0.012347
     10.57208      0.50548      4.87385        -0.022439     -0.005655     -0.036970
      9.21999      7.42016      4.95848         0.013789     -0.001203     -0.048443
      6.61478      7.43446      4.94584         0.019872     -0.035277      0.024039
      5.12149      0.26726      4.90165        -0.007379      0.007497      0.004178
      4.52129      5.54359     10.48978        -0.013766      0.008002      0.023417
 -----------------------------------------------------------------------------------
    total drift:                               -0.033641      0.032215      0.023055


--------------------------------------------------------------------------------------------------------



  FREE ENERGIE OF THE ION-ELECTRON SYSTEM (eV)
  ---------------------------------------------------
  free  energy   TOTEN  =      -509.11895847 eV

  energy  without entropy=     -509.13714385  energy(sigma->0) =     -509.12502026
 
 d Force = 0.2248009E-02[ 0.567E-03, 0.393E-02]  d Energy = 0.2189538E-02 0.585E-04
 d Force = 0.8592861E+02[ 0.859E+02, 0.859E+02]  d Ewald  = 0.8592864E+02-0.312E-04


--------------------------------------------------------------------------------------------------------


    POTLOK:  cpu time    0.4777: real time    0.5203


--------------------------------------------------------------------------------------------------------


 Conjugate gradient step on ions:
 trial-energy change:   -0.002190  1 .order   -0.002248   -0.003929   -0.000567
  (g-gl).g = 0.248E-02      g.g   = 0.242E-02  gl.gl    = 0.502E-02
 g(Force)  = 0.242E-02   g(Stress)= 0.000E+00 ortho     =-0.911E-04
 gamma     =   0.49390
 trial     =   1.65290
 opt step  =   1.97108  (harmonic =   1.93149) maximal distance =0.01506384
 next E    =  -509.119013   (d E  =  -0.00224)


--------------------------------------------------------------------------------------------------------


  
 reached required accuracy - stopping structural energy minimisation
     LOOP+:  cpu time  772.2892: real time  778.1545
    4ORBIT:  cpu time    0.0000: real time    0.0000

 total amount of memory used by VASP MPI-rank0   233092. kBytes
=======================================================================

   base      :      30000. kBytes
   nonlr-proj:      33407. kBytes
   fftplans  :      16137. kBytes
   grid      :      49182. kBytes
   one-center:        653. kBytes
   wavefun   :     103713. kBytes
 
  
  
 General timing and accounting informations for this job:
 ========================================================
  
                  Total CPU time used (sec):    16948.676
                            User time (sec):    16453.858
                          System time (sec):      494.817
                         Elapsed time (sec):    17071.939
  
                   Maximum memory used (kb):      397552.
                   Average memory used (kb):           0.
  
                          Minor page faults:     17774207
                          Major page faults:          195
                 Voluntary context switches:        11436
