 vasp.5.4.4.18Apr17-6-g9f103f2a35 (build Oct 25 2019 11:13:22) complex          
  
 executed on             LinuxIFC date 2022.02.12  01:14:48
 running on   48 total cores
 distrk:  each k-point on   48 cores,    1 groups
 distr:  one band on NCORES_PER_BAND=   4 cores,   12 groups


--------------------------------------------------------------------------------------------------------


 INCAR:
 POTCAR:    PAW_PBE Pt 04Feb2005                  
 POTCAR:    PAW_PBE Fe 06Sep2000                  
 POTCAR:    PAW_PBE Co 02Aug2007                  
 POTCAR:    PAW_PBE Ni 02Aug2007                  
 POTCAR:    PAW_PBE H 15Jun2001                   
 POTCAR:    PAW_PBE Pt 04Feb2005                  
   VRHFIN =Pt: s1d9                                                             
   LEXCH  = PE                                                                  
   EATOM  =   729.1176 eV,   53.5886 Ry                                         
                                                                                
   TITEL  = PAW_PBE Pt 04Feb2005                                                
   LULTRA =        F    use ultrasoft PP ?                                      
   IUNSCR =        1    unscreen: 0-lin 1-nonlin 2-no                           
   RPACOR =    2.330    partial core radius                                     
   POMASS =  195.080; ZVAL   =   10.000    mass and valenz                      
   RCORE  =    2.600    outmost cutoff radius                                   
   RWIGS  =    2.750; RWIGS  =    1.455    wigner-seitz radius (au A)           
   ENMAX  =  230.283; ENMIN  =  172.712 eV                                      
   ICORE  =        3    local potential                                         
   LCOR   =        T    correct aug charges                                     
   LPAW   =        T    paw PP                                                  
   EAUG   =  358.966                                                            
   DEXC   =    0.000                                                            
   RMAX   =    2.658    core radius for proj-oper                               
   RAUG   =    1.300    factor for augmentation sphere                          
   RDEP   =    2.761    radius for radial grids                                 
   RDEPT  =    2.203    core radius for aug-charge                              
                                                                                
   Atomic configuration                                                         
   16 entries                                                                   
     n  l   j            E        occ.                                          
     1  0  0.50    -78401.1885   2.0000                                         
     2  0  0.50    -13770.7750   2.0000                                         
     2  1  1.50    -11931.0468   6.0000                                         
     3  0  0.50     -3234.7234   2.0000                                         
     3  1  1.50     -2699.2216   6.0000                                         
     3  2  2.50     -2119.5714  10.0000                                         
     4  0  0.50      -695.1528   2.0000                                         
     4  1  1.50      -519.6034   6.0000                                         
     4  2  2.50      -306.6786  10.0000                                         
     4  3  3.50       -70.1041  14.0000                                         
     5  0  0.50      -101.7747   2.0000                                         
     5  1  1.50       -55.9873   6.0000                                         
     5  2  2.50        -6.1423   9.0000                                         
     6  0  0.50        -5.6573   1.0000                                         
     6  1  1.50        -6.8029   0.0000                                         
     5  3  2.50        -1.3606   0.0000                                         
   Description                                                                  
     l       E           TYP  RCUT    TYP  RCUT                                 
     2     -6.1423404     23  2.500                                             
     2     -7.5029230     23  2.500                                             
     0     -5.6573207     23  2.500                                             
     0      0.7416693     23  2.500                                             
     1     -2.7211652     23  2.600                                             
     1     20.4087390     23  2.600                                             
     3     -1.3605826     23  2.500                                             
  local pseudopotential read in
  partial core-charges read in
  partial kinetic energy density read in
  atomic valenz-charges read in
  non local Contribution for L=           2  read in
    real space projection operators read in
  non local Contribution for L=           2  read in
    real space projection operators read in
  non local Contribution for L=           0  read in
    real space projection operators read in
  non local Contribution for L=           0  read in
    real space projection operators read in
  non local Contribution for L=           1  read in
    real space projection operators read in
  non local Contribution for L=           1  read in
    real space projection operators read in
    PAW grid and wavefunctions read in
 
   number of l-projection  operators is LMAX  =           6
   number of lm-projection operators is LMMAX =          18
 
 POTCAR:    PAW_PBE Fe 06Sep2000                  
   VRHFIN =Fe:  d7 s1                                                           
   LEXCH  = PE                                                                  
   EATOM  =   594.3153 eV,   43.6809 Ry                                         
                                                                                
   TITEL  = PAW_PBE Fe 06Sep2000                                                
   LULTRA =        F    use ultrasoft PP ?                                      
   IUNSCR =        1    unscreen: 0-lin 1-nonlin 2-no                           
   RPACOR =    2.000    partial core radius                                     
   POMASS =   55.847; ZVAL   =    8.000    mass and valenz                      
   RCORE  =    2.300    outmost cutoff radius                                   
   RWIGS  =    2.460; RWIGS  =    1.302    wigner-seitz radius (au A)           
   ENMAX  =  267.882; ENMIN  =  200.911 eV                                      
   RCLOC  =    1.701    cutoff for local pot                                    
   LCOR   =        T    correct aug charges                                     
   LPAW   =        T    paw PP                                                  
   EAUG   =  511.368                                                            
   DEXC   =    0.000                                                            
   RMAX   =    2.356    core radius for proj-oper                               
   RAUG   =    1.300    factor for augmentation sphere                          
   RDEP   =    2.442    radius for radial grids                                 
   RDEPT  =    1.890    core radius for aug-charge                              
                                                                                
   Atomic configuration                                                         
    9 entries                                                                   
     n  l   j            E        occ.                                          
     1  0  0.50     -6993.8440   2.0000                                         
     2  0  0.50      -814.6047   2.0000                                         
     2  1  1.50      -693.3689   6.0000                                         
     3  0  0.50       -89.4732   2.0000                                         
     3  1  1.50       -55.6373   6.0000                                         
     3  2  2.50        -3.8151   7.0000                                         
     4  0  0.50        -4.2551   1.0000                                         
     4  1  1.50        -3.4015   0.0000                                         
     4  3  2.50        -1.3606   0.0000                                         
   Description                                                                  
     l       E           TYP  RCUT    TYP  RCUT                                 
     2     -3.8151135     23  2.300                                             
     2     -5.1756961     23  2.300                                             
     0     -4.2550963     23  2.300                                             
     0      7.2035603     23  2.300                                             
     1     -2.7211652     23  2.300                                             
     1     18.4316424     23  2.300                                             
  local pseudopotential read in
  partial core-charges read in
  partial kinetic energy density read in
  atomic valenz-charges read in
  non local Contribution for L=           2  read in
    real space projection operators read in
  non local Contribution for L=           2  read in
    real space projection operators read in
  non local Contribution for L=           0  read in
    real space projection operators read in
  non local Contribution for L=           0  read in
    real space projection operators read in
  non local Contribution for L=           1  read in
    real space projection operators read in
  non local Contribution for L=           1  read in
    real space projection operators read in
    PAW grid and wavefunctions read in
 
   number of l-projection  operators is LMAX  =           6
   number of lm-projection operators is LMMAX =          18
 
 POTCAR:    PAW_PBE Co 02Aug2007                  
   VRHFIN =Co: d8 s1                                                            
   LEXCH  = PE                                                                  
   EATOM  =   813.3670 eV,   59.7808 Ry                                         
                                                                                
   TITEL  = PAW_PBE Co 02Aug2007                                                
   LULTRA =        F    use ultrasoft PP ?                                      
   IUNSCR =        1    unscreen: 0-lin 1-nonlin 2-no                           
   RPACOR =    2.000    partial core radius                                     
   POMASS =   58.933; ZVAL   =    9.000    mass and valenz                      
   RCORE  =    2.300    outmost cutoff radius                                   
   RWIGS  =    2.460; RWIGS  =    1.302    wigner-seitz radius (au A)           
   ENMAX  =  267.968; ENMIN  =  200.976 eV                                      
   RCLOC  =    1.203    cutoff for local pot                                    
   LCOR   =        T    correct aug charges                                     
   LPAW   =        T    paw PP                                                  
   EAUG   =  477.818                                                            
   DEXC   =    0.000                                                            
   RMAX   =    2.360    core radius for proj-oper                               
   RAUG   =    1.300    factor for augmentation sphere                          
   RDEP   =    2.393    radius for radial grids                                 
   RDEPT  =    1.864    core radius for aug-charge                              
                                                                                
   Atomic configuration                                                         
    9 entries                                                                   
     n  l   j            E        occ.                                          
     1  0  0.50     -7587.6674   2.0000                                         
     2  0  0.50      -893.6084   2.0000                                         
     2  1  1.50      -764.5805   6.0000                                         
     3  0  0.50       -97.5973   2.0000                                         
     3  1  1.50       -60.9648   6.0000                                         
     3  2  2.50        -4.2382   8.0000                                         
     4  0  0.50        -4.3746   1.0000                                         
     4  1  1.50        -4.0817   0.0000                                         
     4  3  2.50        -1.3606   0.0000                                         
   Description                                                                  
     l       E           TYP  RCUT    TYP  RCUT                                 
     2     -4.2382362     23  2.300                                             
     2     -5.5988188     23  2.300                                             
     0     -4.3745797     23  2.300                                             
     0      5.7660125     23  2.300                                             
     1     -2.7211652     23  2.300                                             
     1     16.9860234     23  2.300                                             
  local pseudopotential read in
  partial core-charges read in
  partial kinetic energy density read in
  atomic valenz-charges read in
  non local Contribution for L=           2  read in
    real space projection operators read in
  non local Contribution for L=           2  read in
    real space projection operators read in
  non local Contribution for L=           0  read in
    real space projection operators read in
  non local Contribution for L=           0  read in
    real space projection operators read in
  non local Contribution for L=           1  read in
    real space projection operators read in
  non local Contribution for L=           1  read in
    real space projection operators read in
    PAW grid and wavefunctions read in
 
   number of l-projection  operators is LMAX  =           6
   number of lm-projection operators is LMMAX =          18
 
 POTCAR:    PAW_PBE Ni 02Aug2007                  
   VRHFIN =Ni:                                                                  
   LEXCH  = PE                                                                  
   EATOM  =  1077.6739 eV,   79.2068 Ry                                         
                                                                                
   TITEL  = PAW_PBE Ni 02Aug2007                                                
   LULTRA =        F    use ultrasoft PP ?                                      
   IUNSCR =        1    unscreen: 0-lin 1-nonlin 2-no                           
   RPACOR =    2.000    partial core radius                                     
   POMASS =   58.690; ZVAL   =   10.000    mass and valenz                      
   RCORE  =    2.300    outmost cutoff radius                                   
   RWIGS  =    2.430; RWIGS  =    1.286    wigner-seitz radius (au A)           
   ENMAX  =  269.532; ENMIN  =  202.149 eV                                      
   RCLOC  =    1.201    cutoff for local pot                                    
   LCOR   =        T    correct aug charges                                     
   LPAW   =        T    paw PP                                                  
   EAUG   =  544.565                                                            
   DEXC   =    0.000                                                            
   RMAX   =    2.357    core radius for proj-oper                               
   RAUG   =    1.300    factor for augmentation sphere                          
   RDEP   =    2.390    radius for radial grids                                 
   RDEPT  =    1.838    core radius for aug-charge                              
                                                                                
   Atomic configuration                                                         
    9 entries                                                                   
     n  l   j            E        occ.                                          
     1  0  0.50     -8206.4253   2.0000                                         
     2  0  0.50      -976.1748   2.0000                                         
     2  1  1.50      -839.0571   6.0000                                         
     3  0  0.50      -105.9991   2.0000                                         
     3  1  1.50       -66.4603   6.0000                                         
     3  2  2.50        -4.6458   9.0000                                         
     4  0  0.50        -4.4926   1.0000                                         
     4  1  1.50        -4.0817   0.0000                                         
     4  3  2.50        -1.3606   0.0000                                         
   Description                                                                  
     l       E           TYP  RCUT    TYP  RCUT                                 
     2     -4.6457903     23  2.300                                             
     2     -6.0063729     23  2.300                                             
     0     -4.4925590     23  2.300                                             
     0      5.0102601     23  2.300                                             
     1     -2.7211652     23  2.300                                             
     1     16.5183231     23  2.300                                             
  local pseudopotential read in
  partial core-charges read in
  partial kinetic energy density read in
  atomic valenz-charges read in
  non local Contribution for L=           2  read in
    real space projection operators read in
  non local Contribution for L=           2  read in
    real space projection operators read in
  non local Contribution for L=           0  read in
    real space projection operators read in
  non local Contribution for L=           0  read in
    real space projection operators read in
  non local Contribution for L=           1  read in
    real space projection operators read in
  non local Contribution for L=           1  read in
    real space projection operators read in
    PAW grid and wavefunctions read in
 
   number of l-projection  operators is LMAX  =           6
   number of lm-projection operators is LMMAX =          18
 
 POTCAR:    PAW_PBE H 15Jun2001                   
   VRHFIN =H: ultrasoft test                                                    
   LEXCH  = PE                                                                  
   EATOM  =    12.4884 eV,    0.9179 Ry                                         
                                                                                
   TITEL  = PAW_PBE H 15Jun2001                                                 
   LULTRA =        F    use ultrasoft PP ?                                      
   IUNSCR =        0    unscreen: 0-lin 1-nonlin 2-no                           
   RPACOR =    0.000    partial core radius                                     
   POMASS =    1.000; ZVAL   =    1.000    mass and valenz                      
   RCORE  =    1.100    outmost cutoff radius                                   
   RWIGS  =    0.700; RWIGS  =    0.370    wigner-seitz radius (au A)           
   ENMAX  =  250.000; ENMIN  =  200.000 eV                                      
   RCLOC  =    0.701    cutoff for local pot                                    
   LCOR   =        T    correct aug charges                                     
   LPAW   =        T    paw PP                                                  
   EAUG   =  400.000                                                            
   RMAX   =    1.123    core radius for proj-oper                               
   RAUG   =    1.200    factor for augmentation sphere                          
   RDEP   =    1.112    radius for radial grids                                 
   RDEPT  =    0.926    core radius for aug-charge                              
                                                                                
   Atomic configuration                                                         
    2 entries                                                                   
     n  l   j            E        occ.                                          
     1  0  0.50        -6.4927   1.0000                                         
     2  1  0.50        -3.4015   0.0000                                         
   Description                                                                  
     l       E           TYP  RCUT    TYP  RCUT                                 
     0     -6.4927494     23  1.100                                             
     0      6.8029130     23  1.100                                             
     1     -4.0817478     23  1.100                                             
  local pseudopotential read in
  atomic valenz-charges read in
  non local Contribution for L=           0  read in
    real space projection operators read in
  non local Contribution for L=           0  read in
    real space projection operators read in
  non local Contribution for L=           1  read in
    real space projection operators read in
    PAW grid and wavefunctions read in
 
   number of l-projection  operators is LMAX  =           3
   number of lm-projection operators is LMMAX =           5
 
 Optimization of the real space projectors (new method)

 maximal supplied QI-value         = 14.36
 optimisation between [QCUT,QGAM] = [ 11.92, 23.98] = [ 39.79,161.09] Ry 
 Optimized for a Real-space Cutoff    1.49 Angstroem

   l    n(q)    QCUT    max X(q) W(low)/X(q) W(high)/X(q)  e(spline) 
   2     10    11.920    66.195    0.79E-04    0.18E-03    0.24E-06
   2     10    11.920    64.643    0.81E-04    0.19E-03    0.24E-06
   0     11    11.920    95.520    0.28E-04    0.54E-04    0.18E-06
   0     11    11.920    63.403    0.27E-04    0.52E-04    0.17E-06
   1     10    11.920    19.961    0.18E-04    0.11E-03    0.23E-06
   1     10    11.920    13.289    0.25E-04    0.87E-04    0.19E-06
 Optimization of the real space projectors (new method)

 maximal supplied QI-value         = 16.25
 optimisation between [QCUT,QGAM] = [ 11.86, 23.89] = [ 39.41,159.82] Ry 
 Optimized for a Real-space Cutoff    1.49 Angstroem

   l    n(q)    QCUT    max X(q) W(low)/X(q) W(high)/X(q)  e(spline) 
   2     10    11.864    80.901    0.13E-03    0.23E-03    0.37E-06
   2     10    11.864    75.754    0.13E-03    0.23E-03    0.38E-06
   0     11    11.864    58.752    0.44E-04    0.11E-04    0.20E-06
   0     11    11.864    30.679    0.36E-04    0.10E-04    0.18E-06
   1     10    11.864    17.977    0.31E-04    0.45E-04    0.10E-06
   1     10    11.864    13.559    0.25E-04    0.37E-04    0.89E-07
 Optimization of the real space projectors (new method)

 maximal supplied QI-value         = 16.25
 optimisation between [QCUT,QGAM] = [ 11.86, 23.89] = [ 39.41,159.82] Ry 
 Optimized for a Real-space Cutoff    1.33 Angstroem

   l    n(q)    QCUT    max X(q) W(low)/X(q) W(high)/X(q)  e(spline) 
   2      9    11.864    65.824    0.22E-03    0.53E-03    0.26E-06
   2      9    11.864    61.429    0.22E-03    0.53E-03    0.26E-06
   0      9    11.864    56.174    0.21E-03    0.32E-04    0.15E-06
   0      9    11.864    31.263    0.19E-03    0.30E-04    0.14E-06
   1      9    11.864    19.828    0.63E-04    0.30E-03    0.16E-06
   1      9    11.864    15.139    0.49E-04    0.25E-03    0.13E-06
 Optimization of the real space projectors (new method)

 maximal supplied QI-value         = 16.25
 optimisation between [QCUT,QGAM] = [ 11.86, 23.89] = [ 39.41,159.82] Ry 
 Optimized for a Real-space Cutoff    1.33 Angstroem

   l    n(q)    QCUT    max X(q) W(low)/X(q) W(high)/X(q)  e(spline) 
   2      9    11.864    60.317    0.21E-03    0.51E-03    0.25E-06
   2      9    11.864    55.921    0.21E-03    0.51E-03    0.26E-06
   0      9    11.864    51.690    0.22E-03    0.30E-04    0.17E-06
   0      9    11.864    30.015    0.20E-03    0.28E-04    0.15E-06
   1      9    11.864    18.849    0.76E-04    0.33E-03    0.17E-06
   1      9    11.864    14.624    0.60E-04    0.28E-03    0.15E-06
 Optimization of the real space projectors (new method)

 maximal supplied QI-value         = 34.20
 optimisation between [QCUT,QGAM] = [ 11.97, 23.94] = [ 40.13,160.53] Ry 
 Optimized for a Real-space Cutoff    1.18 Angstroem

   l    n(q)    QCUT    max X(q) W(low)/X(q) W(high)/X(q)  e(spline) 
   0      8    11.971    19.460    0.15E-03    0.31E-03    0.25E-06
   0      8    11.971    12.209    0.13E-03    0.29E-03    0.25E-06
   1      8    11.971     4.655    0.22E-03    0.24E-03    0.21E-06
  PAW_PBE Pt 04Feb2005                  :
 energy of atom  1       EATOM= -729.1176
 kinetic energy error for atom=    0.0021 (will be added to EATOM!!)
  PAW_PBE Fe 06Sep2000                  :
 energy of atom  2       EATOM= -594.3153
 kinetic energy error for atom=    0.0024 (will be added to EATOM!!)
  PAW_PBE Co 02Aug2007                  :
 energy of atom  3       EATOM= -813.3670
 kinetic energy error for atom=    0.0026 (will be added to EATOM!!)
  PAW_PBE Ni 02Aug2007                  :
 energy of atom  4       EATOM=-1077.6739
 kinetic energy error for atom=    0.0027 (will be added to EATOM!!)
  PAW_PBE H 15Jun2001                   :
 energy of atom  5       EATOM=  -12.4884
 kinetic energy error for atom=    0.0008 (will be added to EATOM!!)
 
 
 POSCAR: 11.26                                   
  positions in direct lattice
  velocities in cartesian coordinates
 exchange correlation table for  LEXCH =        8
   RHO(1)=    0.500       N(1)  =     2000
   RHO(2)=  100.500       N(2)  =     4000
 


--------------------------------------------------------------------------------------------------------


 ion  position               nearest neighbor table
   1  0.783  0.870  0.304-  52 2.53  59 2.56  28 2.70  19 2.74   2 2.76  61 2.77   4 2.79  29 2.79
                            60 2.81  33 2.81  11 2.86  12 2.86
   2  0.029  0.871  0.301-  79 2.51  77 2.53   1 2.76  30 2.77  33 2.80   4 2.80  28 2.81  60 2.85
                             6 2.86  16 2.95  22 2.95
   3  0.281  0.360  0.311-  64 2.53  68 2.61  31 2.64   5 2.73  43 2.74  13 2.77  39 2.78  25 2.79
                            30 2.79  19 2.84  33 2.85  18 2.92
   4  0.866  0.958  0.406-  60 2.60  17 2.75   9 2.76  11 2.78   1 2.79   2 2.80  12 2.83  16 2.87
                             6 2.87
   5  0.111  0.457  0.410-  81 2.15  39 2.62  33 2.69  12 2.73   3 2.73  16 2.73   7 2.78  10 2.79
                            25 2.88  13 2.89
   6  0.125  0.952  0.405-  55 2.68  22 2.73  14 2.80  10 2.81   9 2.83   8 2.83   2 2.86   4 2.87
                            16 2.90
   7  0.869  0.447  0.411-  39 2.59  75 2.66  29 2.73   9 2.74  15 2.75   5 2.78  10 2.80  27 2.85
                            12 2.89
   8  0.375  0.954  0.417-  55 2.51  43 2.60  61 2.69  13 2.76  11 2.77  27 2.77  10 2.82   6 2.83
                            14 2.88
   9  0.871  0.202  0.406-  75 2.58  60 2.65   7 2.74  17 2.76   4 2.76  22 2.79  15 2.82   6 2.83
                            10 2.84
  10  0.123  0.203  0.411-  81 1.52  43 2.63  39 2.64  22 2.74  13 2.78   5 2.79   7 2.80   6 2.81
                             8 2.82   9 2.84
  11  0.625  0.947  0.413-  61 2.64  19 2.72  12 2.75  27 2.76   8 2.77   4 2.78  13 2.85   1 2.86
                            17 2.88
  12  0.871  0.703  0.411-  29 2.68  33 2.71  16 2.73   5 2.73  11 2.75  27 2.82   4 2.83   1 2.86
                             7 2.89
  13  0.371  0.202  0.415-  81 1.96  43 2.64   8 2.76  19 2.77   3 2.77  10 2.78  25 2.79  17 2.85
                            11 2.85   5 2.89
  14  0.372  0.700  0.404-  44 2.52  55 2.59  15 2.77  25 2.80   6 2.80  27 2.81  30 2.84  16 2.88
                             8 2.88
  15  0.620  0.455  0.408-  75 2.62  44 2.62   7 2.75  14 2.77  18 2.77  17 2.79  27 2.80  25 2.81
                             9 2.82
  16  0.117  0.698  0.411-  33 2.71  30 2.72  12 2.73   5 2.73  25 2.82   4 2.87  14 2.88   6 2.90
                             2 2.95
  17  0.624  0.205  0.411-  60 2.61   4 2.75  19 2.76   9 2.76  18 2.76  15 2.79  25 2.79  13 2.85
                            11 2.88
  18  0.539  0.365  0.307-  67 2.51  68 2.60  26 2.68  60 2.69  25 2.76  17 2.76  15 2.77  75 2.79
                            19 2.85   3 2.92  30 2.94  44 3.01
  19  0.538  0.112  0.313-  68 2.49  80 2.53  59 2.55  43 2.69  61 2.70  11 2.72  60 2.74   1 2.74
                            17 2.76  13 2.77   3 2.84  18 2.85
  20  0.538  0.117  0.053-  47 2.51  37 2.56  51 2.64  63 2.67  50 2.71  62 2.73  34 2.74  46 2.79
                            45 2.87
  21  0.106  0.420  0.118-  40 2.50  36 2.51  50 2.54  70 2.60  47 2.66  42 2.66  64 2.70  69 2.71
                            31 2.79  53 3.03
  22  0.049  0.123  0.306-  77 2.51  65 2.52  58 2.54  39 2.69   6 2.73  10 2.74  43 2.76   9 2.79
                            75 2.86  55 2.92   2 2.95  60 3.07  31 3.27
  23  0.025  0.110  0.043-  40 2.54  41 2.55  70 2.56  35 2.67  62 2.71  24 2.74  56 2.77  76 2.83
                            45 2.93
  24  0.117  0.952  0.146-  79 2.49  35 2.51  70 2.62  77 2.62  58 2.62  56 2.64  48 2.66  73 2.70
                            66 2.72  23 2.74  41 2.84  38 2.93
  25  0.372  0.450  0.409-  18 2.76  30 2.78   3 2.79  17 2.79  13 2.79  14 2.80  15 2.81  16 2.82
                             5 2.88
  26  0.451  0.562  0.222-  73 2.52  74 2.53  54 2.55  79 2.59  30 2.62  44 2.62  32 2.67  18 2.68
                            78 2.68  67 2.98  48 2.99
  27  0.620  0.704  0.413-  44 2.55  61 2.65  11 2.76   8 2.77  29 2.79  15 2.80  14 2.81  12 2.82
                             7 2.85
  28  0.949  0.756  0.207-  48 2.55  53 2.56  66 2.63  42 2.65  33 2.65   1 2.70  64 2.70   2 2.81
                            52 2.85  36 2.90  59 3.15
  29  0.797  0.616  0.313-  42 2.58  52 2.59  32 2.62  39 2.67  12 2.68  33 2.68   7 2.73  44 2.79
                             1 2.79  27 2.79  75 2.85  61 2.89
  30  0.266  0.616  0.306-  79 2.51  33 2.58  26 2.62  64 2.70  16 2.72   2 2.77  25 2.78   3 2.79
                            14 2.84  18 2.94  44 3.19  55 3.29
  31  0.191  0.261  0.224-  70 2.48  58 2.52  47 2.57  39 2.61  43 2.61   3 2.64  65 2.68  64 2.74
                            21 2.79  80 2.81  42 2.83  68 3.00  22 3.27
  32  0.700  0.539  0.222-  69 2.53  54 2.60  44 2.62  29 2.62  75 2.63  57 2.63  65 2.66  26 2.67
                            52 2.68  42 2.70  67 2.73  78 2.76
  33  0.034  0.620  0.311-  64 2.55  30 2.58  28 2.65  29 2.68   5 2.69  16 2.71  12 2.71  42 2.73
                             2 2.80   1 2.81  39 2.82   3 2.85
  34  0.791  0.885  0.059-  51 2.33  66 2.39  53 2.60  62 2.68  35 2.73  20 2.74  36 2.75  63 2.89

  35  0.043  0.865  0.057-  36 2.40  24 2.51  66 2.52  23 2.67  34 2.73  48 2.84  72 2.85  56 2.85
                            62 3.00
  36  0.042  0.658  0.084-  48 2.40  35 2.40  53 2.47  21 2.51  72 2.75  34 2.75  28 2.90
  37  0.624  0.211  0.138-  59 2.38  62 2.40  67 2.45  46 2.46  68 2.48  74 2.55  20 2.56  66 2.66
                            41 2.68  54 2.71  47 2.99  51 3.04
  38  0.377  0.954  0.136-  63 2.36  45 2.39  56 2.40  58 2.42  80 2.45  73 2.50  78 2.54  57 2.61
                            47 2.77  70 2.82  51 2.87  24 2.93
  39  0.028  0.372  0.317-   7 2.59  65 2.61  31 2.61   5 2.62  42 2.64  10 2.64  29 2.67  22 2.69
                            75 2.74   3 2.78  33 2.82  43 3.01
  40  0.983  0.354  0.043-  69 2.31  76 2.42  21 2.50  23 2.54  70 2.62  71 2.63  45 3.12
  41  0.866  0.206  0.135-  77 2.42  76 2.43  67 2.44  62 2.46  65 2.52  23 2.55  69 2.55  66 2.57
                            70 2.65  37 2.68  24 2.84  54 2.87
  42  0.948  0.521  0.217-  53 2.52  69 2.54  64 2.55  65 2.57  29 2.58  39 2.64  28 2.65  21 2.66
                            32 2.70  33 2.73  31 2.83  52 2.97
  43  0.300  0.108  0.320-  58 2.48  55 2.49   8 2.60  31 2.61  80 2.61  10 2.63  13 2.64  61 2.65
                            19 2.69   3 2.74  22 2.76  39 3.01
  44  0.541  0.631  0.318-  14 2.52  78 2.55  27 2.55  32 2.62  15 2.62  26 2.62  55 2.64  61 2.67
                            29 2.79  75 2.86  18 3.01  30 3.19
  45  0.285  0.111  0.053-  38 2.39  70 2.47  47 2.48  56 2.53  63 2.71  20 2.87  23 2.93  40 3.12

  46  0.535  0.367  0.050-  54 2.40  50 2.43  37 2.46  74 2.47  76 2.54  62 2.67  72 2.72  20 2.79
                            49 2.82
  47  0.359  0.209  0.135-  50 2.40  68 2.41  45 2.48  20 2.51  31 2.57  80 2.60  21 2.66  74 2.74
                            38 2.77  70 2.92  37 2.99
  48  0.180  0.691  0.158-  79 2.40  36 2.40  72 2.41  64 2.41  73 2.49  28 2.55  24 2.66  74 2.70
                            35 2.84  26 2.99
  49  0.521  0.625  0.052-  54 2.35  73 2.38  71 2.44  57 2.44  72 2.53  56 2.78  46 2.82  76 2.90
                            63 2.95
  50  0.315  0.374  0.056-  74 2.35  47 2.40  46 2.43  21 2.54  72 2.65  20 2.71
  51  0.642  0.932  0.141-  34 2.33  52 2.34  63 2.45  59 2.53  53 2.55  80 2.56  20 2.64  57 2.67
                            66 2.78  38 2.87  37 3.04
  52  0.683  0.786  0.223-  51 2.34  78 2.41  57 2.48  61 2.52   1 2.53  53 2.55  29 2.59  80 2.65
                            32 2.68  28 2.85  42 2.97  59 3.12
  53  0.830  0.681  0.129-  57 2.36  71 2.40  36 2.47  42 2.52  52 2.55  51 2.55  28 2.56  69 2.59
                            34 2.60  21 3.03
  54  0.609  0.460  0.130-  49 2.35  46 2.40  76 2.41  26 2.55  74 2.58  32 2.60  67 2.61  69 2.68
                            37 2.71  57 2.86  41 2.87  73 2.88
  55  0.319  0.878  0.319-  79 2.38  58 2.38  61 2.42  78 2.48  43 2.49   8 2.51  14 2.59  44 2.64
                             6 2.68  22 2.92  30 3.29
  56  0.287  0.884  0.053-  73 2.35  38 2.40  45 2.53  24 2.64  63 2.77  23 2.77  49 2.78  35 2.85
                            72 2.94
  57  0.603  0.717  0.132-  63 2.31  53 2.36  71 2.42  49 2.44  52 2.48  78 2.49  73 2.50  38 2.61
                            32 2.63  51 2.67  54 2.86  69 3.01
  58  0.244  0.015  0.229-  55 2.38  79 2.41  38 2.42  43 2.48  78 2.48  80 2.49  31 2.52  22 2.54
                            24 2.62  70 2.74
  59  0.698  0.057  0.222-  37 2.38  66 2.44  60 2.45  68 2.52  51 2.53  19 2.55   1 2.56  77 2.59
                            67 2.70  80 2.86  52 3.12  28 3.15
  60  0.776  0.123  0.313-  77 2.37  59 2.45  67 2.59   4 2.60  17 2.61   9 2.65  18 2.69  19 2.74
                            75 2.80   1 2.81   2 2.85  22 3.07
  61  0.537  0.871  0.318-  55 2.42  78 2.47  52 2.52  80 2.58  11 2.64  27 2.65  43 2.65  44 2.67
                             8 2.69  19 2.70   1 2.77  29 2.89
  62  0.774  0.130  0.051-  37 2.40  66 2.45  41 2.46  76 2.49  46 2.67  34 2.68  23 2.71  20 2.73
                            35 3.00
  63  0.536  0.880  0.055-  57 2.31  38 2.36  51 2.45  20 2.67  45 2.71  56 2.77  34 2.89  71 2.92
                            49 2.95
  64  0.181  0.510  0.217-  48 2.41   3 2.53  33 2.55  42 2.55  74 2.65  30 2.70  21 2.70  28 2.70
                            31 2.74  68 2.96
  65  0.935  0.300  0.224-  69 2.43  75 2.46  22 2.52  41 2.52  42 2.57  67 2.58  39 2.61  70 2.62
                            77 2.66  32 2.66  31 2.68
  66  0.864  0.977  0.139-  34 2.39  77 2.43  59 2.44  62 2.45  35 2.52  41 2.57  28 2.63  37 2.66
                            24 2.72  51 2.78
  67  0.710  0.290  0.222-  77 2.42  41 2.44  37 2.45  75 2.51  18 2.51  65 2.58  60 2.59  54 2.61
                            59 2.70  32 2.73  26 2.98  68 3.01
  68  0.458  0.262  0.221-  47 2.41  74 2.41  37 2.48  19 2.49  59 2.52  80 2.60  18 2.60   3 2.61
                            64 2.96  31 3.00  67 3.01
  69  0.858  0.437  0.131-  40 2.31  71 2.39  65 2.43  76 2.50  32 2.53  42 2.54  41 2.55  53 2.59
                            54 2.68  21 2.71  70 2.81  57 3.01
  70  0.110  0.188  0.134-  45 2.47  31 2.48  23 2.56  21 2.60  24 2.62  65 2.62  40 2.62  41 2.65
                            58 2.74  69 2.81  38 2.82  47 2.92
  71  0.753  0.592  0.048-  69 2.39  53 2.40  57 2.42  49 2.44  76 2.57  40 2.63  63 2.92
  72  0.302  0.616  0.063-  48 2.41  73 2.46  74 2.50  49 2.53  50 2.65  46 2.72  36 2.75  35 2.85
                            56 2.94
  73  0.373  0.733  0.136-  56 2.35  49 2.38  72 2.46  78 2.49  48 2.49  57 2.50  38 2.50  26 2.52
                            79 2.55  24 2.70  54 2.88
  74  0.394  0.434  0.143-  50 2.35  68 2.41  46 2.47  72 2.50  26 2.53  37 2.55  54 2.58  64 2.65
                            48 2.70  47 2.74
  75  0.786  0.367  0.314-  65 2.46  67 2.51   9 2.58  15 2.62  32 2.63   7 2.66  39 2.74  18 2.79
                            60 2.80  29 2.85  22 2.86  44 2.86
  76  0.767  0.355  0.047-  54 2.41  40 2.42  41 2.43  62 2.49  69 2.50  46 2.54  71 2.57  23 2.83
                            49 2.90
  77  0.921  0.071  0.227-  60 2.37  67 2.42  41 2.42  66 2.43  22 2.51   2 2.53  59 2.59  24 2.62
                            65 2.66
  78  0.465  0.793  0.227-  52 2.41  61 2.47  55 2.48  58 2.48  73 2.49  57 2.49  79 2.51  38 2.54
                            44 2.55  80 2.62  26 2.68  32 2.76
  79  0.237  0.804  0.236-  55 2.38  48 2.40  58 2.41  24 2.49  78 2.51   2 2.51  30 2.51  73 2.55
                            26 2.59
  80  0.457  0.030  0.223-  38 2.45  58 2.49  19 2.53  51 2.56  61 2.58  68 2.60  47 2.60  43 2.61
                            78 2.62  52 2.65  31 2.81  59 2.86
  81  0.191  0.260  0.452-  10 1.52  13 1.96   5 2.15
 
  LATTYP: Found a hexagonal cell.
 ALAT       =    11.2227001190
 C/A-ratio  =     1.9603125600
  
  Lattice vectors:
  
 A1 = (   5.6113500595,  -9.7191434021,   0.0000000000)
 A2 = ( -11.2227001190,   0.0000000000,   0.0000000000)
 A3 = (   0.0000000000,   0.0000000000, -22.0000000000)


Analysis of symmetry for initial positions (statically):
=====================================================================
 Subroutine PRICEL returns:
 Original cell was already a primitive cell.
 

 Routine SETGRP: Setting up the symmetry group for a 
 hexagonal supercell.


 Subroutine GETGRP returns: Found  1 space group operations
 (whereof  1 operations were pure point group operations)
 out of a pool of 24 trial point group operations.


The static configuration has the point symmetry C_1 .


Analysis of symmetry for dynamics (positions and initial velocities):
=====================================================================
 Subroutine PRICEL returns:
 Original cell was already a primitive cell.
 

 Routine SETGRP: Setting up the symmetry group for a 
 hexagonal supercell.


 Subroutine GETGRP returns: Found  1 space group operations
 (whereof  1 operations were pure point group operations)
 out of a pool of 24 trial point group operations.


The dynamic configuration has the point symmetry C_1 .


Analysis of constrained symmetry for selective dynamics:
=====================================================================
 Subroutine PRICEL returns:
 Original cell was already a primitive cell.
 

 Routine SETGRP: Setting up the symmetry group for a 
 hexagonal supercell.


 Subroutine GETGRP returns: Found  1 space group operations
 (whereof  1 operations were pure point group operations)
 out of a pool of 24 trial point group operations.


The constrained configuration has the point symmetry C_1 .


Analysis of structural, dynamic, and magnetic symmetry:
=====================================================================
 Subroutine PRICEL returns:
 Original cell was already a primitive cell.
 

 Routine SETGRP: Setting up the symmetry group for a 
 hexagonal supercell.


 Subroutine GETGRP returns: Found  1 space group operations
 (whereof  1 operations were pure point group operations)
 out of a pool of 24 trial point group operations.


The magnetic configuration has the point symmetry C_1 .


 Subroutine INISYM returns: Found  1 space group operations
 (whereof  1 operations are pure point group operations),
 and found     1 'primitive' translations

 
 
 KPOINTS: mesh auto                               

Automatic generation of k-mesh.
Space group operators:
 irot       det(A)        alpha          n_x          n_y          n_z        tau_x        tau_y        tau_z
    1     1.000000     0.000000     1.000000     0.000000     0.000000     0.000000     0.000000     0.000000
 
 Subroutine IBZKPT returns following result:
 ===========================================
 
 Found      4 irreducible k-points:
 
 Following reciprocal coordinates:
            Coordinates               Weight
  0.000000  0.000000  0.000000      1.000000
  0.500000  0.000000  0.000000      1.000000
  0.000000  0.500000  0.000000      1.000000
  0.500000  0.500000  0.000000      1.000000
 
 Following cartesian coordinates:
            Coordinates               Weight
  0.000000  0.000000  0.000000      1.000000
  0.044553 -0.025722  0.000000      1.000000
  0.000000  0.051445  0.000000      1.000000
  0.044553  0.025722  0.000000      1.000000
 


--------------------------------------------------------------------------------------------------------




 Dimension of arrays:
   k-points           NKPTS =      4   k-points in BZ     NKDIM =      4   number of bands    NBANDS=    576
   number of dos      NEDOS =    301   number of ions     NIONS =     81
   non local maximal  LDIM  =      6   non local SUM 2l+1 LMDIM =     18
   total plane-waves  NPLWV = ******
   max r-space proj   IRMAX =   7929   max aug-charges    IRDMAX=  34542
   dimension x,y,z NGX =    90 NGY =   90 NGZ =  168
   dimension x,y,z NGXF=   180 NGYF=  180 NGZF=  336
   support grid    NGXF=   180 NGYF=  180 NGZF=  336
   ions per type =              32  16  15  17   1
   NGX,Y,Z   is equivalent  to a cutoff of  13.33, 13.33, 12.70 a.u.
   NGXF,Y,Z  is equivalent  to a cutoff of  26.66, 26.66, 25.39 a.u.

 SYSTEM =  Pt111                                   
 POSCAR =  11.26                                   

 Startparameter for this run:
   NWRITE =      2    write-flag & timer
   PREC   = accura    normal or accurate (medium, high low for compatibility)
   ISTART =      0    job   : 0-new  1-cont  2-samecut
   ICHARG =      2    charge: 1-file 2-atom 10-const
   ISPIN  =      2    spin polarized calculation?
   LNONCOLLINEAR =      F non collinear calculations
   LSORBIT =      F    spin-orbit coupling
   INIWAV =      1    electr: 0-lowe 1-rand  2-diag
   LASPH  =      F    aspherical Exc in radial PAW
   METAGGA=      F    non-selfconsistent MetaGGA calc.

 Electronic Relaxation 1
   ENCUT  =  550.0 eV  40.42 Ry    6.36 a.u.  21.46 21.46 42.07*2*pi/ulx,y,z
   ENINI  =  550.0     initial cutoff
   ENAUG  =  544.6 eV  augmentation charge cutoff
   NELM   =    200;   NELMIN=  2; NELMDL= -5     # of ELM steps 
   EDIFF  = 0.1E-04   stopping-criterion for ELM
   LREAL  =      T    real-space projection
   NLSPLINE    = F    spline interpolate recip. space projectors
   LCOMPAT=      F    compatible to vasp.4.4
   GGA_COMPAT  = T    GGA compatible to vasp.4.4-vasp.4.6
   LMAXPAW     = -100 max onsite density
   LMAXMIX     =    2 max onsite mixed and CHGCAR
   VOSKOWN=      0    Vosko Wilk Nusair interpolation
   ROPT   =   -0.00025  -0.00025  -0.00025  -0.00025
   ROPT   =   -0.00025
 Ionic relaxation
   EDIFFG = -.5E-01   stopping-criterion for IOM
   NSW    =    300    number of steps for IOM
   NBLOCK =      1;   KBLOCK =    300    inner block; outer block 
   IBRION =      2    ionic relax: 0-MD 1-quasi-New 2-CG
   NFREE  =      1    steps in history (QN), initial steepest desc. (CG)
   ISIF   =      2    stress and relaxation
   IWAVPR =     11    prediction:  0-non 1-charg 2-wave 3-comb
   ISYM   =      2    0-nonsym 1-usesym 2-fastsym
   LCORR  =      T    Harris-Foulkes like correction to forces

   POTIM  = 0.5000    time-step for ionic-motion
   TEIN   =    0.0    initial temperature
   TEBEG  =    0.0;   TEEND  =   0.0 temperature during run
   SMASS  =  -3.00    Nose mass-parameter (am)
   estimated Nose-frequenzy (Omega)   =  0.10E-29 period in steps =****** mass=  -0.288E-26a.u.
   SCALEE = 1.0000    scale energy and forces
   NPACO  =    256;   APACO  = 16.0  distance and # of slots for P.C.
   PSTRESS=    0.0 pullay stress

  Mass of Ions in am
   POMASS = 195.08 55.85 58.93 58.69  1.00
  Ionic Valenz
   ZVAL   =  10.00  8.00  9.00 10.00  1.00
  Atomic Wigner-Seitz radii
   RWIGS  =  -1.00 -1.00 -1.00 -1.00 -1.00
  virtual crystal weights 
   VCA    =   1.00  1.00  1.00  1.00  1.00
   NELECT =     754.0000    total number of electrons
   NUPDOWN=      -1.0000    fix difference up-down

 DOS related values:
   EMIN   =  10.00;   EMAX   =-10.00  energy-range for DOS
   EFERMI =   0.00
   ISMEAR =     1;   SIGMA  =   0.10  broadening in eV -4-tet -1-fermi 0-gaus

 Electronic relaxation 2 (details)
   IALGO  =     68    algorithm
   LDIAG  =      T    sub-space diagonalisation (order eigenvalues)
   LSUBROT=      F    optimize rotation matrix (better conditioning)
   TURBO    =      0    0=normal 1=particle mesh
   IRESTART =      0    0=no restart 2=restart with 2 vectors
   NREBOOT  =      0    no. of reboots
   NMIN     =      0    reboot dimension
   EREF     =   0.00    reference energy to select bands
   IMIX   =      4    mixing-type and parameters
     AMIX     =   0.40;   BMIX     =  1.00
     AMIX_MAG =   1.60;   BMIX_MAG =  1.00
     AMIN     =   0.10
     WC   =   100.;   INIMIX=   1;  MIXPRE=   1;  MAXMIX= -45

 Intra band minimization:
   WEIMIN = 0.0010     energy-eigenvalue tresh-hold
   EBREAK =  0.43E-08  absolut break condition
   DEPER  =   0.30     relativ break condition  

   TIME   =   0.40     timestep for ELM

  volume/ion in A,a.u.               =      29.63       199.92
  Fermi-wavevector in a.u.,A,eV,Ry     =   1.112968  2.103204 16.853501  1.238697
  Thomas-Fermi vector in A             =   2.249548
 
 Write flags
   LWAVE        =      F    write WAVECAR
   LDOWNSAMPLE  =      F    k-point downsampling of WAVECAR
   LCHARG       =      F    write CHGCAR
   LVTOT        =      F    write LOCPOT, total local potential
   LVHAR        =      F    write LOCPOT, Hartree potential only
   LELF         =      F    write electronic localiz. function (ELF)
   LORBIT       =      0    0 simple, 1 ext, 2 COOP (PROOUT), +10 PAW based schemes


 Dipole corrections
   LMONO  =      F    monopole corrections only (constant potential shift)
   LDIPOL =      F    correct potential (dipole corrections)
   IDIPOL =      0    1-x, 2-y, 3-z, 4-all directions 
   EPSILON=  1.0000000 bulk dielectric constant

 Exchange correlation treatment:
   GGA     =    --    GGA type
   LEXCH   =     8    internal setting for exchange type
   VOSKOWN=      0    Vosko Wilk Nusair interpolation
   LHFCALC =     F    Hartree Fock is set to
   LHFONE  =     F    Hartree Fock one center treatment
   AEXX    =    0.0000 exact exchange contribution

 Linear response parameters
   LEPSILON=     F    determine dielectric tensor
   LRPA    =     F    only Hartree local field effects (RPA)
   LNABLA  =     F    use nabla operator in PAW spheres
   LVEL    =     F    velocity operator in full k-point grid
   LINTERFAST=   F  fast interpolation
   KINTER  =     0    interpolate to denser k-point grid
   CSHIFT  =0.1000    complex shift for real part using Kramers Kronig
   OMEGAMAX=  -1.0    maximum frequency
   DEG_THRESHOLD= 0.2000000E-02 threshold for treating states as degnerate
   RTIME   =   -0.100 relaxation time in fs
  (WPLASMAI=    0.000 imaginary part of plasma frequency in eV, 0.658/RTIME)
   DFIELD  = 0.0000000 0.0000000 0.0000000 field for delta impulse in time
 
 Orbital magnetization related:
   ORBITALMAG=     F  switch on orbital magnetization
   LCHIMAG   =     F  perturbation theory with respect to B field
   DQ        =  0.001000  dq finite difference perturbation B field
   LLRAUG    =     F  two centre corrections for induced B field



--------------------------------------------------------------------------------------------------------


 conjugate gradient relaxation of ions
   using selective dynamics as specified on POSCAR
 charge density and potential will be updated during run
 spin polarized calculation
 RMM-DIIS sequential band-by-band and
  variant of blocked Davidson during initial phase
 perform sub-space diagonalisation
    before iterative eigenvector-optimisation
 modified Broyden-mixing scheme, WC =      100.0
 initial mixing is a Kerker type mixing with AMIX =  0.4000 and BMIX =      1.0000
 Hartree-type preconditioning will be used
 using additional bands          199
 real space projection scheme for non local part
 use partial core corrections
 calculate Harris-corrections to forces 
   (improved forces if not selfconsistent)
 use gradient corrections 
 use of overlap-Matrix (Vanderbilt PP)
 Methfessel and Paxton  Order N= 1 SIGMA  =   0.10


--------------------------------------------------------------------------------------------------------


  energy-cutoff  :      550.00
  volume of cell :     2399.65
      direct lattice vectors                 reciprocal lattice vectors
    11.222700119  0.000000000  0.000000000     0.089105116 -0.051444863  0.000000000
     5.611350060  9.719143402  0.000000000     0.000000000  0.102889726  0.000000000
     0.000000000  0.000000000 22.000000000     0.000000000  0.000000000  0.045454545

  length of vectors
    11.222700119 11.222700119 22.000000000     0.102889726  0.102889726  0.045454545


 
 k-points in units of 2pi/SCALE and weight: mesh auto                               
   0.00000000  0.00000000  0.00000000       0.250
   0.04455256 -0.02572243  0.00000000       0.250
   0.00000000  0.05144486  0.00000000       0.250
   0.04455256  0.02572243  0.00000000       0.250
 
 k-points in reciprocal lattice and weights: mesh auto                               
   0.00000000  0.00000000  0.00000000       0.250
   0.50000000  0.00000000  0.00000000       0.250
   0.00000000  0.50000000  0.00000000       0.250
   0.50000000  0.50000000  0.00000000       0.250
 
 position of ions in fractional coordinates (direct lattice) 
   0.78337381  0.87040019  0.30409086
   0.02933063  0.87078451  0.30069648
   0.28061406  0.36022016  0.31064844
   0.86649773  0.95789663  0.40582487
   0.11118952  0.45731074  0.40957612
   0.12505687  0.95188219  0.40479076
   0.86926142  0.44659025  0.41127875
   0.37541941  0.95356660  0.41654595
   0.87075164  0.20198919  0.40573999
   0.12339764  0.20267098  0.41068445
   0.62484584  0.94746153  0.41337627
   0.87132127  0.70349790  0.41108147
   0.37085885  0.20212774  0.41521439
   0.37206747  0.69954277  0.40427313
   0.62020515  0.45480909  0.40769646
   0.11695812  0.69792560  0.41103179
   0.62353508  0.20455759  0.41071645
   0.53853805  0.36513585  0.30704616
   0.53772615  0.11198338  0.31332451
   0.53750765  0.11690737  0.05312208
   0.10601595  0.41969037  0.11846928
   0.04891872  0.12326841  0.30634448
   0.02457803  0.10976810  0.04301178
   0.11692609  0.95242577  0.14601133
   0.37167260  0.45032837  0.40878451
   0.45077985  0.56183456  0.22205562
   0.61955934  0.70447959  0.41259481
   0.94863009  0.75638348  0.20655866
   0.79683667  0.61587235  0.31260068
   0.26584819  0.61556312  0.30624384
   0.19124466  0.26089449  0.22405845
   0.69977359  0.53884381  0.22171407
   0.03353380  0.62009595  0.31076306
   0.79088721  0.88457136  0.05901548
   0.04316713  0.86457015  0.05702026
   0.04214932  0.65754893  0.08413436
   0.62426370  0.21120473  0.13790275
   0.37657398  0.95440761  0.13612195
   0.02794441  0.37192426  0.31695616
   0.98299977  0.35389273  0.04284267
   0.86582947  0.20561363  0.13488096
   0.94832662  0.52146313  0.21684441
   0.30048373  0.10782695  0.32006608
   0.54148699  0.63112764  0.31778801
   0.28474063  0.11065050  0.05278920
   0.53473941  0.36708046  0.05001043
   0.35902779  0.20929735  0.13536762
   0.17955935  0.69144097  0.15796739
   0.52121715  0.62452862  0.05218568
   0.31510484  0.37379041  0.05623769
   0.64224589  0.93220452  0.14073248
   0.68331320  0.78573609  0.22332911
   0.82955276  0.68080959  0.12865456
   0.60856570  0.46009088  0.13042463
   0.31889829  0.87769826  0.31896226
   0.28720733  0.88377863  0.05287049
   0.60320482  0.71720033  0.13192617
   0.24390963  0.01493156  0.22942723
   0.69765379  0.05661641  0.22203663
   0.77592195  0.12348443  0.31294695
   0.53714011  0.87149674  0.31751085
   0.77414229  0.13035266  0.05102364
   0.53579334  0.87955842  0.05544832
   0.18145975  0.50980634  0.21712393
   0.93498988  0.30025067  0.22364507
   0.86379227  0.97742481  0.13912908
   0.71036838  0.29016713  0.22175692
   0.45761288  0.26185666  0.22139863
   0.85812908  0.43687154  0.13131625
   0.11007452  0.18780277  0.13408927
   0.75285836  0.59161469  0.04789180
   0.30150517  0.61600637  0.06302008
   0.37341890  0.73308670  0.13639205
   0.39367687  0.43420388  0.14336106
   0.78608910  0.36736666  0.31392526
   0.76690983  0.35547874  0.04723485
   0.92081756  0.07087941  0.22711991
   0.46493139  0.79344097  0.22696960
   0.23684180  0.80433813  0.23555822
   0.45699587  0.03041479  0.22342901
   0.19102881  0.26003047  0.45239228
 
 position of ions in cartesian coordinates  (Angst):
  13.67568955  8.45954424  6.68999890
   5.21544555  8.46327957  6.61532260
   5.17056884  3.50103138  6.83426562
  15.09953744  9.30993469  8.92814721
   3.81397725  4.44466869  9.01067474
   6.74481996  9.25147953  8.90539681
  12.26143447  4.34047469  9.04813259
   9.56401542  9.26785052  9.16401089
  10.90561653  1.96316190  8.92627970
   2.52211248  1.96978827  9.03505779
  12.32899586  9.20851450  9.09427792
  13.72615033  6.83739694  9.04379234
   5.29624715  1.96450852  9.13471653
   8.10098098  6.79895653  8.89400880
   9.51246946  4.42035478  8.96932220
   5.22889076  6.78323895  9.04269941
   8.14559146  1.98812456  9.03576198
   8.09275609  3.54880768  6.75501563
   6.66311724  1.08838253  6.89313925
   6.68829533  1.13623949  1.16868568
   3.54481477  4.07903089  2.60632415
   1.24070237  1.19806336  6.73957866
   0.89177912  1.06685188  0.94625918
   6.65662082  9.25676268  3.21224924
   6.69812019  4.37680597  8.99325924
   8.21161749  5.46055068  4.88522361
  10.90621028  6.84693818  9.07708585
  14.89052349  7.35139954  4.54429044
  12.39853436  5.98575169  6.87721499
   6.43767471  5.98274628  6.73736443
   3.61025176  2.53567096  4.92928596
  10.87699043  5.23710023  4.87770962
   3.85591521  6.02680145  6.83678733
  13.83952957  8.59727594  1.29834050
   5.33585754  8.40288130  1.25444562
   4.16276635  6.39081232  1.85095594
   8.19106793  2.05272901  3.03386046
   9.58169197  9.27602438  2.99468299
   2.40060892  3.61478525  6.97303561
  13.01772761  3.43953415  0.94253867
  10.87071458  1.99838834  2.96738112
  13.56889747  5.06817493  4.77057707
   3.97729360  1.04798558  7.04145366
   9.61842425  6.13402005  6.99133613
   3.81645733  1.07542807  1.16136251
   8.06103695  3.56770761  1.10022937
   5.20370193  2.03419094  2.97808767
   5.89505811  6.72021393  3.47528262
   9.35391247  6.06988326  1.14808489
   5.63379595  3.63292257  1.23722918
  12.43865899  9.06022944  3.09611465
  12.07765945  7.63668176  4.91324031
  13.13008285  6.61688605  2.83040042
   9.41148140  4.47168927  2.86934196
   8.50397202  8.53047521  7.01716977
   8.18243297  8.58957124  1.16315084
  10.79404887  6.97057286  2.90237567
   2.82111088  0.14512195  5.04739913
   8.14725383  0.55026304  4.88480591
   9.40085367  1.20016288  6.88483285
  10.91843573  8.47020183  6.98523871
   9.41942116  1.26691622  1.12252010
  10.94855813  8.54855442  1.21986301
   4.89717016  4.95488097  4.77672644
  12.17792264  2.91817929  4.92019149
  15.17875438  9.49973189  3.06083977
   9.60048058  2.82017593  4.87865235
   6.60502154  2.54502246  4.87076983
  12.08196442  4.24601711  2.88895759
   2.28916049  1.82528210  2.94996395
  11.76886073  5.74998803  1.05361964
   6.84032947  5.98705427  1.38644184
   8.30437444  7.12497479  3.00062500
   6.85458747  4.22008978  3.15394323
  10.88346519  3.57048923  6.90635572
  10.60151464  3.45494883  1.03916660
  10.73178855  0.68888712  4.99663803
   9.67006061  7.71156659  4.99333123
   7.17142736  7.81747765  5.18228089
   5.29939565  0.29560570  4.91543814
   3.60298107  2.52727344  9.95263005
 


--------------------------------------------------------------------------------------------------------


 k-point  1 :   0.0000 0.0000 0.0000  plane waves:   70321
 k-point  2 :   0.5000 0.0000 0.0000  plane waves:   70264
 k-point  3 :   0.0000 0.5000 0.0000  plane waves:   70264
 k-point  4 :   0.5000 0.5000 0.0000  plane waves:   70264

 maximum and minimum number of plane-waves per node :     17611    17530

 maximum number of plane-waves:     70321
 maximum index in each direction: 
   IXMAX=   21   IYMAX=   21   IZMAX=   42
   IXMIN=  -21   IYMIN=  -21   IZMIN=  -42


 real space projection operators:
  total allocation   :      75882.56 KBytes
  max/ min on nodes  :      19418.90      18511.43


 parallel 3D FFT for wavefunctions:
    minimum data exchange during FFTs selected (reduces bandwidth)
 parallel 3D FFT for charge:
    minimum data exchange during FFTs selected (reduces bandwidth)


 total amount of memory used by VASP MPI-rank0   247124. kBytes
=======================================================================

   base      :      30000. kBytes
   nonlr-proj:      34778. kBytes
   fftplans  :      18297. kBytes
   grid      :      53173. kBytes
   one-center:        653. kBytes
   wavefun   :     110223. kBytes
 
     INWAV:  cpu time    0.0000: real time    0.0004
 Broyden mixing: mesh for mixing (old mesh)
   NGX = 43   NGY = 43   NGZ = 85
  (NGX  =180   NGY  =180   NGZ  =336)
  gives a total of 157165 points

 initial charge density was supplied:
 charge density of overlapping atoms calculated
 number of electron     754.0000000 magnetization     238.0000000
 keeping initial charge density in first step


--------------------------------------------------------------------------------------------------------


 Maximum index for non-local projection operator         2108
 Maximum index for augmentation-charges         1122 (set IRDMAX)


--------------------------------------------------------------------------------------------------------


 First call to EWALD:  gamma=   0.132
 Maximum number of real-space cells 4x 4x 2
 Maximum number of reciprocal cells 2x 2x 4

    FEWALD:  cpu time    0.0065: real time    0.0066


--------------------------------------- Iteration      1(   1)  ---------------------------------------


    POTLOK:  cpu time    0.4049: real time    0.4115
    SETDIJ:  cpu time    0.0304: real time    0.0304
     EDDAV:  cpu time   64.6723: real time   64.9327
       DOS:  cpu time    0.0024: real time    0.0037
    --------------------------------------------
      LOOP:  cpu time   65.1101: real time   65.3784

 eigenvalue-minimisations  :  9216
 total energy-change (2. order) : 0.6741726E+04  (-0.3270002E+05)
 number of electron     754.0000000 magnetization     238.0000000
 augmentation part      754.0000000 magnetization     238.0000000

 Free energy of the ion-electron system (eV)
  ---------------------------------------------------
  alpha Z        PSCENC =      1885.12594062
  Ewald energy   TEWEN  =    213211.28541624
  -Hartree energ DENC   =   -278186.83511177
  -exchange      EXHF   =         0.00000000
  -V(xc)+E(xc)   XCENC  =      1038.96472150
  PAW double counting   =     58246.24677956   -59395.80901338
  entropy T*S    EENTRO =         0.00155035
  eigenvalues    EBANDS =      6568.67779827
  atomic energy  EATOM  =     63374.06744491
  Solvation  Ediel_sol  =         0.00000000
  ---------------------------------------------------
  free energy    TOTEN  =      6741.72552630 eV

  energy without entropy =     6741.72397595  energy(sigma->0) =     6741.72500952


--------------------------------------------------------------------------------------------------------




--------------------------------------- Iteration      1(   2)  ---------------------------------------


     EDDAV:  cpu time   64.4597: real time   64.6410
       DOS:  cpu time    0.0025: real time    0.0027
    --------------------------------------------
      LOOP:  cpu time   64.4622: real time   64.6437

 eigenvalue-minimisations  :  9216
 total energy-change (2. order) :-0.6348143E+04  (-0.5722332E+04)
 number of electron     754.0000000 magnetization     238.0000000
 augmentation part      754.0000000 magnetization     238.0000000

 Free energy of the ion-electron system (eV)
  ---------------------------------------------------
  alpha Z        PSCENC =      1885.12594062
  Ewald energy   TEWEN  =    213211.28541624
  -Hartree energ DENC   =   -278186.83511177
  -exchange      EXHF   =         0.00000000
  -V(xc)+E(xc)   XCENC  =      1038.96472150
  PAW double counting   =     58246.24677956   -59395.80901338
  entropy T*S    EENTRO =         0.00808988
  eigenvalues    EBANDS =       220.52849467
  atomic energy  EATOM  =     63374.06744491
  Solvation  Ediel_sol  =         0.00000000
  ---------------------------------------------------
  free energy    TOTEN  =       393.58276223 eV

  energy without entropy =      393.57467235  energy(sigma->0) =      393.58006560


--------------------------------------------------------------------------------------------------------




--------------------------------------- Iteration      1(   3)  ---------------------------------------


     EDDAV:  cpu time   67.7943: real time   68.0060
       DOS:  cpu time    0.0027: real time    0.0043
    --------------------------------------------
      LOOP:  cpu time   67.7970: real time   68.0103

 eigenvalue-minimisations  :  9852
 total energy-change (2. order) :-0.8705025E+03  (-0.7219643E+03)
 number of electron     754.0000000 magnetization     238.0000000
 augmentation part      754.0000000 magnetization     238.0000000

 Free energy of the ion-electron system (eV)
  ---------------------------------------------------
  alpha Z        PSCENC =      1885.12594062
  Ewald energy   TEWEN  =    213211.28541624
  -Hartree energ DENC   =   -278186.83511177
  -exchange      EXHF   =         0.00000000
  -V(xc)+E(xc)   XCENC  =      1038.96472150
  PAW double counting   =     58246.24677956   -59395.80901338
  entropy T*S    EENTRO =        -0.01475286
  eigenvalues    EBANDS =      -649.95118761
  atomic energy  EATOM  =     63374.06744491
  Solvation  Ediel_sol  =         0.00000000
  ---------------------------------------------------
  free energy    TOTEN  =      -476.91976279 eV

  energy without entropy =     -476.90500993  energy(sigma->0) =     -476.91484517


--------------------------------------------------------------------------------------------------------




--------------------------------------- Iteration      1(   4)  ---------------------------------------


     EDDAV:  cpu time   70.7901: real time   72.0906
       DOS:  cpu time    0.0027: real time    0.0206
    --------------------------------------------
      LOOP:  cpu time   70.7928: real time   72.1112

 eigenvalue-minimisations  : 10404
 total energy-change (2. order) :-0.5841671E+02  (-0.5596344E+02)
 number of electron     754.0000000 magnetization     238.0000000
 augmentation part      754.0000000 magnetization     238.0000000

 Free energy of the ion-electron system (eV)
  ---------------------------------------------------
  alpha Z        PSCENC =      1885.12594062
  Ewald energy   TEWEN  =    213211.28541624
  -Hartree energ DENC   =   -278186.83511177
  -exchange      EXHF   =         0.00000000
  -V(xc)+E(xc)   XCENC  =      1038.96472150
  PAW double counting   =     58246.24677956   -59395.80901338
  entropy T*S    EENTRO =        -0.02231868
  eigenvalues    EBANDS =      -708.36032720
  atomic energy  EATOM  =     63374.06744491
  Solvation  Ediel_sol  =         0.00000000
  ---------------------------------------------------
  free energy    TOTEN  =      -535.33646820 eV

  energy without entropy =     -535.31414952  energy(sigma->0) =     -535.32902864


--------------------------------------------------------------------------------------------------------




--------------------------------------- Iteration      1(   5)  ---------------------------------------


     EDDAV:  cpu time   72.8249: real time   73.0197
       DOS:  cpu time    0.0027: real time    0.0036
    CHARGE:  cpu time    4.3652: real time    4.3861
    MIXING:  cpu time    0.0111: real time    0.0113
    --------------------------------------------
      LOOP:  cpu time   77.2039: real time   77.4208

 eigenvalue-minimisations  : 10800
 total energy-change (2. order) :-0.1305837E+01  (-0.1302094E+01)
 number of electron     754.0000001 magnetization     225.2218196
 augmentation part      316.2485683 magnetization     184.2430631

 Broyden mixing:
  rms(total) = 0.10522E+02    rms(broyden)= 0.10521E+02
  rms(prec ) = 0.10875E+02
  weight for this iteration     100.00

 Free energy of the ion-electron system (eV)
  ---------------------------------------------------
  alpha Z        PSCENC =      1885.12594062
  Ewald energy   TEWEN  =    213211.28541624
  -Hartree energ DENC   =   -278186.83511177
  -exchange      EXHF   =         0.00000000
  -V(xc)+E(xc)   XCENC  =      1038.96472150
  PAW double counting   =     58246.24677956   -59395.80901338
  entropy T*S    EENTRO =        -0.02219233
  eigenvalues    EBANDS =      -709.66629086
  atomic energy  EATOM  =     63374.06744491
  Solvation  Ediel_sol  =         0.00000000
  ---------------------------------------------------
  free energy    TOTEN  =      -536.64230550 eV

  energy without entropy =     -536.62011317  energy(sigma->0) =     -536.63490806


--------------------------------------------------------------------------------------------------------




--------------------------------------- Iteration      1(   6)  ---------------------------------------


    POTLOK:  cpu time    0.3812: real time    0.3946
    SETDIJ:  cpu time    0.0313: real time    0.0315
    EDDIAG:  cpu time   11.7952: real time   11.8313
  RMM-DIIS:  cpu time   41.2192: real time   41.3267
    ORTHCH:  cpu time    1.2331: real time    1.2363
       DOS:  cpu time    0.0024: real time    0.0024
    CHARGE:  cpu time    4.2893: real time    4.3004
    MIXING:  cpu time    0.0124: real time    0.0129
    --------------------------------------------
      LOOP:  cpu time   58.9642: real time   59.1361

 eigenvalue-minimisations  :  9275
 total energy-change (2. order) :-0.2044253E+03  (-0.9085203E+02)
 number of electron     753.9999993 magnetization     221.9440903
 augmentation part      386.8819980 magnetization     188.1346412

 Broyden mixing:
  rms(total) = 0.21819E+02    rms(broyden)= 0.21819E+02
  rms(prec ) = 0.27352E+02
  weight for this iteration     100.00

 eigenvalues of (default mixing * dielectric matrix)
  average eigenvalue GAMMA=   0.1501
  0.1501

 Free energy of the ion-electron system (eV)
  ---------------------------------------------------
  alpha Z        PSCENC =      1885.12594062
  Ewald energy   TEWEN  =    213211.28541624
  -Hartree energ DENC   =   -277096.92900122
  -exchange      EXHF   =         0.00000000
  -V(xc)+E(xc)   XCENC  =      1001.87922038
  PAW double counting   =     63124.02236952   -64109.23065615
  entropy T*S    EENTRO =        -0.00958513
  eigenvalues    EBANDS =     -2131.27876370
  atomic energy  EATOM  =     63374.06744491
  Solvation  Ediel_sol  =         0.00000000
  ---------------------------------------------------
  free energy    TOTEN  =      -741.06761453 eV

  energy without entropy =     -741.05802940  energy(sigma->0) =     -741.06441949


--------------------------------------------------------------------------------------------------------




--------------------------------------- Iteration      1(   7)  ---------------------------------------


    POTLOK:  cpu time    0.3872: real time    0.3922
    SETDIJ:  cpu time    0.0315: real time    0.0317
    EDDIAG:  cpu time   11.9776: real time   12.0227
  RMM-DIIS:  cpu time   41.0181: real time   41.1248
    ORTHCH:  cpu time    1.2303: real time    1.2355
       DOS:  cpu time    0.0025: real time    0.0025
    CHARGE:  cpu time    4.4405: real time    4.4519
    MIXING:  cpu time    0.0122: real time    0.0125
    --------------------------------------------
      LOOP:  cpu time   59.0999: real time   59.2736

 eigenvalue-minimisations  :  9237
 total energy-change (2. order) : 0.2363032E+03  (-0.1463766E+02)
 number of electron     753.9999996 magnetization     218.6215334
 augmentation part      349.7938459 magnetization     172.4460021

 Broyden mixing:
  rms(total) = 0.14403E+02    rms(broyden)= 0.14403E+02
  rms(prec ) = 0.18069E+02
  weight for this iteration     100.00

 eigenvalues of (default mixing * dielectric matrix)
  average eigenvalue GAMMA=   0.2062
  0.2062  0.2062

 Free energy of the ion-electron system (eV)
  ---------------------------------------------------
  alpha Z        PSCENC =      1885.12594062
  Ewald energy   TEWEN  =    213211.28541624
  -Hartree energ DENC   =   -277526.20999148
  -exchange      EXHF   =         0.00000000
  -V(xc)+E(xc)   XCENC  =      1017.36459628
  PAW double counting   =     63966.11906888   -65074.75068577
  entropy T*S    EENTRO =         0.00128948
  eigenvalues    EBANDS =     -1357.76752913
  atomic energy  EATOM  =     63374.06744491
  Solvation  Ediel_sol  =         0.00000000
  ---------------------------------------------------
  free energy    TOTEN  =      -504.76444997 eV

  energy without entropy =     -504.76573945  energy(sigma->0) =     -504.76487979


--------------------------------------------------------------------------------------------------------




--------------------------------------- Iteration      1(   8)  ---------------------------------------


    POTLOK:  cpu time    0.3885: real time    0.3909
    SETDIJ:  cpu time    0.0321: real time    0.0322
    EDDIAG:  cpu time   11.8298: real time   11.8602
  RMM-DIIS:  cpu time   40.9626: real time   41.1117
    ORTHCH:  cpu time    1.2320: real time    1.2352
       DOS:  cpu time    0.0025: real time    0.0025
    CHARGE:  cpu time    4.2384: real time    4.2494
    MIXING:  cpu time    0.0125: real time    0.0128
    --------------------------------------------
      LOOP:  cpu time   58.6983: real time   58.8949

 eigenvalue-minimisations  :  9242
 total energy-change (2. order) : 0.2784803E+02  (-0.1076157E+02)
 number of electron     754.0000008 magnetization     211.9967798
 augmentation part      352.6189304 magnetization     171.7248606

 Broyden mixing:
  rms(total) = 0.14856E+02    rms(broyden)= 0.14856E+02
  rms(prec ) = 0.18070E+02
  weight for this iteration     100.00

 eigenvalues of (default mixing * dielectric matrix)
  average eigenvalue GAMMA=   0.2675
  0.3792  0.3442  0.0790

 Free energy of the ion-electron system (eV)
  ---------------------------------------------------
  alpha Z        PSCENC =      1885.12594062
  Ewald energy   TEWEN  =    213211.28541624
  -Hartree energ DENC   =   -277581.73562035
  -exchange      EXHF   =         0.00000000
  -V(xc)+E(xc)   XCENC  =      1016.78213365
  PAW double counting   =     64764.78666459   -65905.39831480
  entropy T*S    EENTRO =         0.00421772
  eigenvalues    EBANDS =     -1241.83430131
  atomic energy  EATOM  =     63374.06744491
  Solvation  Ediel_sol  =         0.00000000
  ---------------------------------------------------
  free energy    TOTEN  =      -476.91641872 eV

  energy without entropy =     -476.92063644  energy(sigma->0) =     -476.91782463


--------------------------------------------------------------------------------------------------------




--------------------------------------- Iteration      1(   9)  ---------------------------------------


    POTLOK:  cpu time    0.3873: real time    0.3894
    SETDIJ:  cpu time    0.0325: real time    0.0326
    EDDIAG:  cpu time   11.7566: real time   11.7868
  RMM-DIIS:  cpu time   41.0937: real time   41.2392
    ORTHCH:  cpu time    1.2288: real time    1.2320
       DOS:  cpu time    0.0025: real time    0.0025
    CHARGE:  cpu time    4.2087: real time    4.2311
    MIXING:  cpu time    0.0121: real time    0.0124
    --------------------------------------------
      LOOP:  cpu time   58.7221: real time   58.9261

 eigenvalue-minimisations  :  9251
 total energy-change (2. order) :-0.4352279E+02  (-0.1529254E+02)
 number of electron     753.9999995 magnetization     204.5057783
 augmentation part      359.0741809 magnetization     158.8151556

 Broyden mixing:
  rms(total) = 0.16408E+02    rms(broyden)= 0.16408E+02
  rms(prec ) = 0.18917E+02
  weight for this iteration     100.00

 eigenvalues of (default mixing * dielectric matrix)
  average eigenvalue GAMMA=   0.3081
  0.7043  0.3322  0.0981  0.0981

 Free energy of the ion-electron system (eV)
  ---------------------------------------------------
  alpha Z        PSCENC =      1885.12594062
  Ewald energy   TEWEN  =    213211.28541624
  -Hartree energ DENC   =   -277204.35700777
  -exchange      EXHF   =         0.00000000
  -V(xc)+E(xc)   XCENC  =      1032.50687190
  PAW double counting   =     66000.45095059   -67161.93225675
  entropy T*S    EENTRO =        -0.00691649
  eigenvalues    EBANDS =     -1657.57965046
  atomic energy  EATOM  =     63374.06744491
  Solvation  Ediel_sol  =         0.00000000
  ---------------------------------------------------
  free energy    TOTEN  =      -520.43920721 eV

  energy without entropy =     -520.43229072  energy(sigma->0) =     -520.43690171


--------------------------------------------------------------------------------------------------------




--------------------------------------- Iteration      1(  10)  ---------------------------------------


    POTLOK:  cpu time    0.3885: real time    0.3904
    SETDIJ:  cpu time    0.0324: real time    0.0325
    EDDIAG:  cpu time   11.7543: real time   11.7852
  RMM-DIIS:  cpu time   41.0711: real time   41.1963
    ORTHCH:  cpu time    1.2293: real time    1.2347
       DOS:  cpu time    0.0025: real time    0.0025
    CHARGE:  cpu time    4.2352: real time    4.2465
    MIXING:  cpu time    0.0126: real time    0.0127
    --------------------------------------------
      LOOP:  cpu time   58.7260: real time   58.9007

 eigenvalue-minimisations  :  9252
 total energy-change (2. order) : 0.8689320E+02  (-0.1249618E+02)
 number of electron     753.9999996 magnetization     198.8005811
 augmentation part      359.0357355 magnetization     144.7073213

 Broyden mixing:
  rms(total) = 0.10656E+02    rms(broyden)= 0.10656E+02
  rms(prec ) = 0.12917E+02
  weight for this iteration     100.00

 eigenvalues of (default mixing * dielectric matrix)
  average eigenvalue GAMMA=   0.3351
  0.6536  0.6536  0.1426  0.1426  0.0832

 Free energy of the ion-electron system (eV)
  ---------------------------------------------------
  alpha Z        PSCENC =      1885.12594062
  Ewald energy   TEWEN  =    213211.28541624
  -Hartree energ DENC   =   -277644.85534594
  -exchange      EXHF   =         0.00000000
  -V(xc)+E(xc)   XCENC  =      1037.04296298
  PAW double counting   =     67412.87098020   -68628.59609166
  entropy T*S    EENTRO =        -0.00196457
  eigenvalues    EBANDS =     -1080.48534709
  atomic energy  EATOM  =     63374.06744491
  Solvation  Ediel_sol  =         0.00000000
  ---------------------------------------------------
  free energy    TOTEN  =      -433.54600431 eV

  energy without entropy =     -433.54403974  energy(sigma->0) =     -433.54534946


--------------------------------------------------------------------------------------------------------




--------------------------------------- Iteration      1(  11)  ---------------------------------------


    POTLOK:  cpu time    0.3889: real time    0.3913
    SETDIJ:  cpu time    0.0325: real time    0.0325
    EDDIAG:  cpu time   11.8490: real time   11.8800
  RMM-DIIS:  cpu time   41.0622: real time   41.1687
    ORTHCH:  cpu time    1.2241: real time    1.2298
       DOS:  cpu time    0.0026: real time    0.0026
    CHARGE:  cpu time    4.2551: real time    4.2662
    MIXING:  cpu time    0.0129: real time    0.0131
    --------------------------------------------
      LOOP:  cpu time   58.8272: real time   58.9841

 eigenvalue-minimisations  :  9259
 total energy-change (2. order) : 0.5653748E+02  (-0.1078036E+02)
 number of electron     754.0000001 magnetization     193.1571682
 augmentation part      349.4063465 magnetization     143.4002676

 Broyden mixing:
  rms(total) = 0.10571E+02    rms(broyden)= 0.10571E+02
  rms(prec ) = 0.11498E+02
  weight for this iteration     100.00

 eigenvalues of (default mixing * dielectric matrix)
  average eigenvalue GAMMA=   0.3567
  1.0452  0.5321  0.2005  0.1400  0.1400  0.0828

 Free energy of the ion-electron system (eV)
  ---------------------------------------------------
  alpha Z        PSCENC =      1885.12594062
  Ewald energy   TEWEN  =    213211.28541624
  -Hartree energ DENC   =   -277749.13273758
  -exchange      EXHF   =         0.00000000
  -V(xc)+E(xc)   XCENC  =      1038.74075701
  PAW double counting   =     68185.03875148   -69443.13779257
  entropy T*S    EENTRO =        -0.01182761
  eigenvalues    EBANDS =      -878.98447793
  atomic energy  EATOM  =     63374.06744491
  Solvation  Ediel_sol  =         0.00000000
  ---------------------------------------------------
  free energy    TOTEN  =      -377.00852544 eV

  energy without entropy =     -376.99669783  energy(sigma->0) =     -377.00458290


--------------------------------------------------------------------------------------------------------




--------------------------------------- Iteration      1(  12)  ---------------------------------------


    POTLOK:  cpu time    0.3876: real time    0.3898
    SETDIJ:  cpu time    0.0319: real time    0.0320
    EDDIAG:  cpu time   11.7911: real time   11.8219
  RMM-DIIS:  cpu time   41.1231: real time   41.2327
    ORTHCH:  cpu time    1.2266: real time    1.2312
       DOS:  cpu time    0.0024: real time    0.0024
    CHARGE:  cpu time    4.2761: real time    4.2869
    MIXING:  cpu time    0.0131: real time    0.0132
    --------------------------------------------
      LOOP:  cpu time   58.8519: real time   59.0102

 eigenvalue-minimisations  :  9267
 total energy-change (2. order) :-0.6898224E+01  (-0.6252974E+01)
 number of electron     753.9999999 magnetization     189.1825505
 augmentation part      347.7596689 magnetization     139.3752011

 Broyden mixing:
  rms(total) = 0.10158E+02    rms(broyden)= 0.10158E+02
  rms(prec ) = 0.11093E+02
  weight for this iteration     100.00

 eigenvalues of (default mixing * dielectric matrix)
  average eigenvalue GAMMA=   0.3406
  1.1684  0.3725  0.3725  0.1341  0.1341  0.0837  0.1188

 Free energy of the ion-electron system (eV)
  ---------------------------------------------------
  alpha Z        PSCENC =      1885.12594062
  Ewald energy   TEWEN  =    213211.28541624
  -Hartree energ DENC   =   -277792.75075257
  -exchange      EXHF   =         0.00000000
  -V(xc)+E(xc)   XCENC  =      1030.67155032
  PAW double counting   =     68810.72386130   -70088.01060635
  entropy T*S    EENTRO =        -0.01273632
  eigenvalues    EBANDS =      -815.00686783
  atomic energy  EATOM  =     63374.06744491
  Solvation  Ediel_sol  =         0.00000000
[...]
   -.339E+02 0.444E+02 -.262E+04   0.339E+02 -.433E+02 0.262E+04   -.178E-01 -.103E+01 0.174E+01   -.659E-02 -.561E-03 0.365E-01
   -.321E+02 -.150E+02 -.263E+04   0.312E+02 0.169E+02 0.263E+04   0.947E+00 -.195E+01 0.270E+01   -.101E-01 -.935E-02 0.813E-02
   0.570E+02 0.168E+02 -.259E+04   -.565E+02 -.173E+02 0.258E+04   -.536E+00 0.469E+00 0.190E+01   0.193E-01 -.957E-02 0.236E-01
   -.289E+02 -.162E+02 -.270E+04   0.284E+02 0.155E+02 0.270E+04   0.563E+00 0.750E+00 0.275E+01   -.462E-02 -.326E-02 -.201E-02
   0.350E+02 -.941E+01 -.279E+04   -.348E+02 0.926E+01 0.278E+04   -.155E+00 0.181E+00 0.357E+01   -.121E-01 -.104E-01 0.286E-02
   -.138E+02 0.441E+02 -.266E+04   0.134E+02 -.440E+02 0.266E+04   0.405E+00 -.141E+00 0.224E+01   0.794E-02 0.241E-01 0.127E-01
   0.287E+02 -.885E+00 -.267E+04   -.284E+02 0.107E+01 0.267E+04   -.177E+00 -.157E+00 0.179E+01   -.147E-01 -.740E-04 0.289E-02
   -.555E+02 0.412E+00 -.271E+04   0.550E+02 -.104E+01 0.271E+04   0.483E+00 0.611E+00 0.198E+01   -.473E-02 0.547E-02 0.214E-01
   -.317E+02 -.186E+01 -.265E+04   0.322E+02 0.154E+01 0.265E+04   -.493E+00 0.338E+00 0.203E+01   -.508E-02 -.248E-01 0.226E-01
   -.243E+02 -.497E+02 -.270E+04   0.240E+02 0.494E+02 0.270E+04   0.301E+00 0.310E+00 0.126E+01   -.259E-01 0.186E-01 0.105E-01
   0.680E+02 0.384E+02 -.263E+04   -.676E+02 -.381E+02 0.263E+04   -.433E+00 -.332E+00 0.253E+01   0.156E-01 -.660E-03 0.174E-01
   0.421E+02 -.735E+01 -.267E+04   -.415E+02 0.809E+01 0.267E+04   -.478E+00 -.746E+00 0.248E+01   -.367E-02 0.341E-02 0.656E-02
   -.150E+02 -.135E+02 -.262E+04   0.145E+02 0.130E+02 0.262E+04   0.465E+00 0.559E+00 0.208E+01   0.896E-02 -.120E-01 0.205E-01
   0.427E+01 -.160E+02 -.270E+04   -.402E+01 0.159E+02 0.270E+04   -.238E+00 0.126E+00 0.239E+01   -.168E-01 0.160E-01 0.120E-01
   0.746E+02 -.837E+02 -.127E+04   -.736E+02 0.831E+02 0.127E+04   -.101E+01 0.670E+00 0.199E+01   0.139E-01 0.968E-02 0.979E-02
   -.795E+01 -.351E+02 -.138E+04   0.725E+01 0.345E+02 0.138E+04   0.742E+00 0.657E+00 0.262E+01   -.182E-01 0.301E-01 0.264E-01
   0.513E+02 0.207E+02 0.274E+04   -.512E+02 -.209E+02 -.274E+04   -.131E+00 0.667E-01 -.275E+01   0.992E-02 0.124E-01 -.107E-01
   -.961E+02 -.109E+03 0.185E+04   0.959E+02 0.109E+03 -.185E+04   0.231E+00 -.245E+00 0.134E+01   0.104E-01 -.101E-02 -.833E-02
   -.672E+01 0.387E+02 -.127E+04   0.757E+01 -.377E+02 0.127E+04   -.895E+00 -.954E+00 0.201E+01   0.193E-01 0.185E-01 0.111E-02
   -.436E+02 0.102E+03 0.286E+04   0.438E+02 -.101E+03 -.286E+04   -.171E+00 -.883E+00 -.236E+01   -.127E-01 0.126E-02 -.768E-02
   0.869E+02 0.239E+02 0.133E+04   -.871E+02 -.248E+02 -.133E+04   0.167E+00 0.876E+00 -.393E+00   0.214E-02 -.821E-03 -.161E-01
   0.194E+02 -.271E+02 -.263E+04   -.189E+02 0.268E+02 0.263E+04   -.550E+00 0.229E+00 0.182E+01   0.128E-01 -.446E-02 0.164E-01
   0.100E+03 0.879E+02 -.432E+01   -.100E+03 -.876E+02 0.386E+01   -.362E+00 -.408E+00 0.183E+00   -.261E-02 -.920E-02 -.464E-03
   -.148E+02 0.390E+02 -.271E+04   0.146E+02 -.386E+02 0.271E+04   0.254E+00 -.336E+00 0.278E+01   -.229E-02 -.718E-02 0.226E-01
   -.493E+02 0.111E+02 0.370E+03   0.493E+02 -.130E+02 -.371E+03   -.104E+00 0.192E+01 0.358E+00   0.243E-02 -.146E-01 -.160E-01
   -.733E+02 0.615E+00 -.132E+04   0.744E+02 -.131E+01 0.132E+04   -.101E+01 0.710E+00 0.255E+01   -.511E-02 -.140E-01 0.971E-02
   0.329E+02 0.272E+02 -.122E+04   -.338E+02 -.267E+02 0.122E+04   0.984E+00 -.369E+00 0.187E+01   0.223E-01 -.141E-01 -.115E-01
   -.451E+02 -.984E+02 0.560E+02   0.447E+02 0.979E+02 -.561E+02   0.407E+00 0.764E+00 0.160E+00   0.189E-02 0.811E-02 0.402E-02
   -.288E+02 -.225E+02 0.315E+02   0.293E+02 0.224E+02 -.317E+02   -.246E+00 0.839E-01 0.163E+00   -.204E-02 -.144E-01 0.598E-02
   0.724E+00 -.412E+01 -.996E+03   -.517E+00 0.404E+01 0.995E+03   -.196E+00 0.152E+00 0.400E+00   -.166E-02 -.157E-01 0.592E-02
   -.366E+02 0.128E+03 0.221E+04   0.380E+02 -.127E+03 -.221E+04   -.133E+01 -.128E+01 -.380E+01   0.696E-02 0.919E-02 -.109E-01
   0.576E+02 0.102E+03 0.219E+04   -.586E+02 -.102E+03 -.218E+04   0.104E+01 -.430E-01 -.352E+01   -.309E-02 0.477E-02 -.840E-02
   0.459E+02 0.446E+02 0.193E+04   -.455E+02 -.432E+02 -.193E+04   -.507E+00 -.133E+01 -.192E+01   0.384E-02 -.443E-02 -.741E-02
   0.780E+02 0.402E+02 0.118E+04   -.774E+02 -.399E+02 -.118E+04   -.680E+00 -.292E+00 -.313E+00   0.541E-02 0.139E-01 -.236E-01
   -.208E+02 -.118E+03 0.123E+04   0.211E+02 0.117E+03 -.123E+04   -.319E+00 0.458E-01 -.148E+00   -.290E-02 0.217E-02 -.689E-02
   -.675E+02 -.303E+02 -.110E+04   0.674E+02 0.304E+02 0.110E+04   0.213E+00 -.120E+00 0.100E+00   -.770E-02 -.239E-02 0.102E-01
   -.245E+03 -.489E+02 0.234E+04   0.243E+03 0.482E+02 -.234E+04   0.241E+01 0.742E+00 -.456E+01   0.519E-03 -.355E-02 -.459E-02
   -.221E+02 0.632E+02 0.120E+04   0.214E+02 -.632E+02 -.120E+04   0.740E+00 -.129E+00 -.485E+00   -.818E-02 0.604E-02 -.161E-01
   -.107E+03 -.413E+02 0.122E+03   0.107E+03 0.414E+02 -.122E+03   0.282E+00 -.151E+00 -.175E+00   -.408E-02 -.712E-02 -.116E-02
   0.912E+01 -.101E+03 -.117E+04   -.905E+01 0.101E+03 0.117E+04   -.545E-01 0.430E+00 0.541E+00   -.562E-02 0.109E-01 0.126E-01
   0.354E+02 0.724E+02 -.114E+04   -.352E+02 -.717E+02 0.114E+04   -.171E+00 -.777E+00 -.446E+00   -.580E-02 -.126E-01 0.865E-02
   -.437E+02 -.108E+03 0.224E+04   0.441E+02 0.105E+03 -.224E+04   -.371E+00 0.264E+01 -.418E+01   0.129E-02 0.547E-02 -.674E-02
   0.836E+02 0.142E+02 0.229E+04   -.834E+02 -.143E+02 -.228E+04   -.220E+00 0.103E+00 -.336E+01   -.514E-02 -.143E-01 -.118E-02
   0.329E+02 -.159E+02 0.123E+04   -.332E+02 0.159E+02 -.123E+04   0.325E+00 -.372E-01 0.302E+00   0.197E-02 0.115E-01 -.122E-01
   0.154E+03 0.138E+01 0.903E+03   -.154E+03 -.134E+01 -.904E+03   0.635E+00 -.510E-01 0.110E+01   0.269E-02 -.920E-02 -.795E-02
   0.507E+02 -.409E+02 0.260E+04   -.509E+02 0.410E+02 -.259E+04   0.217E+00 -.126E+00 -.291E+01   -.539E-02 -.581E-02 -.415E-03
   0.190E+03 -.512E+02 0.250E+04   -.188E+03 0.508E+02 -.250E+04   -.178E+01 0.453E+00 -.373E+01   0.319E-02 -.914E-04 -.316E-02
   -.710E+02 -.550E+02 0.129E+04   0.706E+02 0.544E+02 -.129E+04   0.438E+00 0.651E+00 -.122E+00   -.336E-02 -.316E-02 -.173E-01
   -.164E+03 0.296E+02 0.368E+02   0.164E+03 -.294E+02 -.366E+02   0.320E+00 -.266E+00 -.191E+00   -.586E-02 -.180E-01 -.123E-01
   -.220E+03 -.562E+01 0.150E+04   0.220E+03 0.658E+01 -.150E+04   -.146E+00 -.101E+01 0.933E-01   0.188E-02 -.392E-02 -.444E-02
   0.456E+02 0.819E+01 0.134E+04   -.456E+02 -.862E+01 -.134E+04   0.364E-01 0.483E+00 -.219E+00   -.390E-02 -.166E-01 0.750E-02
   0.121E+03 0.198E+02 -.135E+04   -.120E+03 -.197E+02 0.135E+04   -.950E+00 -.135E+00 0.312E+00   -.858E-02 0.120E-02 0.137E-01
   0.668E+02 -.236E+02 0.256E+04   -.659E+02 0.242E+02 -.256E+04   -.908E+00 -.574E+00 -.281E+01   -.682E-02 0.830E-02 -.572E-02
   -.630E+02 -.707E+01 0.139E+04   0.631E+02 0.753E+01 -.139E+04   -.103E+00 -.491E+00 0.294E-02   0.399E-02 -.103E-02 0.843E-02
   0.826E+02 -.119E+03 0.630E+01   -.823E+02 0.119E+03 -.573E+01   -.423E+00 0.907E-01 -.684E+00   -.722E-03 0.627E-03 0.600E-02
   0.270E+02 0.102E+03 0.966E+02   -.270E+02 -.102E+03 -.967E+02   -.392E-01 -.310E+00 0.196E-01   -.291E-02 0.137E-01 -.168E-01
   -.525E+01 0.501E+02 -.126E+04   0.521E+01 -.500E+02 0.126E+04   0.699E-01 -.162E+00 0.129E+00   0.815E-02 0.310E-01 0.128E-01
   -.899E+02 0.168E+02 -.130E+04   0.896E+02 -.167E+02 0.130E+04   0.391E+00 -.112E+00 0.757E+00   -.153E-01 -.342E-02 0.117E-01
   0.559E+02 0.131E+03 0.254E+04   -.562E+02 -.131E+03 -.254E+04   0.155E+00 -.370E+00 -.248E+01   -.239E-03 0.383E-02 -.110E-01
   -.762E+02 -.494E+02 0.255E+04   0.757E+02 0.503E+02 -.255E+04   0.485E+00 -.867E+00 -.286E+01   0.311E-02 0.951E-02 -.686E-02
   0.234E+02 -.264E+02 0.211E+03   -.236E+02 0.263E+02 -.211E+03   0.251E+00 -.516E-01 -.535E+00   0.833E-02 -.115E-01 -.781E-02
   -.126E+03 0.730E+01 0.283E+02   0.126E+03 -.751E+01 -.280E+02   0.267E+00 0.174E+00 -.296E+00   -.766E-02 0.116E-01 0.983E-02
   0.269E+01 0.196E+03 0.145E+04   -.299E+01 -.195E+03 -.145E+04   0.359E+00 -.699E+00 -.414E+00   0.577E-02 0.741E-02 -.406E-01
   0.926E+02 -.600E+02 0.789E+02   -.924E+02 0.595E+02 -.784E+02   -.300E+00 0.670E+00 -.527E+00   0.706E-02 0.283E-01 -.158E-03
   0.620E+02 -.849E+02 0.978E+02   -.613E+02 0.846E+02 -.975E+02   -.709E+00 0.207E+00 -.146E+00   -.719E-02 0.249E-01 -.622E-02
   -.147E+03 -.475E+02 0.150E+04   0.147E+03 0.479E+02 -.150E+04   0.301E+00 -.276E+00 -.816E+00   -.303E-02 -.496E-02 0.427E-03
   -.912E+02 0.440E-01 0.153E+04   0.917E+02 -.403E+00 -.153E+04   -.477E+00 0.319E+00 -.672E+00   0.755E-03 0.389E-02 -.922E-02
   -.229E+03 -.130E+03 0.291E+04   0.228E+03 0.129E+03 -.291E+04   0.141E+01 0.103E+01 -.353E+01   0.121E-01 -.651E-02 -.450E-02
   0.213E+03 -.339E+02 0.271E+04   -.213E+03 0.336E+02 -.271E+04   -.585E-01 0.305E+00 -.159E+01   -.153E-01 -.106E-01 -.146E-02
   0.106E+03 0.753E+01 0.149E+04   -.106E+03 -.764E+01 -.149E+04   -.247E+00 0.151E+00 0.638E-01   -.803E-02 -.206E-03 0.472E-02
   0.143E+03 -.323E+02 0.130E+04   -.143E+03 0.321E+02 -.130E+04   -.483E+00 0.239E+00 -.436E+00   -.398E-02 -.386E-02 -.956E-02
   -.566E+01 -.404E+02 -.140E+04   0.544E+01 0.401E+02 0.140E+04   0.261E+00 0.309E+00 0.293E+00   0.233E-02 0.869E-02 0.647E-02
   0.241E+02 0.220E+02 0.287E+04   -.246E+02 -.217E+02 -.287E+04   0.482E+00 -.290E+00 -.849E+00   -.837E-02 -.229E-01 -.399E-02
   -.622E+02 0.168E+03 -.103E+02   0.621E+02 -.168E+03 0.105E+02   0.903E-01 -.207E-01 -.428E+00   0.155E-01 0.175E-01 -.118E-01
   -.246E+02 0.563E+02 -.142E+02   0.246E+02 -.554E+02 0.144E+02   0.102E+00 -.805E+00 -.135E+00   -.821E-02 -.807E-02 -.617E-02
   0.208E+03 0.313E+02 -.175E+03   -.208E+03 -.308E+02 0.175E+03   0.890E-01 -.523E+00 -.495E+00   0.996E-02 -.889E-02 0.288E-02
   -.585E+02 -.916E+02 0.123E+03   0.587E+02 0.913E+02 -.124E+03   -.891E-02 0.356E+00 0.160E+00   -.133E-01 0.847E-02 -.106E-01
   0.108E+01 -.986E+01 -.315E+03   -.112E+01 0.105E+02 0.317E+03   0.594E-01 -.574E+00 -.139E+01   0.162E-02 0.113E-03 -.357E-03
 -----------------------------------------------------------------------------------------------
   -.180E+01 0.829E+00 -.345E+01   0.246E-12 -.457E-12 0.134E-10   0.187E+01 -.805E+00 0.341E+01   -.560E-01 0.906E-02 0.359E-01
 
 
 POSITION                                       TOTAL-FORCE (eV/Angst)
 -----------------------------------------------------------------------------------
     13.66920      8.47125      6.69253         0.008660     -0.023707     -0.000948
      5.21132      8.45902      6.58863         0.001058      0.004334     -0.001789
      5.15051      3.49892      6.85461         0.004035      0.003339     -0.001999
     15.13338      9.30197      8.92747        -0.000879     -0.001185      0.010881
      3.80636      4.48846      9.04539         0.003097     -0.000552      0.005211
      6.71820      9.19917      8.84160         0.022968     -0.000178      0.012216
     12.22942      4.35267      9.05096         0.014816     -0.003999      0.000199
      9.54473      9.21864      9.15672         0.003431      0.005115     -0.008570
     10.89998      1.94781      8.92281         0.019665      0.009315     -0.006624
      2.46448      1.93903      9.07590         0.029805      0.010151     -0.003735
     12.32902      9.21436      9.09553         0.006841     -0.005065     -0.005218
     13.74511      6.86257      9.04302         0.006057     -0.005530     -0.003926
      5.32304      1.93556      9.18201         0.015290     -0.009395     -0.004367
      8.06307      6.81816      8.90708        -0.014640      0.002536     -0.002962
      9.49556      4.42513      8.97651         0.004628      0.006433     -0.005972
      5.24737      6.83694      8.96097        -0.011613     -0.000061      0.003736
      8.12616      1.97973      9.04653         0.016606     -0.002894     -0.016496
      8.08856      3.54045      6.75986        -0.007491      0.008848     -0.005685
      6.64985      1.09262      6.89334         0.014652     -0.006196      0.001671
      6.68830      1.13624      1.16869         0.011615     -0.015228     -0.032876
      3.54481      4.07903      2.60632         0.018815     -0.009776     -0.044436
      1.24860      1.20985      6.73355        -0.010168     -0.000217      0.017644
      0.89178      1.06685      0.94626        -0.011876     -0.002054     -0.009433
      6.65662      9.25676      3.21225         0.007896      0.004231     -0.044249
      6.70748      4.39938      8.99672         0.003214      0.005900      0.003954
      8.21162      5.46055      4.88522        -0.204005     -0.043281     -0.222404
     10.92201      6.83574      9.07059        -0.018127      0.001069      0.007739
     14.89052      7.35140      4.54429        -0.017183      0.020334      0.023155
     12.41669      5.98231      6.87482        -0.007194     -0.003891      0.004497
      6.44413      5.96162      6.72290         0.008424      0.006795     -0.012543
      3.61025      2.53567      4.92929        -0.110993      0.188640      0.004527
     10.87699      5.23710      4.87771         0.216553     -0.028594     -0.051502
      3.86185      6.04114      6.84241         0.003372      0.000386      0.012475
     13.83953      8.59728      1.29834         0.012209      0.011127      0.013788
      5.33586      8.40288      1.25445         0.006929     -0.013895      0.043402
      4.16277      6.39081      1.85096         0.015098     -0.017819      0.013018
      8.19107      2.05273      3.03386        -0.012436     -0.009438     -0.022904
      9.58169      9.27602      2.99468         0.026197      0.004111      0.028177
      2.40944      3.61263      6.99914        -0.000911      0.005891     -0.012753
     13.01773      3.43953      0.94254        -0.031452      0.016513     -0.001734
     10.87071      1.99839      2.96738         0.031588      0.004269     -0.016161
     13.56890      5.06817      4.77058         0.025743     -0.006680      0.013954
      3.97903      1.05064      7.05681        -0.000095     -0.006940     -0.002639
      9.60152      6.13662      6.99786         0.004127     -0.009504      0.004285
      3.81646      1.07543      1.16136        -0.012870     -0.017888      0.014013
      8.06104      3.56771      1.10023        -0.007288     -0.012534      0.005576
      5.20370      2.03419      2.97809        -0.010882     -0.047420      0.076308
      5.89506      6.72021      3.47528        -0.021201     -0.013271     -0.034358
      9.35391      6.06988      1.14808         0.009637     -0.031389      0.023871
      5.63380      3.63292      1.23723         0.042720      0.069702     -0.001454
     12.43866      9.06023      3.09611        -0.004931     -0.006634     -0.037323
     12.07766      7.63668      4.91324         0.018713     -0.040004      0.011300
     13.13008      6.61689      2.83040        -0.044775      0.009863     -0.022403
      9.41148      4.47169      2.86934         0.026320     -0.022374      0.007891
      8.50625      8.51334      7.00730         0.007849      0.006633     -0.003462
      8.18243      8.58957      1.16315        -0.015708      0.017710     -0.018790
     10.79405      6.97057      2.90238        -0.011136      0.010497      0.034863
      2.82111      0.14512      5.04740        -0.168626     -0.055593      0.013057
      8.14725      0.55026      4.88481         0.000766     -0.006735      0.025630
      9.38805      1.20062      6.88692        -0.002510      0.018626     -0.008349
     10.92022      8.46539      6.98291        -0.000918     -0.005699     -0.001210
      9.41942      1.26692      1.12252        -0.009409     -0.009332     -0.010163
     10.94856      8.54855      1.21986         0.000017      0.021661     -0.005117
      4.89717      4.95488      4.77673         0.037095     -0.031142      0.069939
     12.17792      2.91818      4.92019         0.001542     -0.013551      0.088718
     15.17875      9.49973      3.06084         0.012234      0.022254      0.028587
      9.60048      2.82018      4.87865        -0.039137      0.040222      0.054138
      6.60502      2.54502      4.87077        -0.043657     -0.023801      0.087524
     12.08196      4.24602      2.88896         0.007570      0.002530     -0.044308
      2.28916      1.82528      2.94996         0.002028     -0.034781      0.037481
     11.76886      5.74999      1.05362         0.003240     -0.010436     -0.009497
      6.84033      5.98705      1.38644        -0.013962      0.007935      0.010992
      8.30437      7.12497      3.00063         0.000792      0.035147      0.024330
      6.85459      4.22009      3.15394        -0.052988     -0.030542     -0.003753
     10.87733      3.57193      6.91253        -0.000921      0.001772     -0.003057
     10.60151      3.45495      1.03917        -0.000503     -0.006004     -0.023036
     10.73179      0.68889      4.99664        -0.027331     -0.003012     -0.084105
      9.67006      7.71157      4.99333         0.042962      0.117290      0.084501
      7.17143      7.81748      5.18228         0.011210     -0.025078     -0.003617
      5.29940      0.29561      4.91544         0.139766     -0.052995     -0.035988
      3.86721      2.59150      9.99197         0.019968      0.025115     -0.031330
 -----------------------------------------------------------------------------------
    total drift:                                0.017285      0.033159      0.001137


--------------------------------------------------------------------------------------------------------



  FREE ENERGIE OF THE ION-ELECTRON SYSTEM (eV)
  ---------------------------------------------------
  free  energy   TOTEN  =      -538.51684450 eV

  energy  without entropy=     -538.52940382  energy(sigma->0) =     -538.52103094
 
 d Force = 0.2063819E-02[ 0.971E-03, 0.316E-02]  d Energy = 0.2009057E-02 0.548E-04
 d Force =-0.8269299E+01[-0.828E+01,-0.826E+01]  d Ewald  =-0.8269295E+01-0.371E-05


--------------------------------------------------------------------------------------------------------


    POTLOK:  cpu time    0.4265: real time    1.1739


--------------------------------------------------------------------------------------------------------


 Conjugate gradient step on ions:
 trial-energy change:   -0.002009  1 .order   -0.002064   -0.003156   -0.000971
  (g-gl).g = 0.147E-02      g.g   = 0.161E-02  gl.gl    = 0.428E-02
 g(Force)  = 0.161E-02   g(Stress)= 0.000E+00 ortho     = 0.156E-03
 gamma     =   0.34458
 trial     =   1.89471
 opt step  =   3.00025  (harmonic =   2.73700) maximal distance =0.01367080
 next E    =  -538.517117   (d E  =  -0.00228)


--------------------------------------------------------------------------------------------------------


  
 reached required accuracy - stopping structural energy minimisation
     LOOP+:  cpu time  817.9424: real time  827.0392
    4ORBIT:  cpu time    0.0000: real time    0.0000

 total amount of memory used by VASP MPI-rank0   247124. kBytes
=======================================================================

   base      :      30000. kBytes
   nonlr-proj:      34778. kBytes
   fftplans  :      18297. kBytes
   grid      :      53173. kBytes
   one-center:        653. kBytes
   wavefun   :     110223. kBytes
 
  
  
 General timing and accounting informations for this job:
 ========================================================
  
                  Total CPU time used (sec):    15174.953
                            User time (sec):    14750.480
                          System time (sec):      424.473
                         Elapsed time (sec):    15243.736
  
                   Maximum memory used (kb):      440164.
                   Average memory used (kb):           0.
  
                          Minor page faults:      3808282
                          Major page faults:          167
                 Voluntary context switches:         8889
