 vasp.5.4.4.18Apr17-6-g9f103f2a35 (build Oct 25 2019 11:13:22) complex          
  
 executed on             LinuxIFC date 2021.10.29  16:29:50
 running on   48 total cores
 distrk:  each k-point on   48 cores,    1 groups
 distr:  one band on NCORES_PER_BAND=   4 cores,   12 groups


--------------------------------------------------------------------------------------------------------


 INCAR:
 POTCAR:    PAW_PBE Pt 04Feb2005                  
 POTCAR:    PAW_PBE Fe 06Sep2000                  
 POTCAR:    PAW_PBE Co 02Aug2007                  
 POTCAR:    PAW_PBE Cu 22Jun2005                  
 POTCAR:    PAW_PBE Ni 02Aug2007                  
 POTCAR:    PAW_PBE H 15Jun2001                   
 POTCAR:    PAW_PBE Pt 04Feb2005                  
   VRHFIN =Pt: s1d9                                                             
   LEXCH  = PE                                                                  
   EATOM  =   729.1176 eV,   53.5886 Ry                                         
                                                                                
   TITEL  = PAW_PBE Pt 04Feb2005                                                
   LULTRA =        F    use ultrasoft PP ?                                      
   IUNSCR =        1    unscreen: 0-lin 1-nonlin 2-no                           
   RPACOR =    2.330    partial core radius                                     
   POMASS =  195.080; ZVAL   =   10.000    mass and valenz                      
   RCORE  =    2.600    outmost cutoff radius                                   
   RWIGS  =    2.750; RWIGS  =    1.455    wigner-seitz radius (au A)           
   ENMAX  =  230.283; ENMIN  =  172.712 eV                                      
   ICORE  =        3    local potential                                         
   LCOR   =        T    correct aug charges                                     
   LPAW   =        T    paw PP                                                  
   EAUG   =  358.966                                                            
   DEXC   =    0.000                                                            
   RMAX   =    2.658    core radius for proj-oper                               
   RAUG   =    1.300    factor for augmentation sphere                          
   RDEP   =    2.761    radius for radial grids                                 
   RDEPT  =    2.203    core radius for aug-charge                              
                                                                                
   Atomic configuration                                                         
   16 entries                                                                   
     n  l   j            E        occ.                                          
     1  0  0.50    -78401.1885   2.0000                                         
     2  0  0.50    -13770.7750   2.0000                                         
     2  1  1.50    -11931.0468   6.0000                                         
     3  0  0.50     -3234.7234   2.0000                                         
     3  1  1.50     -2699.2216   6.0000                                         
     3  2  2.50     -2119.5714  10.0000                                         
     4  0  0.50      -695.1528   2.0000                                         
     4  1  1.50      -519.6034   6.0000                                         
     4  2  2.50      -306.6786  10.0000                                         
     4  3  3.50       -70.1041  14.0000                                         
     5  0  0.50      -101.7747   2.0000                                         
     5  1  1.50       -55.9873   6.0000                                         
     5  2  2.50        -6.1423   9.0000                                         
     6  0  0.50        -5.6573   1.0000                                         
     6  1  1.50        -6.8029   0.0000                                         
     5  3  2.50        -1.3606   0.0000                                         
   Description                                                                  
     l       E           TYP  RCUT    TYP  RCUT                                 
     2     -6.1423404     23  2.500                                             
     2     -7.5029230     23  2.500                                             
     0     -5.6573207     23  2.500                                             
     0      0.7416693     23  2.500                                             
     1     -2.7211652     23  2.600                                             
     1     20.4087390     23  2.600                                             
     3     -1.3605826     23  2.500                                             
  local pseudopotential read in
  partial core-charges read in
  partial kinetic energy density read in
  atomic valenz-charges read in
  non local Contribution for L=           2  read in
    real space projection operators read in
  non local Contribution for L=           2  read in
    real space projection operators read in
  non local Contribution for L=           0  read in
    real space projection operators read in
  non local Contribution for L=           0  read in
    real space projection operators read in
  non local Contribution for L=           1  read in
    real space projection operators read in
  non local Contribution for L=           1  read in
    real space projection operators read in
    PAW grid and wavefunctions read in
 
   number of l-projection  operators is LMAX  =           6
   number of lm-projection operators is LMMAX =          18
 
 POTCAR:    PAW_PBE Fe 06Sep2000                  
   VRHFIN =Fe:  d7 s1                                                           
   LEXCH  = PE                                                                  
   EATOM  =   594.3153 eV,   43.6809 Ry                                         
                                                                                
   TITEL  = PAW_PBE Fe 06Sep2000                                                
   LULTRA =        F    use ultrasoft PP ?                                      
   IUNSCR =        1    unscreen: 0-lin 1-nonlin 2-no                           
   RPACOR =    2.000    partial core radius                                     
   POMASS =   55.847; ZVAL   =    8.000    mass and valenz                      
   RCORE  =    2.300    outmost cutoff radius                                   
   RWIGS  =    2.460; RWIGS  =    1.302    wigner-seitz radius (au A)           
   ENMAX  =  267.882; ENMIN  =  200.911 eV                                      
   RCLOC  =    1.701    cutoff for local pot                                    
   LCOR   =        T    correct aug charges                                     
   LPAW   =        T    paw PP                                                  
   EAUG   =  511.368                                                            
   DEXC   =    0.000                                                            
   RMAX   =    2.356    core radius for proj-oper                               
   RAUG   =    1.300    factor for augmentation sphere                          
   RDEP   =    2.442    radius for radial grids                                 
   RDEPT  =    1.890    core radius for aug-charge                              
                                                                                
   Atomic configuration                                                         
    9 entries                                                                   
     n  l   j            E        occ.                                          
     1  0  0.50     -6993.8440   2.0000                                         
     2  0  0.50      -814.6047   2.0000                                         
     2  1  1.50      -693.3689   6.0000                                         
     3  0  0.50       -89.4732   2.0000                                         
     3  1  1.50       -55.6373   6.0000                                         
     3  2  2.50        -3.8151   7.0000                                         
     4  0  0.50        -4.2551   1.0000                                         
     4  1  1.50        -3.4015   0.0000                                         
     4  3  2.50        -1.3606   0.0000                                         
   Description                                                                  
     l       E           TYP  RCUT    TYP  RCUT                                 
     2     -3.8151135     23  2.300                                             
     2     -5.1756961     23  2.300                                             
     0     -4.2550963     23  2.300                                             
     0      7.2035603     23  2.300                                             
     1     -2.7211652     23  2.300                                             
     1     18.4316424     23  2.300                                             
  local pseudopotential read in
  partial core-charges read in
  partial kinetic energy density read in
  atomic valenz-charges read in
  non local Contribution for L=           2  read in
    real space projection operators read in
  non local Contribution for L=           2  read in
    real space projection operators read in
  non local Contribution for L=           0  read in
    real space projection operators read in
  non local Contribution for L=           0  read in
    real space projection operators read in
  non local Contribution for L=           1  read in
    real space projection operators read in
  non local Contribution for L=           1  read in
    real space projection operators read in
    PAW grid and wavefunctions read in
 
   number of l-projection  operators is LMAX  =           6
   number of lm-projection operators is LMMAX =          18
 
 POTCAR:    PAW_PBE Co 02Aug2007                  
   VRHFIN =Co: d8 s1                                                            
   LEXCH  = PE                                                                  
   EATOM  =   813.3670 eV,   59.7808 Ry                                         
                                                                                
   TITEL  = PAW_PBE Co 02Aug2007                                                
   LULTRA =        F    use ultrasoft PP ?                                      
   IUNSCR =        1    unscreen: 0-lin 1-nonlin 2-no                           
   RPACOR =    2.000    partial core radius                                     
   POMASS =   58.933; ZVAL   =    9.000    mass and valenz                      
   RCORE  =    2.300    outmost cutoff radius                                   
   RWIGS  =    2.460; RWIGS  =    1.302    wigner-seitz radius (au A)           
   ENMAX  =  267.968; ENMIN  =  200.976 eV                                      
   RCLOC  =    1.203    cutoff for local pot                                    
   LCOR   =        T    correct aug charges                                     
   LPAW   =        T    paw PP                                                  
   EAUG   =  477.818                                                            
   DEXC   =    0.000                                                            
   RMAX   =    2.360    core radius for proj-oper                               
   RAUG   =    1.300    factor for augmentation sphere                          
   RDEP   =    2.393    radius for radial grids                                 
   RDEPT  =    1.864    core radius for aug-charge                              
                                                                                
   Atomic configuration                                                         
    9 entries                                                                   
     n  l   j            E        occ.                                          
     1  0  0.50     -7587.6674   2.0000                                         
     2  0  0.50      -893.6084   2.0000                                         
     2  1  1.50      -764.5805   6.0000                                         
     3  0  0.50       -97.5973   2.0000                                         
     3  1  1.50       -60.9648   6.0000                                         
     3  2  2.50        -4.2382   8.0000                                         
     4  0  0.50        -4.3746   1.0000                                         
     4  1  1.50        -4.0817   0.0000                                         
     4  3  2.50        -1.3606   0.0000                                         
   Description                                                                  
     l       E           TYP  RCUT    TYP  RCUT                                 
     2     -4.2382362     23  2.300                                             
     2     -5.5988188     23  2.300                                             
     0     -4.3745797     23  2.300                                             
     0      5.7660125     23  2.300                                             
     1     -2.7211652     23  2.300                                             
     1     16.9860234     23  2.300                                             
  local pseudopotential read in
  partial core-charges read in
  partial kinetic energy density read in
  atomic valenz-charges read in
  non local Contribution for L=           2  read in
    real space projection operators read in
  non local Contribution for L=           2  read in
    real space projection operators read in
  non local Contribution for L=           0  read in
    real space projection operators read in
  non local Contribution for L=           0  read in
    real space projection operators read in
  non local Contribution for L=           1  read in
    real space projection operators read in
  non local Contribution for L=           1  read in
    real space projection operators read in
    PAW grid and wavefunctions read in
 
   number of l-projection  operators is LMAX  =           6
   number of lm-projection operators is LMMAX =          18
 
 POTCAR:    PAW_PBE Cu 22Jun2005                  
   VRHFIN =Cu: d10 p1                                                           
   LEXCH  = PE                                                                  
   EATOM  =  1390.9808 eV,  102.2342 Ry                                         
                                                                                
   TITEL  = PAW_PBE Cu 22Jun2005                                                
   LULTRA =        F    use ultrasoft PP ?                                      
   IUNSCR =        1    unscreen: 0-lin 1-nonlin 2-no                           
   RPACOR =    2.000    partial core radius                                     
   POMASS =   63.546; ZVAL   =   11.000    mass and valenz                      
   RCORE  =    2.300    outmost cutoff radius                                   
   RWIGS  =    2.200; RWIGS  =    1.164    wigner-seitz radius (au A)           
   ENMAX  =  295.446; ENMIN  =  221.585 eV                                      
   ICORE  =        3    local potential                                         
   LCOR   =        T    correct aug charges                                     
   LPAW   =        T    paw PP                                                  
   EAUG   =  586.980                                                            
   DEXC   =    0.000                                                            
   RMAX   =    2.344    core radius for proj-oper                               
   RAUG   =    1.300    factor for augmentation sphere                          
   RDEP   =    2.302    radius for radial grids                                 
   RDEPT  =    1.771    core radius for aug-charge                              
                                                                                
   Atomic configuration                                                         
    9 entries                                                                   
     n  l   j            E        occ.                                          
     1  0  0.50     -8850.2468   2.0000                                         
     2  0  0.50     -1062.3498   2.0000                                         
     2  1  1.50      -916.8226   6.0000                                         
     3  0  0.50      -114.6929   2.0000                                         
     3  1  1.50       -72.1325   6.0000                                         
     3  2  2.50        -5.0394  10.0000                                         
     4  0  0.50        -4.6097   1.0000                                         
     4  1  0.50        -4.0817   0.0000                                         
     4  3  2.50        -1.3606   0.0000                                         
   Description                                                                  
     l       E           TYP  RCUT    TYP  RCUT                                 
     2     -5.0393973     23  2.200                                             
     2     10.8846608     23  2.200                                             
     0     -4.6097109     23  2.200                                             
     0      8.2520465     23  2.200                                             
     1     -2.7211652     23  2.200                                             
     1     21.7055443     23  2.200                                             
     3      2.7211652     23  2.300                                             
  local pseudopotential read in
  partial core-charges read in
  partial kinetic energy density read in
  atomic valenz-charges read in
  non local Contribution for L=           2  read in
    real space projection operators read in
  non local Contribution for L=           2  read in
    real space projection operators read in
  non local Contribution for L=           0  read in
    real space projection operators read in
  non local Contribution for L=           0  read in
    real space projection operators read in
  non local Contribution for L=           1  read in
    real space projection operators read in
  non local Contribution for L=           1  read in
    real space projection operators read in
    PAW grid and wavefunctions read in
 
   number of l-projection  operators is LMAX  =           6
   number of lm-projection operators is LMMAX =          18
 
 POTCAR:    PAW_PBE Ni 02Aug2007                  
   VRHFIN =Ni:                                                                  
   LEXCH  = PE                                                                  
   EATOM  =  1077.6739 eV,   79.2068 Ry                                         
                                                                                
   TITEL  = PAW_PBE Ni 02Aug2007                                                
   LULTRA =        F    use ultrasoft PP ?                                      
   IUNSCR =        1    unscreen: 0-lin 1-nonlin 2-no                           
   RPACOR =    2.000    partial core radius                                     
   POMASS =   58.690; ZVAL   =   10.000    mass and valenz                      
   RCORE  =    2.300    outmost cutoff radius                                   
   RWIGS  =    2.430; RWIGS  =    1.286    wigner-seitz radius (au A)           
   ENMAX  =  269.532; ENMIN  =  202.149 eV                                      
   RCLOC  =    1.201    cutoff for local pot                                    
   LCOR   =        T    correct aug charges                                     
   LPAW   =        T    paw PP                                                  
   EAUG   =  544.565                                                            
   DEXC   =    0.000                                                            
   RMAX   =    2.357    core radius for proj-oper                               
   RAUG   =    1.300    factor for augmentation sphere                          
   RDEP   =    2.390    radius for radial grids                                 
   RDEPT  =    1.838    core radius for aug-charge                              
                                                                                
   Atomic configuration                                                         
    9 entries                                                                   
     n  l   j            E        occ.                                          
     1  0  0.50     -8206.4253   2.0000                                         
     2  0  0.50      -976.1748   2.0000                                         
     2  1  1.50      -839.0571   6.0000                                         
     3  0  0.50      -105.9991   2.0000                                         
     3  1  1.50       -66.4603   6.0000                                         
     3  2  2.50        -4.6458   9.0000                                         
     4  0  0.50        -4.4926   1.0000                                         
     4  1  1.50        -4.0817   0.0000                                         
     4  3  2.50        -1.3606   0.0000                                         
   Description                                                                  
     l       E           TYP  RCUT    TYP  RCUT                                 
     2     -4.6457903     23  2.300                                             
     2     -6.0063729     23  2.300                                             
     0     -4.4925590     23  2.300                                             
     0      5.0102601     23  2.300                                             
     1     -2.7211652     23  2.300                                             
     1     16.5183231     23  2.300                                             
  local pseudopotential read in
  partial core-charges read in
  partial kinetic energy density read in
  atomic valenz-charges read in
  non local Contribution for L=           2  read in
    real space projection operators read in
  non local Contribution for L=           2  read in
    real space projection operators read in
  non local Contribution for L=           0  read in
    real space projection operators read in
  non local Contribution for L=           0  read in
    real space projection operators read in
  non local Contribution for L=           1  read in
    real space projection operators read in
  non local Contribution for L=           1  read in
    real space projection operators read in
    PAW grid and wavefunctions read in
 
   number of l-projection  operators is LMAX  =           6
   number of lm-projection operators is LMMAX =          18
 
 POTCAR:    PAW_PBE H 15Jun2001                   
   VRHFIN =H: ultrasoft test                                                    
   LEXCH  = PE                                                                  
   EATOM  =    12.4884 eV,    0.9179 Ry                                         
                                                                                
   TITEL  = PAW_PBE H 15Jun2001                                                 
   LULTRA =        F    use ultrasoft PP ?                                      
   IUNSCR =        0    unscreen: 0-lin 1-nonlin 2-no                           
   RPACOR =    0.000    partial core radius                                     
   POMASS =    1.000; ZVAL   =    1.000    mass and valenz                      
   RCORE  =    1.100    outmost cutoff radius                                   
   RWIGS  =    0.700; RWIGS  =    0.370    wigner-seitz radius (au A)           
   ENMAX  =  250.000; ENMIN  =  200.000 eV                                      
   RCLOC  =    0.701    cutoff for local pot                                    
   LCOR   =        T    correct aug charges                                     
   LPAW   =        T    paw PP                                                  
   EAUG   =  400.000                                                            
   RMAX   =    1.123    core radius for proj-oper                               
   RAUG   =    1.200    factor for augmentation sphere                          
   RDEP   =    1.112    radius for radial grids                                 
   RDEPT  =    0.926    core radius for aug-charge                              
                                                                                
   Atomic configuration                                                         
    2 entries                                                                   
     n  l   j            E        occ.                                          
     1  0  0.50        -6.4927   1.0000                                         
     2  1  0.50        -3.4015   0.0000                                         
   Description                                                                  
     l       E           TYP  RCUT    TYP  RCUT                                 
     0     -6.4927494     23  1.100                                             
     0      6.8029130     23  1.100                                             
     1     -4.0817478     23  1.100                                             
  local pseudopotential read in
  atomic valenz-charges read in
  non local Contribution for L=           0  read in
    real space projection operators read in
  non local Contribution for L=           0  read in
    real space projection operators read in
  non local Contribution for L=           1  read in
    real space projection operators read in
    PAW grid and wavefunctions read in
 
   number of l-projection  operators is LMAX  =           3
   number of lm-projection operators is LMMAX =           5
 
 Optimization of the real space projectors (new method)

 maximal supplied QI-value         = 14.36
 optimisation between [QCUT,QGAM] = [ 11.92, 23.98] = [ 39.79,161.09] Ry 
 Optimized for a Real-space Cutoff    1.49 Angstroem

   l    n(q)    QCUT    max X(q) W(low)/X(q) W(high)/X(q)  e(spline) 
   2     10    11.920    66.195    0.79E-04    0.18E-03    0.24E-06
   2     10    11.920    64.643    0.81E-04    0.19E-03    0.24E-06
   0     11    11.920    95.520    0.28E-04    0.54E-04    0.18E-06
   0     11    11.920    63.403    0.27E-04    0.52E-04    0.17E-06
   1     10    11.920    19.961    0.18E-04    0.11E-03    0.23E-06
   1     10    11.920    13.289    0.25E-04    0.87E-04    0.19E-06
 Optimization of the real space projectors (new method)

 maximal supplied QI-value         = 16.25
 optimisation between [QCUT,QGAM] = [ 11.86, 23.89] = [ 39.41,159.82] Ry 
 Optimized for a Real-space Cutoff    1.49 Angstroem

   l    n(q)    QCUT    max X(q) W(low)/X(q) W(high)/X(q)  e(spline) 
   2     10    11.864    80.901    0.13E-03    0.23E-03    0.37E-06
   2     10    11.864    75.754    0.13E-03    0.23E-03    0.38E-06
   0     11    11.864    58.752    0.44E-04    0.11E-04    0.20E-06
   0     11    11.864    30.679    0.36E-04    0.10E-04    0.18E-06
   1     10    11.864    17.977    0.31E-04    0.45E-04    0.10E-06
   1     10    11.864    13.559    0.25E-04    0.37E-04    0.89E-07
 Optimization of the real space projectors (new method)

 maximal supplied QI-value         = 16.25
 optimisation between [QCUT,QGAM] = [ 11.86, 23.89] = [ 39.41,159.82] Ry 
 Optimized for a Real-space Cutoff    1.33 Angstroem

   l    n(q)    QCUT    max X(q) W(low)/X(q) W(high)/X(q)  e(spline) 
   2      9    11.864    65.824    0.22E-03    0.53E-03    0.26E-06
   2      9    11.864    61.429    0.22E-03    0.53E-03    0.26E-06
   0      9    11.864    56.174    0.21E-03    0.32E-04    0.15E-06
   0      9    11.864    31.263    0.19E-03    0.30E-04    0.14E-06
   1      9    11.864    19.828    0.63E-04    0.30E-03    0.16E-06
   1      9    11.864    15.139    0.49E-04    0.25E-03    0.13E-06
 Optimization of the real space projectors (new method)

 maximal supplied QI-value         = 16.25
 optimisation between [QCUT,QGAM] = [ 11.86, 23.89] = [ 39.41,159.82] Ry 
 Optimized for a Real-space Cutoff    1.49 Angstroem

   l    n(q)    QCUT    max X(q) W(low)/X(q) W(high)/X(q)  e(spline) 
   2     10    11.864     4.610    0.10E-03    0.20E-03    0.29E-06
   2     10    11.864     8.522    0.17E-03    0.33E-03    0.50E-06
   0     11    11.864    51.609    0.52E-04    0.55E-04    0.33E-06
   0     11    11.864    27.747    0.46E-04    0.52E-04    0.31E-06
   1     10    11.864    20.408    0.54E-04    0.25E-04    0.21E-06
   1     10    11.864    13.425    0.48E-04    0.22E-04    0.18E-06
 Optimization of the real space projectors (new method)

 maximal supplied QI-value         = 16.25
 optimisation between [QCUT,QGAM] = [ 11.86, 23.89] = [ 39.41,159.82] Ry 
 Optimized for a Real-space Cutoff    1.33 Angstroem

   l    n(q)    QCUT    max X(q) W(low)/X(q) W(high)/X(q)  e(spline) 
   2      9    11.864    60.317    0.21E-03    0.51E-03    0.25E-06
   2      9    11.864    55.921    0.21E-03    0.51E-03    0.26E-06
   0      9    11.864    51.690    0.22E-03    0.30E-04    0.17E-06
   0      9    11.864    30.015    0.20E-03    0.28E-04    0.15E-06
   1      9    11.864    18.849    0.76E-04    0.33E-03    0.17E-06
   1      9    11.864    14.624    0.60E-04    0.28E-03    0.15E-06
 Optimization of the real space projectors (new method)

 maximal supplied QI-value         = 34.20
 optimisation between [QCUT,QGAM] = [ 11.97, 23.94] = [ 40.13,160.53] Ry 
 Optimized for a Real-space Cutoff    1.18 Angstroem

   l    n(q)    QCUT    max X(q) W(low)/X(q) W(high)/X(q)  e(spline) 
   0      8    11.971    19.460    0.15E-03    0.31E-03    0.25E-06
   0      8    11.971    12.209    0.13E-03    0.29E-03    0.25E-06
   1      8    11.971     4.655    0.22E-03    0.24E-03    0.21E-06
  PAW_PBE Pt 04Feb2005                  :
 energy of atom  1       EATOM= -729.1176
 kinetic energy error for atom=    0.0021 (will be added to EATOM!!)
  PAW_PBE Fe 06Sep2000                  :
 energy of atom  2       EATOM= -594.3153
 kinetic energy error for atom=    0.0024 (will be added to EATOM!!)
  PAW_PBE Co 02Aug2007                  :
 energy of atom  3       EATOM= -813.3670
 kinetic energy error for atom=    0.0026 (will be added to EATOM!!)
  PAW_PBE Cu 22Jun2005                  :
 energy of atom  4       EATOM=-1390.9808
 kinetic energy error for atom=    0.0036 (will be added to EATOM!!)
  PAW_PBE Ni 02Aug2007                  :
 energy of atom  5       EATOM=-1077.6739
 kinetic energy error for atom=    0.0027 (will be added to EATOM!!)
  PAW_PBE H 15Jun2001                   :
 energy of atom  6       EATOM=  -12.4884
 kinetic energy error for atom=    0.0008 (will be added to EATOM!!)
 
 
 POSCAR: 11.26                                   
  positions in direct lattice
  velocities in cartesian coordinates
 exchange correlation table for  LEXCH =        8
   RHO(1)=    0.500       N(1)  =     2000
   RHO(2)=  100.500       N(2)  =     4000
 


--------------------------------------------------------------------------------------------------------


 ion  position               nearest neighbor table
   1  0.782  0.872  0.305-  49 2.53  59 2.60  28 2.68  61 2.76   4 2.77  19 2.79  33 2.79   2 2.80
                            11 2.80  29 2.83  12 2.86  60 2.87
   2  0.032  0.871  0.299-  79 2.51  77 2.54  28 2.76  30 2.78  33 2.78   1 2.80   4 2.82  60 2.83
                             6 2.88  22 2.96  16 2.97  52 3.10
   3  0.277  0.362  0.314-  64 2.55  31 2.66  68 2.66  39 2.71   5 2.72  43 2.75  13 2.76  25 2.77
                            19 2.81  30 2.82  33 2.86  18 2.96
   4  0.867  0.959  0.405-  60 2.64  17 2.75   9 2.77  11 2.77   1 2.77   6 2.80  12 2.82   2 2.82
                            16 2.84
   5  0.109  0.464  0.413-  39 2.61  33 2.68  16 2.72  12 2.72   3 2.72   7 2.76  10 2.80  25 2.84
                            13 3.01
   6  0.120  0.952  0.407-  52 2.65  22 2.71   4 2.80  14 2.82   9 2.82  16 2.83   8 2.84   2 2.88
                            10 2.89
   7  0.872  0.448  0.416-  39 2.61  75 2.63  29 2.74   9 2.74   5 2.76  10 2.77  15 2.78  27 2.86
                            12 2.90
   8  0.373  0.953  0.414-  52 2.54  43 2.57  61 2.71  13 2.75  27 2.78  14 2.81  10 2.82  11 2.82
                             6 2.84
   9  0.870  0.205  0.407-  75 2.61  60 2.65   7 2.74  22 2.76  17 2.77   4 2.77  15 2.79   6 2.82
                            10 2.89
  10  0.125  0.207  0.413-  39 2.64  43 2.65  22 2.72  13 2.75   7 2.77   5 2.80   8 2.82   9 2.89
                             6 2.89
  11  0.625  0.949  0.412-  61 2.66  12 2.72  19 2.74   4 2.77  13 2.78   1 2.80   8 2.82  27 2.82
                            17 2.84
  12  0.868  0.708  0.412-  29 2.67  33 2.69   5 2.72  11 2.72  16 2.75   4 2.82  27 2.85   1 2.86
                             7 2.90
  13  0.376  0.196  0.415-  43 2.65  19 2.74   8 2.75  10 2.75   3 2.76  11 2.78  17 2.82  25 2.83
                             5 3.01
  14  0.373  0.703  0.407-  81 1.96  44 2.52  52 2.63  27 2.74  15 2.79   8 2.81   6 2.82  30 2.84
                            25 2.84  16 2.89
  15  0.621  0.454  0.412-  81 1.88  44 2.59  75 2.60  18 2.76  27 2.77   7 2.78   9 2.79  14 2.79
                            17 2.80  25 2.86
  16  0.116  0.703  0.412-  33 2.67   5 2.72  30 2.73  12 2.75  25 2.82   6 2.83   4 2.84  14 2.89
                             2 2.97
  17  0.623  0.204  0.410-  60 2.69  18 2.74   4 2.75   9 2.77  19 2.77  15 2.80  13 2.82  25 2.83
                            11 2.84
  18  0.536  0.373  0.310-  67 2.53  68 2.63  26 2.68  17 2.74  15 2.76  44 2.76  25 2.77  60 2.78
                            75 2.83  30 2.87  19 2.90   3 2.96
  19  0.531  0.117  0.311-  80 2.52  68 2.54  59 2.57  43 2.68  13 2.74  11 2.74  61 2.75  17 2.77
                             1 2.79   3 2.81  60 2.89  18 2.90
  20  0.557  0.109  0.059-  37 2.52  48 2.53  57 2.55  62 2.63  34 2.71  63 2.75  56 2.89  45 3.25

  21  0.093  0.426  0.123-  47 2.48  40 2.50  36 2.53  70 2.60  42 2.61  69 2.66  31 2.74  57 2.74
                            64 2.76  50 2.79
  22  0.051  0.124  0.311-  77 2.51  65 2.54  55 2.56  43 2.69   6 2.71  10 2.72  39 2.72   9 2.76
                            52 2.76  75 2.96   2 2.96  60 2.99  31 3.31
  23  0.024  0.112  0.042-  40 2.53  41 2.56  70 2.59  62 2.65  24 2.72  45 2.74  35 2.80  76 2.81
                            53 2.86
  24  0.129  0.948  0.141-  79 2.49  35 2.53  77 2.57  55 2.58  70 2.60  53 2.61  58 2.68  73 2.68
                            23 2.72  66 2.78  38 2.80  41 2.95
  25  0.367  0.452  0.412-   3 2.77  18 2.77  30 2.79  16 2.82  17 2.83  13 2.83   5 2.84  14 2.84
                            15 2.86
  26  0.446  0.559  0.220-  73 2.48  74 2.49  51 2.53  79 2.55  30 2.60  44 2.62  18 2.68  32 2.72
                            78 2.74  67 2.97  58 3.06  68 3.13  64 3.14
  27  0.617  0.702  0.413-  81 1.88  44 2.61  61 2.67  14 2.74  29 2.75  15 2.77   8 2.78  11 2.82
                            12 2.85   7 2.86
  28  0.950  0.757  0.209-  58 2.57  50 2.57  66 2.61  42 2.62  33 2.63   1 2.68  49 2.69   2 2.76
                            64 2.78
  29  0.795  0.615  0.316-  42 2.55  49 2.61  32 2.64  39 2.65  12 2.67  75 2.68  33 2.72   7 2.74
                            27 2.75   1 2.83  61 2.85  44 2.86
  30  0.271  0.617  0.308-  79 2.52  26 2.60  33 2.64  64 2.68  16 2.73   2 2.78  25 2.79   3 2.82
                            14 2.84  18 2.87  44 3.02  52 3.16
  31  0.189  0.266  0.225-  70 2.50  55 2.57  57 2.59  43 2.61  39 2.62  65 2.65   3 2.66  21 2.74
                            64 2.76  42 2.84  80 2.85  68 3.01  22 3.31
  32  0.693  0.549  0.221-  69 2.52  54 2.57  49 2.58  51 2.59  44 2.62  29 2.64  78 2.67  75 2.68
                            42 2.71  26 2.72  67 2.75  65 2.79  50 3.30
  33  0.032  0.625  0.314-  28 2.63  30 2.64  64 2.67  16 2.67   5 2.68  12 2.69  42 2.72  29 2.72
                             2 2.78   1 2.79  39 2.81   3 2.86
  34  0.791  0.861  0.064-  48 2.37  50 2.40  66 2.51  36 2.70  20 2.71  62 2.82  63 2.83  35 2.86

  35  0.050  0.852  0.056-  36 2.39  24 2.53  66 2.57  58 2.66  72 2.69  23 2.80  34 2.86  53 2.90
                            62 2.93
  36  0.048  0.640  0.066-  35 2.39  47 2.52  21 2.53  58 2.57  50 2.59  34 2.70  72 2.75
  37  0.628  0.231  0.134-  67 2.48  51 2.49  74 2.50  56 2.50  20 2.52  41 2.53  59 2.53  62 2.56
                            68 2.61  66 2.82
  38  0.378  0.948  0.136-  45 2.38  80 2.45  55 2.46  53 2.47  73 2.51  63 2.51  78 2.52  54 2.58
                            48 2.62  57 2.79  24 2.80  70 2.85
  39  0.029  0.377  0.320-   7 2.61  42 2.61   5 2.61  31 2.62  10 2.64  65 2.65  29 2.65   3 2.71
                            22 2.72  75 2.73  33 2.81  43 3.01
  40  0.980  0.356  0.044-  69 2.33  76 2.41  21 2.50  23 2.53  71 2.54  70 2.64  45 3.11
  41  0.864  0.208  0.134-  77 2.39  76 2.41  69 2.49  67 2.50  37 2.53  23 2.56  65 2.57  62 2.59
                            66 2.61  70 2.67  51 2.84  24 2.95
  42  0.945  0.527  0.221-  50 2.47  29 2.55  65 2.61  21 2.61  39 2.61  28 2.62  69 2.65  32 2.71
                            64 2.71  33 2.72  49 2.75  31 2.84
  43  0.298  0.108  0.320-  55 2.52  52 2.53   8 2.57  31 2.61  80 2.62  13 2.65  10 2.65  19 2.68
                            22 2.69  61 2.71   3 2.75  39 3.01
  44  0.539  0.617  0.319-  14 2.52  15 2.59  27 2.61  32 2.62  26 2.62  78 2.65  75 2.69  18 2.76
                            61 2.82  52 2.83  29 2.86  30 3.02
  45  0.273  0.099  0.052-  38 2.38  53 2.39  70 2.41  57 2.59  63 2.73  23 2.74  40 3.11  20 3.25

  46  0.533  0.620  0.050-  51 2.36  73 2.40  54 2.41  71 2.45  72 2.60  56 2.76  53 2.78  76 2.82
                            63 2.89
  47  0.277  0.422  0.059-  74 2.25  72 2.41  21 2.48  36 2.52  56 2.59  57 2.67
  48  0.621  0.927  0.141-  49 2.29  34 2.37  80 2.44  54 2.48  63 2.51  20 2.53  38 2.62  59 2.63
                            50 2.71
  49  0.703  0.775  0.220-  48 2.29  50 2.43  54 2.51   1 2.53  32 2.58  78 2.59  29 2.61  61 2.64
                            28 2.69  42 2.75  80 2.80
  50  0.841  0.670  0.130-  71 2.37  34 2.40  49 2.43  54 2.44  42 2.47  28 2.57  69 2.58  36 2.59
                            48 2.71  21 2.79  32 3.30
  51  0.611  0.461  0.131-  46 2.36  76 2.42  37 2.49  26 2.53  56 2.54  74 2.57  69 2.58  32 2.59
                            67 2.64  73 2.79  54 2.82  41 2.84
  52  0.301  0.882  0.318-  55 2.37  79 2.38  43 2.53  78 2.53   8 2.54  61 2.61  14 2.63   6 2.65
                            22 2.76  44 2.83   2 3.10  30 3.16
  53  0.294  0.876  0.048-  45 2.39  73 2.42  38 2.47  24 2.61  63 2.70  46 2.78  72 2.80  23 2.86
                            35 2.90
  54  0.604  0.716  0.131-  46 2.41  50 2.44  71 2.46  63 2.47  73 2.47  48 2.48  49 2.51  78 2.54
                            32 2.57  38 2.58  51 2.82  69 2.98
  55  0.236  0.017  0.228-  52 2.37  38 2.46  79 2.46  80 2.51  43 2.52  78 2.53  22 2.56  31 2.57
                            24 2.58  70 2.67  77 3.03
  56  0.524  0.379  0.043-  74 2.46  37 2.50  51 2.54  76 2.59  47 2.59  72 2.66  46 2.76  20 2.89

  57  0.355  0.208  0.134-  68 2.51  20 2.55  31 2.59  45 2.59  80 2.65  47 2.67  21 2.74  38 2.79
                            74 2.84  70 2.86
  58  0.173  0.691  0.152-  79 2.43  72 2.43  64 2.43  73 2.56  36 2.57  28 2.57  35 2.66  24 2.68
                            74 2.68  26 3.06
  59  0.692  0.057  0.219-  66 2.44  37 2.53  60 2.55  19 2.57   1 2.60  68 2.60  48 2.63  80 2.85
                            77 2.89
  60  0.784  0.126  0.311-  77 2.48  67 2.49  59 2.55   4 2.64   9 2.65  17 2.69  18 2.78   2 2.83
                             1 2.87  75 2.87  19 2.89  22 2.99
  61  0.540  0.868  0.316-  78 2.43  80 2.55  52 2.61  49 2.64  11 2.66  27 2.67  43 2.71   8 2.71
                            19 2.75   1 2.76  44 2.82  29 2.85
  62  0.788  0.110  0.045-  66 2.50  37 2.56  41 2.59  76 2.62  20 2.63  23 2.65  34 2.82  35 2.93

  63  0.533  0.878  0.044-  54 2.47  48 2.51  38 2.51  53 2.70  45 2.73  20 2.75  34 2.83  46 2.89

  64  0.196  0.508  0.218-  58 2.43   3 2.55  74 2.63  33 2.67  30 2.68  42 2.71  68 2.73  31 2.76
                            21 2.76  28 2.78  26 3.14
  65  0.939  0.298  0.225-  69 2.45  75 2.53  22 2.54  77 2.55  67 2.56  41 2.57  42 2.61  70 2.62
                            39 2.65  31 2.65  32 2.79
  66  0.870  0.973  0.141-  59 2.44  77 2.46  62 2.50  34 2.51  35 2.57  41 2.61  28 2.61  24 2.78
                            37 2.82
  67  0.712  0.295  0.226-  37 2.48  60 2.49  41 2.50  18 2.53  75 2.54  65 2.56  77 2.58  51 2.64
                            32 2.75  26 2.97
  68  0.451  0.278  0.221-  74 2.41  57 2.51  19 2.54  59 2.60  37 2.61  18 2.63   3 2.66  64 2.73
                            80 2.80  31 3.01  26 3.13
  69  0.852  0.435  0.132-  40 2.33  71 2.42  65 2.45  76 2.49  41 2.49  32 2.52  51 2.58  50 2.58
                            42 2.65  21 2.66  70 2.85  54 2.98
  70  0.111  0.187  0.135-  45 2.41  31 2.50  23 2.59  24 2.60  21 2.60  65 2.62  40 2.64  41 2.67
                            55 2.67  38 2.85  69 2.85  57 2.86
  71  0.764  0.591  0.047-  50 2.37  69 2.42  46 2.45  54 2.46  40 2.54  76 2.65
  72  0.300  0.624  0.056-  47 2.41  58 2.43  73 2.46  74 2.54  46 2.60  56 2.66  35 2.69  36 2.75
                            53 2.80
  73  0.380  0.724  0.134-  46 2.40  53 2.42  72 2.46  54 2.47  26 2.48  38 2.51  78 2.53  79 2.56
                            58 2.56  24 2.68  51 2.79
  74  0.394  0.439  0.138-  47 2.25  68 2.41  56 2.46  26 2.49  37 2.50  72 2.54  51 2.57  64 2.63
                            58 2.68  57 2.84
  75  0.783  0.382  0.318-  65 2.53  67 2.54  15 2.60   9 2.61   7 2.63  32 2.68  29 2.68  44 2.69
                            39 2.73  18 2.83  60 2.87  22 2.96
  76  0.767  0.354  0.047-  41 2.41  40 2.41  51 2.42  69 2.49  56 2.59  62 2.62  71 2.65  23 2.81
                            46 2.82
  77  0.944  0.068  0.223-  41 2.39  66 2.46  60 2.48  22 2.51   2 2.54  65 2.55  24 2.57  67 2.58
                            59 2.89  55 3.03
  78  0.463  0.794  0.228-  61 2.43  38 2.52  79 2.52  55 2.53  52 2.53  73 2.53  54 2.54  80 2.57
                            49 2.59  44 2.65  32 2.67  26 2.74
  79  0.236  0.798  0.232-  52 2.38  58 2.43  55 2.46  24 2.49   2 2.51  30 2.52  78 2.52  26 2.55
                            73 2.56
  80  0.455  0.026  0.224-  48 2.44  38 2.45  55 2.51  19 2.52  61 2.55  78 2.57  43 2.62  57 2.65
                            49 2.80  68 2.80  31 2.85  59 2.85
  81  0.538  0.617  0.458-  27 1.88  15 1.88  14 1.96
 
  LATTYP: Found a hexagonal cell.
 ALAT       =    11.2227001190
 C/A-ratio  =     1.9603125600
  
  Lattice vectors:
  
 A1 = (   5.6113500595,  -9.7191434021,   0.0000000000)
 A2 = ( -11.2227001190,   0.0000000000,   0.0000000000)
 A3 = (   0.0000000000,   0.0000000000, -22.0000000000)


Analysis of symmetry for initial positions (statically):
=====================================================================
 Subroutine PRICEL returns:
 Original cell was already a primitive cell.
 

 Routine SETGRP: Setting up the symmetry group for a 
 hexagonal supercell.


 Subroutine GETGRP returns: Found  1 space group operations
 (whereof  1 operations were pure point group operations)
 out of a pool of 24 trial point group operations.


The static configuration has the point symmetry C_1 .


Analysis of symmetry for dynamics (positions and initial velocities):
=====================================================================
 Subroutine PRICEL returns:
 Original cell was already a primitive cell.
 

 Routine SETGRP: Setting up the symmetry group for a 
 hexagonal supercell.


 Subroutine GETGRP returns: Found  1 space group operations
 (whereof  1 operations were pure point group operations)
 out of a pool of 24 trial point group operations.


The dynamic configuration has the point symmetry C_1 .


Analysis of constrained symmetry for selective dynamics:
=====================================================================
 Subroutine PRICEL returns:
 Original cell was already a primitive cell.
 

 Routine SETGRP: Setting up the symmetry group for a 
 hexagonal supercell.


 Subroutine GETGRP returns: Found  1 space group operations
 (whereof  1 operations were pure point group operations)
 out of a pool of 24 trial point group operations.


The constrained configuration has the point symmetry C_1 .


Analysis of structural, dynamic, and magnetic symmetry:
=====================================================================
 Subroutine PRICEL returns:
 Original cell was already a primitive cell.
 

 Routine SETGRP: Setting up the symmetry group for a 
 hexagonal supercell.


 Subroutine GETGRP returns: Found  1 space group operations
 (whereof  1 operations were pure point group operations)
 out of a pool of 24 trial point group operations.


The magnetic configuration has the point symmetry C_1 .


 Subroutine INISYM returns: Found  1 space group operations
 (whereof  1 operations are pure point group operations),
 and found     1 'primitive' translations

 
 
 KPOINTS: mesh auto                               

Automatic generation of k-mesh.
Space group operators:
 irot       det(A)        alpha          n_x          n_y          n_z        tau_x        tau_y        tau_z
    1     1.000000     0.000000     1.000000     0.000000     0.000000     0.000000     0.000000     0.000000
 
 Subroutine IBZKPT returns following result:
 ===========================================
 
 Found      4 irreducible k-points:
 
 Following reciprocal coordinates:
            Coordinates               Weight
  0.000000  0.000000  0.000000      1.000000
  0.500000  0.000000  0.000000      1.000000
  0.000000  0.500000  0.000000      1.000000
  0.500000  0.500000  0.000000      1.000000
 
 Following cartesian coordinates:
            Coordinates               Weight
  0.000000  0.000000  0.000000      1.000000
  0.044553 -0.025722  0.000000      1.000000
  0.000000  0.051445  0.000000      1.000000
  0.044553  0.025722  0.000000      1.000000
 


--------------------------------------------------------------------------------------------------------




 Dimension of arrays:
   k-points           NKPTS =      4   k-points in BZ     NKDIM =      4   number of bands    NBANDS=    588
   number of dos      NEDOS =    301   number of ions     NIONS =     81
   non local maximal  LDIM  =      6   non local SUM 2l+1 LMDIM =     18
   total plane-waves  NPLWV = ******
   max r-space proj   IRMAX =   7929   max aug-charges    IRDMAX=  34542
   dimension x,y,z NGX =    90 NGY =   90 NGZ =  168
   dimension x,y,z NGXF=   180 NGYF=  180 NGZF=  336
   support grid    NGXF=   180 NGYF=  180 NGZF=  336
   ions per type =              32  13  10  13  12   1
   NGX,Y,Z   is equivalent  to a cutoff of  13.33, 13.33, 12.70 a.u.
   NGXF,Y,Z  is equivalent  to a cutoff of  26.66, 26.66, 25.39 a.u.

 SYSTEM =  Pt111                                   
 POSCAR =  11.26                                   

 Startparameter for this run:
   NWRITE =      2    write-flag & timer
   PREC   = accura    normal or accurate (medium, high low for compatibility)
   ISTART =      0    job   : 0-new  1-cont  2-samecut
   ICHARG =      2    charge: 1-file 2-atom 10-const
   ISPIN  =      2    spin polarized calculation?
   LNONCOLLINEAR =      F non collinear calculations
   LSORBIT =      F    spin-orbit coupling
   INIWAV =      1    electr: 0-lowe 1-rand  2-diag
   LASPH  =      F    aspherical Exc in radial PAW
   METAGGA=      F    non-selfconsistent MetaGGA calc.

 Electronic Relaxation 1
   ENCUT  =  550.0 eV  40.42 Ry    6.36 a.u.  21.46 21.46 42.07*2*pi/ulx,y,z
   ENINI  =  550.0     initial cutoff
   ENAUG  =  587.0 eV  augmentation charge cutoff
   NELM   =    200;   NELMIN=  2; NELMDL= -5     # of ELM steps 
   EDIFF  = 0.1E-04   stopping-criterion for ELM
   LREAL  =      T    real-space projection
   NLSPLINE    = F    spline interpolate recip. space projectors
   LCOMPAT=      F    compatible to vasp.4.4
   GGA_COMPAT  = T    GGA compatible to vasp.4.4-vasp.4.6
   LMAXPAW     = -100 max onsite density
   LMAXMIX     =    2 max onsite mixed and CHGCAR
   VOSKOWN=      0    Vosko Wilk Nusair interpolation
   ROPT   =   -0.00025  -0.00025  -0.00025  -0.00025
   ROPT   =   -0.00025  -0.00025
 Ionic relaxation
   EDIFFG = -.5E-01   stopping-criterion for IOM
   NSW    =    300    number of steps for IOM
   NBLOCK =      1;   KBLOCK =    300    inner block; outer block 
   IBRION =      2    ionic relax: 0-MD 1-quasi-New 2-CG
   NFREE  =      1    steps in history (QN), initial steepest desc. (CG)
   ISIF   =      2    stress and relaxation
   IWAVPR =     11    prediction:  0-non 1-charg 2-wave 3-comb
   ISYM   =      2    0-nonsym 1-usesym 2-fastsym
   LCORR  =      T    Harris-Foulkes like correction to forces

   POTIM  = 0.5000    time-step for ionic-motion
   TEIN   =    0.0    initial temperature
   TEBEG  =    0.0;   TEEND  =   0.0 temperature during run
   SMASS  =  -3.00    Nose mass-parameter (am)
   estimated Nose-frequenzy (Omega)   =  0.10E-29 period in steps =****** mass=  -0.288E-26a.u.
   SCALEE = 1.0000    scale energy and forces
   NPACO  =    256;   APACO  = 16.0  distance and # of slots for P.C.
   PSTRESS=    0.0 pullay stress

  Mass of Ions in am
   POMASS = 195.08 55.85 58.93 63.55 58.69  1.00
  Ionic Valenz
   ZVAL   =  10.00  8.00  9.00 11.00 10.00  1.00
  Atomic Wigner-Seitz radii
   RWIGS  =  -1.00 -1.00 -1.00 -1.00 -1.00 -1.00
  virtual crystal weights 
   VCA    =   1.00  1.00  1.00  1.00  1.00  1.00
   NELECT =     778.0000    total number of electrons
   NUPDOWN=      -1.0000    fix difference up-down

 DOS related values:
   EMIN   =  10.00;   EMAX   =-10.00  energy-range for DOS
   EFERMI =   0.00
   ISMEAR =     1;   SIGMA  =   0.10  broadening in eV -4-tet -1-fermi 0-gaus

 Electronic relaxation 2 (details)
   IALGO  =     68    algorithm
   LDIAG  =      T    sub-space diagonalisation (order eigenvalues)
   LSUBROT=      F    optimize rotation matrix (better conditioning)
   TURBO    =      0    0=normal 1=particle mesh
   IRESTART =      0    0=no restart 2=restart with 2 vectors
   NREBOOT  =      0    no. of reboots
   NMIN     =      0    reboot dimension
   EREF     =   0.00    reference energy to select bands
   IMIX   =      4    mixing-type and parameters
     AMIX     =   0.40;   BMIX     =  1.00
     AMIX_MAG =   1.60;   BMIX_MAG =  1.00
     AMIN     =   0.10
     WC   =   100.;   INIMIX=   1;  MIXPRE=   1;  MAXMIX= -45

 Intra band minimization:
   WEIMIN = 0.0010     energy-eigenvalue tresh-hold
   EBREAK =  0.43E-08  absolut break condition
   DEPER  =   0.30     relativ break condition  

   TIME   =   0.40     timestep for ELM

  volume/ion in A,a.u.               =      29.63       199.92
  Fermi-wavevector in a.u.,A,eV,Ry     =   1.124653  2.125287 17.209264  1.264845
  Thomas-Fermi vector in A             =   2.261326
 
 Write flags
   LWAVE        =      F    write WAVECAR
   LDOWNSAMPLE  =      F    k-point downsampling of WAVECAR
   LCHARG       =      F    write CHGCAR
   LVTOT        =      F    write LOCPOT, total local potential
   LVHAR        =      F    write LOCPOT, Hartree potential only
   LELF         =      F    write electronic localiz. function (ELF)
   LORBIT       =      0    0 simple, 1 ext, 2 COOP (PROOUT), +10 PAW based schemes


 Dipole corrections
   LMONO  =      F    monopole corrections only (constant potential shift)
   LDIPOL =      F    correct potential (dipole corrections)
   IDIPOL =      0    1-x, 2-y, 3-z, 4-all directions 
   EPSILON=  1.0000000 bulk dielectric constant

 Exchange correlation treatment:
   GGA     =    --    GGA type
   LEXCH   =     8    internal setting for exchange type
   VOSKOWN=      0    Vosko Wilk Nusair interpolation
   LHFCALC =     F    Hartree Fock is set to
   LHFONE  =     F    Hartree Fock one center treatment
   AEXX    =    0.0000 exact exchange contribution

 Linear response parameters
   LEPSILON=     F    determine dielectric tensor
   LRPA    =     F    only Hartree local field effects (RPA)
   LNABLA  =     F    use nabla operator in PAW spheres
   LVEL    =     F    velocity operator in full k-point grid
   LINTERFAST=   F  fast interpolation
   KINTER  =     0    interpolate to denser k-point grid
   CSHIFT  =0.1000    complex shift for real part using Kramers Kronig
   OMEGAMAX=  -1.0    maximum frequency
   DEG_THRESHOLD= 0.2000000E-02 threshold for treating states as degnerate
   RTIME   =   -0.100 relaxation time in fs
  (WPLASMAI=    0.000 imaginary part of plasma frequency in eV, 0.658/RTIME)
   DFIELD  = 0.0000000 0.0000000 0.0000000 field for delta impulse in time
 
 Orbital magnetization related:
   ORBITALMAG=     F  switch on orbital magnetization
   LCHIMAG   =     F  perturbation theory with respect to B field
   DQ        =  0.001000  dq finite difference perturbation B field
   LLRAUG    =     F  two centre corrections for induced B field



--------------------------------------------------------------------------------------------------------


 conjugate gradient relaxation of ions
   using selective dynamics as specified on POSCAR
 charge density and potential will be updated during run
 spin polarized calculation
 RMM-DIIS sequential band-by-band and
  variant of blocked Davidson during initial phase
 perform sub-space diagonalisation
    before iterative eigenvector-optimisation
 modified Broyden-mixing scheme, WC =      100.0
 initial mixing is a Kerker type mixing with AMIX =  0.4000 and BMIX =      1.0000
 Hartree-type preconditioning will be used
 using additional bands          199
 real space projection scheme for non local part
 use partial core corrections
 calculate Harris-corrections to forces 
   (improved forces if not selfconsistent)
 use gradient corrections 
 use of overlap-Matrix (Vanderbilt PP)
 Methfessel and Paxton  Order N= 1 SIGMA  =   0.10


--------------------------------------------------------------------------------------------------------


  energy-cutoff  :      550.00
  volume of cell :     2399.65
      direct lattice vectors                 reciprocal lattice vectors
    11.222700119  0.000000000  0.000000000     0.089105116 -0.051444863  0.000000000
     5.611350060  9.719143402  0.000000000     0.000000000  0.102889726  0.000000000
     0.000000000  0.000000000 22.000000000     0.000000000  0.000000000  0.045454545

  length of vectors
    11.222700119 11.222700119 22.000000000     0.102889726  0.102889726  0.045454545


 
 k-points in units of 2pi/SCALE and weight: mesh auto                               
   0.00000000  0.00000000  0.00000000       0.250
   0.04455256 -0.02572243  0.00000000       0.250
   0.00000000  0.05144486  0.00000000       0.250
   0.04455256  0.02572243  0.00000000       0.250
 
 k-points in reciprocal lattice and weights: mesh auto                               
   0.00000000  0.00000000  0.00000000       0.250
   0.50000000  0.00000000  0.00000000       0.250
   0.00000000  0.50000000  0.00000000       0.250
   0.50000000  0.50000000  0.00000000       0.250
 
 position of ions in fractional coordinates (direct lattice) 
   0.78225925  0.87175704  0.30464220
   0.03196270  0.87139048  0.29942724
   0.27717653  0.36248677  0.31428094
   0.86735678  0.95891499  0.40522226
   0.10882273  0.46428949  0.41268263
   0.11968522  0.95236219  0.40713384
   0.87202942  0.44754229  0.41577790
   0.37254923  0.95261175  0.41445530
   0.86954442  0.20494928  0.40693607
   0.12538286  0.20716051  0.41304440
   0.62535414  0.94949553  0.41158484
   0.86799312  0.70773560  0.41229902
   0.37616089  0.19581600  0.41537290
   0.37277378  0.70289883  0.40692387
   0.62126398  0.45394865  0.41167164
   0.11589289  0.70266968  0.41176900
   0.62305473  0.20387381  0.40968500
   0.53593348  0.37260781  0.31003437
   0.53136198  0.11681190  0.31144139
   0.55692262  0.10867087  0.05929620
   0.09307450  0.42598565  0.12293655
   0.05131508  0.12434998  0.31087712
   0.02354762  0.11168372  0.04155547
   0.12934290  0.94753793  0.14102189
   0.36742576  0.45244596  0.41183372
   0.44637331  0.55905996  0.22016864
   0.61698331  0.70245615  0.41282095
   0.94964130  0.75661422  0.20918095
   0.79462958  0.61457450  0.31570220
   0.27051356  0.61689059  0.30818739
   0.18916729  0.26577042  0.22500552
   0.69331571  0.54941703  0.22131212
   0.03166147  0.62521089  0.31360566
   0.79089767  0.86073985  0.06435510
   0.04977444  0.85151792  0.05631440
   0.04826920  0.64045736  0.06647525
   0.62777074  0.23120905  0.13428462
   0.37821722  0.94839968  0.13570486
   0.02902327  0.37683547  0.31960174
   0.98045914  0.35575072  0.04365247
   0.86400499  0.20769280  0.13403509
   0.94513991  0.52665350  0.22111509
   0.29779801  0.10833909  0.32005193
   0.53877510  0.61682189  0.31873878
   0.27311239  0.09854881  0.05169877
   0.53344737  0.62035913  0.04989301
   0.27709958  0.42151638  0.05873407
   0.62105549  0.92704305  0.14079463
   0.70256414  0.77474047  0.22043961
   0.84112258  0.67046951  0.13000222
   0.61054862  0.46109348  0.13099914
   0.30052439  0.88165828  0.31763852
   0.29403624  0.87607977  0.04755154
   0.60419350  0.71580297  0.13078218
   0.23607313  0.01744661  0.22801544
   0.52427450  0.37929122  0.04256148
   0.35517448  0.20764286  0.13362546
   0.17310396  0.69108932  0.15152403
   0.69239094  0.05686880  0.21913015
   0.78439325  0.12592361  0.31061752
   0.53956147  0.86803746  0.31600492
   0.78831858  0.11030536  0.04466843
   0.53349640  0.87793834  0.04447670
   0.19566736  0.50762622  0.21805632
   0.93892711  0.29758564  0.22543502
   0.86994429  0.97289395  0.14053585
   0.71226583  0.29537725  0.22570431
   0.45081333  0.27787635  0.22064287
   0.85205380  0.43519614  0.13248332
   0.11139628  0.18699688  0.13457379
   0.76443045  0.59137860  0.04711528
   0.29982353  0.62410945  0.05627082
   0.38008827  0.72390987  0.13437281
   0.39368214  0.43926066  0.13808739
   0.78319827  0.38200675  0.31780027
   0.76664133  0.35423705  0.04671393
   0.94422288  0.06776962  0.22339891
   0.46282378  0.79411299  0.22762031
   0.23638717  0.79795330  0.23161990
   0.45533617  0.02622849  0.22369377
   0.53848630  0.61670747  0.45785863
 
 position of ions in cartesian coordinates  (Angst):
  13.67079483  8.47273165  6.70212839
   5.24838479  8.46916908  6.58739932
   5.14470922  3.52306085  6.91418074
  15.11489266  9.31983227  8.91488961
   3.82657572  4.51249617  9.07901783
   6.68722894  9.25614473  8.95694458
  12.29784112  4.34972765  9.14711381
   9.52644632  9.25857017  9.11801651
  10.90867844  1.99193148  8.95259354
   2.56958443  2.01342274  9.08697675
  12.34611380  9.22828326  9.05486639
  13.71257869  6.87858376  9.07057844
   5.32033301  1.90316380  9.13820384
   8.12773967  6.83157448  8.95232518
   9.51952410  4.41199204  9.05677616
   5.24355669  6.82934736  9.05891792
   8.13636373  1.98147884  9.01307011
   8.10545352  3.62142872  6.82075625
   6.61878862  1.13531161  6.85171064
   6.85996581  1.05618773  1.30451636
   3.43490181  4.14021561  2.70460400
   1.27366506  1.20857532  6.83929664
   0.89096431  1.08547011  0.91422026
   6.76854352  9.20925697  3.10248152
   6.66234181  4.39738717  9.06034185
   8.14659498  5.43358394  4.84371012
  10.86594598  6.82727201  9.08206089
  14.90316679  7.35364214  4.60198092
  12.36648215  5.97313773  6.94544851
   6.49748158  5.99564807  6.78012262
   3.61429860  2.58306084  4.95012137
  10.86384554  5.33986286  4.86886670
   3.86360437  6.07651427  6.89932458
  13.70591998  8.36565399  1.41581219
   5.33676874  8.27602479  1.23891672
   4.13554117  6.22469690  1.46245553
   8.34267765  2.24715390  2.95426165
   9.56642101  9.21763246  2.98550702
   2.44027518  3.66251800  7.03123828
  12.99964072  3.45759222  0.96035424
  10.86190596  2.01859611  2.94877201
  13.56225892  5.11862090  4.86453198
   3.95002630  1.05296315  7.04114245
   9.50771487  5.99498036  7.01225325
   3.61805025  0.95780999  1.13737292
   9.46777205  6.02935935  1.09764617
   5.47508143  4.09677819  1.29214950
  12.17188259  9.01006439  3.09748181
  12.23200665  7.52981374  4.84967140
  13.20190561  6.51638927  2.86004892
   9.43936095  4.48143362  2.88198110
   8.31998834  8.56896330  6.98804752
   8.21587077  8.51474490  1.04613384
  10.79730350  6.95699172  2.87720796
   2.74727701  0.16956608  5.01633965
   8.01211124  3.68638574  0.93635256
   5.15117345  2.01811075  2.93976007
   5.82063796  6.71679623  3.33352866
   8.08960660  0.55271604  4.82086337
   9.50961167  1.22386966  6.83358535
  10.92619864  8.43658055  6.95210830
   9.46602504  1.07207359  0.98270539
  10.91368944  8.53280861  0.97848749
   5.04438452  4.93369204  4.79723900
  12.20715453  2.89227750  4.95957041
  15.22237238  9.45569577  3.09178877
   9.65101098  2.87081385  4.96549483
   6.61860428  2.70072011  4.85414311
  12.00438214  4.22973372  2.91463294
   2.29947203  1.81744949  2.96062332
  11.89740601  5.74769339  1.03653615
   6.86692611  6.06580922  1.23795794
   8.32772832  7.03578381  2.95620177
   6.88302189  4.26923733  3.03792250
  10.93317296  3.71277837  6.99160589
  10.59153387  3.44288072  1.02770640
  10.97700931  0.65866264  4.91477592
   9.65017844  7.71809802  5.00764693
   7.13049760  7.75542255  5.09563785
   5.25727851  0.25491847  4.92126292
   9.50383178  5.99386836 10.07288980
 


--------------------------------------------------------------------------------------------------------


 k-point  1 :   0.0000 0.0000 0.0000  plane waves:   70321
 k-point  2 :   0.5000 0.0000 0.0000  plane waves:   70264
 k-point  3 :   0.0000 0.5000 0.0000  plane waves:   70264
 k-point  4 :   0.5000 0.5000 0.0000  plane waves:   70264

 maximum and minimum number of plane-waves per node :     17611    17530

 maximum number of plane-waves:     70321
 maximum index in each direction: 
   IXMAX=   21   IYMAX=   21   IZMAX=   42
   IXMIN=  -21   IYMIN=  -21   IZMIN=  -42


 real space projection operators:
  total allocation   :      79081.61 KBytes
  max/ min on nodes  :      20227.56      19318.32


 parallel 3D FFT for wavefunctions:
    minimum data exchange during FFTs selected (reduces bandwidth)
 parallel 3D FFT for charge:
    minimum data exchange during FFTs selected (reduces bandwidth)


 total amount of memory used by VASP MPI-rank0   252373. kBytes
=======================================================================

   base      :      30000. kBytes
   nonlr-proj:      35784. kBytes
   fftplans  :      18297. kBytes
   grid      :      55120. kBytes
   one-center:        653. kBytes
   wavefun   :     112519. kBytes
 
     INWAV:  cpu time    0.0000: real time    0.0000
 Broyden mixing: mesh for mixing (old mesh)
   NGX = 43   NGY = 43   NGZ = 85
  (NGX  =180   NGY  =180   NGZ  =336)
  gives a total of 157165 points

 initial charge density was supplied:
 charge density of overlapping atoms calculated
 number of electron     778.0000000 magnetization     231.0000000
 keeping initial charge density in first step


--------------------------------------------------------------------------------------------------------


 Maximum index for non-local projection operator         2119
 Maximum index for augmentation-charges         1122 (set IRDMAX)


--------------------------------------------------------------------------------------------------------


 First call to EWALD:  gamma=   0.132
 Maximum number of real-space cells 4x 4x 2
 Maximum number of reciprocal cells 2x 2x 4

    FEWALD:  cpu time    0.0046: real time    0.0046


--------------------------------------- Iteration      1(   1)  ---------------------------------------


    POTLOK:  cpu time    0.4289: real time    0.6025
    SETDIJ:  cpu time    0.0334: real time    0.0359
     EDDAV:  cpu time   66.2743: real time   66.5138
       DOS:  cpu time    0.0036: real time    0.1070
    --------------------------------------------
      LOOP:  cpu time   66.7402: real time   67.2592

 eigenvalue-minimisations  :  9408
 total energy-change (2. order) : 0.7542402E+04  (-0.3276718E+05)
 number of electron     778.0000000 magnetization     231.0000000
 augmentation part      778.0000000 magnetization     231.0000000

 Free energy of the ion-electron system (eV)
  ---------------------------------------------------
  alpha Z        PSCENC =      1982.35054298
  Ewald energy   TEWEN  =    223307.79411532
  -Hartree energ DENC   =   -294766.79544136
  -exchange      EXHF   =         0.00000000
  -V(xc)+E(xc)   XCENC  =      1372.85414154
  PAW double counting   =     64136.80006862   -66038.70876209
  entropy T*S    EENTRO =        -0.00319666
  eigenvalues    EBANDS =      7329.45605869
  atomic energy  EATOM  =     70218.65458108
  Solvation  Ediel_sol  =         0.00000000
  ---------------------------------------------------
  free energy    TOTEN  =      7542.40210812 eV

  energy without entropy =     7542.40530478  energy(sigma->0) =     7542.40317367


--------------------------------------------------------------------------------------------------------




--------------------------------------- Iteration      1(   2)  ---------------------------------------


     EDDAV:  cpu time   66.2665: real time   66.4639
       DOS:  cpu time    0.0026: real time    0.0032
    --------------------------------------------
      LOOP:  cpu time   66.2691: real time   66.4671

 eigenvalue-minimisations  :  9420
 total energy-change (2. order) :-0.6807180E+04  (-0.6110898E+04)
 number of electron     778.0000000 magnetization     231.0000000
 augmentation part      778.0000000 magnetization     231.0000000

 Free energy of the ion-electron system (eV)
  ---------------------------------------------------
  alpha Z        PSCENC =      1982.35054298
  Ewald energy   TEWEN  =    223307.79411532
  -Hartree energ DENC   =   -294766.79544136
  -exchange      EXHF   =         0.00000000
  -V(xc)+E(xc)   XCENC  =      1372.85414154
  PAW double counting   =     64136.80006862   -66038.70876209
  entropy T*S    EENTRO =        -0.00331121
  eigenvalues    EBANDS =       522.27594005
  atomic energy  EATOM  =     70218.65458108
  Solvation  Ediel_sol  =         0.00000000
  ---------------------------------------------------
  free energy    TOTEN  =       735.22187493 eV

  energy without entropy =      735.22518614  energy(sigma->0) =      735.22297867


--------------------------------------------------------------------------------------------------------




--------------------------------------- Iteration      1(   3)  ---------------------------------------


     EDDAV:  cpu time   66.9427: real time   67.1422
       DOS:  cpu time    0.0024: real time    0.0374
    --------------------------------------------
      LOOP:  cpu time   66.9451: real time   67.1796

 eigenvalue-minimisations  :  9408
 total energy-change (2. order) :-0.1111111E+04  (-0.9022330E+03)
 number of electron     778.0000000 magnetization     231.0000000
 augmentation part      778.0000000 magnetization     231.0000000

 Free energy of the ion-electron system (eV)
  ---------------------------------------------------
  alpha Z        PSCENC =      1982.35054298
  Ewald energy   TEWEN  =    223307.79411532
  -Hartree energ DENC   =   -294766.79544136
  -exchange      EXHF   =         0.00000000
  -V(xc)+E(xc)   XCENC  =      1372.85414154
  PAW double counting   =     64136.80006862   -66038.70876209
  entropy T*S    EENTRO =         0.00047713
  eigenvalues    EBANDS =      -588.83867897
  atomic energy  EATOM  =     70218.65458108
  Solvation  Ediel_sol  =         0.00000000
  ---------------------------------------------------
  free energy    TOTEN  =      -375.88895575 eV

  energy without entropy =     -375.88943287  energy(sigma->0) =     -375.88911479


--------------------------------------------------------------------------------------------------------




--------------------------------------- Iteration      1(   4)  ---------------------------------------


     EDDAV:  cpu time   80.2155: real time   80.4833
       DOS:  cpu time    0.0029: real time    0.0045
    --------------------------------------------
      LOOP:  cpu time   80.2185: real time   80.4878

 eigenvalue-minimisations  : 11988
 total energy-change (2. order) :-0.1102809E+03  (-0.1003362E+03)
 number of electron     778.0000000 magnetization     231.0000000
 augmentation part      778.0000000 magnetization     231.0000000

 Free energy of the ion-electron system (eV)
  ---------------------------------------------------
  alpha Z        PSCENC =      1982.35054298
  Ewald energy   TEWEN  =    223307.79411532
  -Hartree energ DENC   =   -294766.79544136
  -exchange      EXHF   =         0.00000000
  -V(xc)+E(xc)   XCENC  =      1372.85414154
  PAW double counting   =     64136.80006862   -66038.70876209
  entropy T*S    EENTRO =         0.01078166
  eigenvalues    EBANDS =      -699.12987592
  atomic energy  EATOM  =     70218.65458108
  Solvation  Ediel_sol  =         0.00000000
  ---------------------------------------------------
  free energy    TOTEN  =      -486.16984816 eV

  energy without entropy =     -486.18062982  energy(sigma->0) =     -486.17344205


--------------------------------------------------------------------------------------------------------




--------------------------------------- Iteration      1(   5)  ---------------------------------------


     EDDAV:  cpu time   76.0916: real time   76.3632
       DOS:  cpu time    0.0030: real time    0.0242
    CHARGE:  cpu time    4.4693: real time    4.4932
    MIXING:  cpu time    0.0112: real time    0.0113
    --------------------------------------------
      LOOP:  cpu time   80.5751: real time   80.8920

 eigenvalue-minimisations  : 11280
 total energy-change (2. order) :-0.4255223E+01  (-0.4217016E+01)
 number of electron     778.0000019 magnetization     216.6925853
 augmentation part      335.8982448 magnetization     183.4334539

 Broyden mixing:
  rms(total) = 0.11124E+02    rms(broyden)= 0.11124E+02
  rms(prec ) = 0.11512E+02
  weight for this iteration     100.00

 Free energy of the ion-electron system (eV)
  ---------------------------------------------------
  alpha Z        PSCENC =      1982.35054298
  Ewald energy   TEWEN  =    223307.79411532
  -Hartree energ DENC   =   -294766.79544136
  -exchange      EXHF   =         0.00000000
  -V(xc)+E(xc)   XCENC  =      1372.85414154
  PAW double counting   =     64136.80006862   -66038.70876209
  entropy T*S    EENTRO =         0.01097054
  eigenvalues    EBANDS =      -703.38528824
  atomic energy  EATOM  =     70218.65458108
  Solvation  Ediel_sol  =         0.00000000
  ---------------------------------------------------
  free energy    TOTEN  =      -490.42507160 eV

  energy without entropy =     -490.43604214  energy(sigma->0) =     -490.42872845


--------------------------------------------------------------------------------------------------------




--------------------------------------- Iteration      1(   6)  ---------------------------------------


    POTLOK:  cpu time    0.4063: real time    0.4086
    SETDIJ:  cpu time    0.0330: real time    0.0331
    EDDIAG:  cpu time   12.0759: real time   12.1111
  RMM-DIIS:  cpu time   43.2535: real time   43.3830
    ORTHCH:  cpu time    1.3237: real time    1.3273
       DOS:  cpu time    0.0025: real time    0.0025
    CHARGE:  cpu time    4.3597: real time    4.3738
    MIXING:  cpu time    0.0114: real time    0.0119
    --------------------------------------------
      LOOP:  cpu time   61.4660: real time   61.6513

 eigenvalue-minimisations  :  9686
 total energy-change (2. order) :-0.2557762E+03  (-0.1032044E+03)
 number of electron     778.0000023 magnetization     213.1841669
 augmentation part      407.5785154 magnetization     177.7083885

 Broyden mixing:
  rms(total) = 0.21363E+02    rms(broyden)= 0.21362E+02
  rms(prec ) = 0.28084E+02
  weight for this iteration     100.00

 eigenvalues of (default mixing * dielectric matrix)
  average eigenvalue GAMMA=   0.1874
  0.1874

 Free energy of the ion-electron system (eV)
  ---------------------------------------------------
  alpha Z        PSCENC =      1982.35054298
  Ewald energy   TEWEN  =    223307.79411532
  -Hartree energ DENC   =   -293175.68422398
  -exchange      EXHF   =         0.00000000
  -V(xc)+E(xc)   XCENC  =      1332.47919781
  PAW double counting   =     68344.66237761   -70021.58449819
  entropy T*S    EENTRO =        -0.00787964
  eigenvalues    EBANDS =     -2734.86552713
  atomic energy  EATOM  =     70218.65458108
  Solvation  Ediel_sol  =         0.00000000
  ---------------------------------------------------
  free energy    TOTEN  =      -746.20131415 eV

  energy without entropy =     -746.19343452  energy(sigma->0) =     -746.19868761


--------------------------------------------------------------------------------------------------------




--------------------------------------- Iteration      1(   7)  ---------------------------------------


    POTLOK:  cpu time    0.4093: real time    0.4117
    SETDIJ:  cpu time    0.0328: real time    0.0328
    EDDIAG:  cpu time   12.0238: real time   12.0645
  RMM-DIIS:  cpu time   42.1420: real time   42.2704
    ORTHCH:  cpu time    1.3226: real time    1.3266
       DOS:  cpu time    0.0024: real time    0.0024
    CHARGE:  cpu time    4.3374: real time    4.3516
    MIXING:  cpu time    0.0122: real time    0.0123
    --------------------------------------------
      LOOP:  cpu time   60.2823: real time   60.4722

 eigenvalue-minimisations  :  9433
 total energy-change (2. order) : 0.2791550E+03  (-0.1591005E+02)
 number of electron     778.0000021 magnetization     208.2777868
 augmentation part      375.4773790 magnetization     164.1579827

 Broyden mixing:
  rms(total) = 0.13545E+02    rms(broyden)= 0.13545E+02
  rms(prec ) = 0.17107E+02
  weight for this iteration     100.00

 eigenvalues of (default mixing * dielectric matrix)
  average eigenvalue GAMMA=   0.2639
  0.3521  0.1758

 Free energy of the ion-electron system (eV)
  ---------------------------------------------------
  alpha Z        PSCENC =      1982.35054298
  Ewald energy   TEWEN  =    223307.79411532
  -Hartree energ DENC   =   -293820.40326217
  -exchange      EXHF   =         0.00000000
  -V(xc)+E(xc)   XCENC  =      1350.79845214
  PAW double counting   =     69250.51883531   -71074.74247707
  entropy T*S    EENTRO =         0.00568418
  eigenvalues    EBANDS =     -1682.02281097
  atomic energy  EATOM  =     70218.65458108
  Solvation  Ediel_sol  =         0.00000000
  ---------------------------------------------------
  free energy    TOTEN  =      -467.04633921 eV

  energy without entropy =     -467.05202338  energy(sigma->0) =     -467.04823393


--------------------------------------------------------------------------------------------------------




--------------------------------------- Iteration      1(   8)  ---------------------------------------


    POTLOK:  cpu time    0.4058: real time    0.4158
    SETDIJ:  cpu time    0.0325: real time    0.0327
    EDDIAG:  cpu time   12.0277: real time   12.0674
  RMM-DIIS:  cpu time   42.2456: real time   42.3738
    ORTHCH:  cpu time    1.3210: real time    1.3257
       DOS:  cpu time    0.0026: real time    0.0026
    CHARGE:  cpu time    4.2518: real time    4.2660
    MIXING:  cpu time    0.0121: real time    0.0123
    --------------------------------------------
      LOOP:  cpu time   60.2992: real time   60.4963

 eigenvalue-minimisations  :  9436
 total energy-change (2. order) : 0.4216150E+01  (-0.1575977E+02)
 number of electron     778.0000023 magnetization     200.9498982
 augmentation part      376.2486619 magnetization     162.5173889

 Broyden mixing:
  rms(total) = 0.15796E+02    rms(broyden)= 0.15796E+02
  rms(prec ) = 0.18345E+02
  weight for this iteration     100.00

 eigenvalues of (default mixing * dielectric matrix)
  average eigenvalue GAMMA=   0.3213
  0.6066  0.2691  0.0881

 Free energy of the ion-electron system (eV)
  ---------------------------------------------------
  alpha Z        PSCENC =      1982.35054298
  Ewald energy   TEWEN  =    223307.79411532
  -Hartree energ DENC   =   -294006.33815095
  -exchange      EXHF   =         0.00000000
  -V(xc)+E(xc)   XCENC  =      1359.92444805
  PAW double counting   =     70409.74264000   -72316.77616357
  entropy T*S    EENTRO =        -0.00050202
  eigenvalues    EBANDS =     -1418.18169964
  atomic energy  EATOM  =     70218.65458108
  Solvation  Ediel_sol  =         0.00000000
  ---------------------------------------------------
  free energy    TOTEN  =      -462.83018876 eV

  energy without entropy =     -462.82968674  energy(sigma->0) =     -462.83002142


--------------------------------------------------------------------------------------------------------




--------------------------------------- Iteration      1(   9)  ---------------------------------------


    POTLOK:  cpu time    0.4095: real time    0.4117
    SETDIJ:  cpu time    0.0327: real time    0.0327
    EDDIAG:  cpu time   12.0893: real time   12.1261
  RMM-DIIS:  cpu time   42.2957: real time   42.4326
    ORTHCH:  cpu time    1.3225: real time    1.3285
       DOS:  cpu time    0.0025: real time    0.0025
    CHARGE:  cpu time    4.3401: real time    4.3542
    MIXING:  cpu time    0.0127: real time    0.0129
    --------------------------------------------
      LOOP:  cpu time   60.5053: real time   60.7015

 eigenvalue-minimisations  :  9443
 total energy-change (2. order) : 0.6976135E+02  (-0.1676731E+02)
 number of electron     778.0000018 magnetization     193.7858503
 augmentation part      379.0634150 magnetization     144.5854632

 Broyden mixing:
  rms(total) = 0.12967E+02    rms(broyden)= 0.12967E+02
  rms(prec ) = 0.14683E+02
  weight for this iteration     100.00

 eigenvalues of (default mixing * dielectric matrix)
  average eigenvalue GAMMA=   0.3463
  0.7943  0.3647  0.1130  0.1130

 Free energy of the ion-electron system (eV)
  ---------------------------------------------------
  alpha Z        PSCENC =      1982.35054298
  Ewald energy   TEWEN  =    223307.79411532
  -Hartree energ DENC   =   -293872.19095952
  -exchange      EXHF   =         0.00000000
  -V(xc)+E(xc)   XCENC  =      1377.64884843
  PAW double counting   =     71720.33107517   -73684.99402140
  entropy T*S    EENTRO =        -0.00026871
  eigenvalues    EBANDS =     -1442.66275270
  atomic energy  EATOM  =     70218.65458108
  Solvation  Ediel_sol  =         0.00000000
  ---------------------------------------------------
  free energy    TOTEN  =      -393.06883935 eV

  energy without entropy =     -393.06857064  energy(sigma->0) =     -393.06874978


--------------------------------------------------------------------------------------------------------




--------------------------------------- Iteration      1(  10)  ---------------------------------------


    POTLOK:  cpu time    0.4096: real time    0.4121
    SETDIJ:  cpu time    0.0327: real time    0.0329
    EDDIAG:  cpu time   12.0697: real time   12.1069
  RMM-DIIS:  cpu time   42.3811: real time   42.5084
    ORTHCH:  cpu time    1.3164: real time    1.3228
       DOS:  cpu time    0.0027: real time    0.0027
    CHARGE:  cpu time    4.2986: real time    4.3128
    MIXING:  cpu time    0.0127: real time    0.0129
    --------------------------------------------
[...]
   -.213E+02 0.517E+02 -.269E+04   0.216E+02 -.512E+02 0.269E+04   -.303E+00 -.560E+00 0.155E+01   -.167E-01 0.145E-01 -.458E-02
   -.367E+02 -.169E+01 -.272E+04   0.357E+02 0.289E+01 0.272E+04   0.954E+00 -.119E+01 0.240E+01   -.235E-01 -.134E-01 0.155E-01
   0.444E+02 0.431E+01 -.269E+04   -.442E+02 -.513E+01 0.269E+04   -.135E+00 0.772E+00 0.207E+01   -.531E-01 0.432E-01 0.498E-01
   -.246E+02 -.168E+02 -.280E+04   0.251E+02 0.155E+02 0.280E+04   -.478E+00 0.135E+01 0.279E+01   -.403E-01 -.152E-01 0.224E-01
   0.307E+02 -.798E+01 -.283E+04   -.312E+02 0.873E+01 0.283E+04   0.426E+00 -.777E+00 0.317E+01   0.387E-01 0.371E-01 0.956E-01
   -.325E+02 0.513E+02 -.275E+04   0.319E+02 -.509E+02 0.275E+04   0.507E+00 -.436E+00 0.212E+01   -.627E-02 0.354E-01 0.301E-02
   0.152E+02 0.324E+01 -.276E+04   -.142E+02 -.283E+01 0.276E+04   -.921E+00 -.447E+00 0.276E+01   -.381E-02 0.479E-01 0.393E-01
   -.534E+02 -.108E+02 -.277E+04   0.535E+02 0.101E+02 0.277E+04   -.220E+00 0.612E+00 0.179E+01   0.309E-01 0.415E-01 0.364E-01
   -.401E+02 -.963E+01 -.272E+04   0.402E+02 0.939E+01 0.272E+04   -.108E-01 0.240E+00 0.205E+01   -.395E-01 -.216E-02 0.127E-01
   -.873E+01 -.566E+02 -.278E+04   0.854E+01 0.556E+02 0.278E+04   0.171E+00 0.968E+00 0.216E+01   0.142E-01 -.138E-02 0.300E-01
   0.730E+02 0.229E+02 -.270E+04   -.728E+02 -.219E+02 0.270E+04   -.199E+00 -.966E+00 0.203E+01   0.170E-01 -.415E-01 0.644E-01
   0.476E+02 0.729E+01 -.277E+04   -.471E+02 -.712E+01 0.277E+04   -.526E+00 -.694E-01 0.158E+01   0.723E-01 -.771E-01 0.191E-02
   -.628E+01 -.167E+02 -.270E+04   0.600E+01 0.160E+02 0.269E+04   0.308E+00 0.731E+00 0.203E+01   -.369E-01 -.152E-01 0.234E-01
   0.257E+02 -.451E+01 -.276E+04   -.255E+02 0.478E+01 0.276E+04   -.181E+00 -.268E+00 0.212E+01   -.448E-02 -.228E-01 0.772E-02
   0.863E+02 -.677E+02 -.141E+04   -.850E+02 0.683E+02 0.140E+04   -.126E+01 -.497E+00 0.150E+01   0.763E-02 -.540E-01 0.206E-01
   -.363E+01 -.392E+02 -.143E+04   0.253E+01 0.388E+02 0.143E+04   0.109E+01 0.402E+00 0.244E+01   0.440E-01 0.150E-01 -.523E-02
   0.996E+02 -.570E+01 0.273E+04   -.981E+02 0.433E+01 -.272E+04   -.155E+01 0.142E+01 -.296E+01   0.140E-01 -.426E-01 -.640E-02
   -.673E+02 -.690E+02 0.176E+04   0.665E+02 0.695E+02 -.176E+04   0.902E+00 -.435E+00 0.154E+01   -.258E-01 0.513E-01 -.465E-01
   -.194E+02 0.274E+02 -.142E+04   0.204E+02 -.272E+02 0.142E+04   -.928E+00 -.277E+00 0.203E+01   -.574E-01 0.842E-01 0.197E-01
   -.678E+02 0.905E+02 0.291E+04   0.684E+02 -.892E+02 -.291E+04   -.502E+00 -.141E+01 -.230E+01   -.261E-01 -.478E-02 -.398E-01
   0.742E+02 -.265E+02 0.142E+04   -.739E+02 0.260E+02 -.142E+04   -.267E+00 0.502E+00 -.804E+00   -.674E-01 -.201E-01 -.826E-01
   0.665E+01 -.211E+02 -.272E+04   -.738E+01 0.207E+02 0.272E+04   0.743E+00 0.494E+00 0.211E+01   0.885E-02 -.413E-01 0.143E-01
   0.531E+02 0.598E+02 -.513E+02   -.529E+02 -.593E+02 0.509E+02   -.350E+00 -.476E+00 0.496E+00   -.912E-02 -.374E-01 -.340E-01
   -.264E+02 0.192E+02 -.278E+04   0.263E+02 -.188E+02 0.277E+04   -.267E-01 -.452E+00 0.191E+01   0.459E-01 -.360E-01 0.335E-01
   -.249E+02 0.118E+02 0.276E+03   0.239E+02 -.135E+02 -.275E+03   0.993E+00 0.168E+01 -.736E+00   0.379E-01 -.428E-02 -.780E-01
   -.814E+02 -.119E+02 -.143E+04   0.819E+02 0.108E+02 0.143E+04   -.562E+00 0.121E+01 0.248E+01   0.898E-02 -.685E-01 0.668E-01
   0.390E+02 0.132E+02 -.137E+04   -.394E+02 -.125E+02 0.137E+04   0.498E+00 -.615E+00 0.171E+01   -.360E-01 -.344E-01 -.198E-01
   -.302E+02 -.790E+02 -.292E+02   0.295E+02 0.786E+02 0.296E+02   0.810E+00 0.342E+00 -.339E+00   0.318E-01 0.519E-01 -.304E-01
   -.329E+02 -.201E+02 -.135E+02   0.335E+02 0.208E+02 0.131E+02   -.551E+00 -.696E+00 0.436E+00   0.369E-02 -.738E-01 -.647E-01
   0.110E+01 -.212E+01 -.108E+04   -.986E+00 0.226E+01 0.108E+04   -.115E+00 -.602E-01 0.177E+00   -.261E-02 -.158E-01 -.175E-01
   -.687E+02 0.806E+02 0.217E+04   0.697E+02 -.807E+02 -.216E+04   -.887E+00 0.617E-01 -.309E+01   -.449E-02 -.116E-01 -.100E-01
   0.795E+02 0.322E+02 0.223E+04   -.797E+02 -.335E+02 -.223E+04   0.355E+00 0.136E+01 -.282E+01   -.296E-01 -.173E-01 -.257E-01
   0.114E+03 0.440E+01 0.212E+04   -.113E+03 -.345E+01 -.211E+04   -.111E+01 -.907E+00 -.202E+01   -.175E-01 0.360E-01 -.219E-01
   0.811E+02 0.909E+02 0.119E+04   -.803E+02 -.901E+02 -.119E+04   -.833E+00 -.844E+00 0.763E-01   0.299E-02 -.268E-01 -.330E-01
   -.853E+01 -.111E+03 0.121E+04   0.858E+01 0.111E+03 -.121E+04   -.188E+00 0.558E+00 -.694E+00   0.561E-01 -.609E-02 -.815E-01
   -.703E+02 -.283E+02 -.117E+04   0.704E+02 0.285E+02 0.117E+04   -.653E-01 -.214E+00 0.569E-01   -.227E-01 0.255E-01 0.131E-01
   -.253E+03 -.243E+02 0.237E+04   0.251E+03 0.239E+02 -.237E+04   0.279E+01 0.420E+00 -.415E+01   -.214E-01 0.335E-01 -.977E-02
   -.321E+02 0.735E+02 0.121E+04   0.313E+02 -.731E+02 -.121E+04   0.830E+00 -.526E+00 -.602E+00   -.197E-01 0.155E-01 -.432E-01
   -.106E+03 -.274E+02 0.251E+02   0.105E+03 0.279E+02 -.248E+02   0.376E+00 -.524E+00 -.339E+00   0.978E-02 -.205E-01 -.539E-01
   0.956E+01 -.931E+02 -.121E+04   -.985E+01 0.930E+02 0.120E+04   0.267E+00 0.103E+00 0.344E+00   0.443E-01 0.585E-01 0.211E-01
   0.419E+02 0.112E+02 -.121E+04   -.421E+02 -.115E+02 0.121E+04   0.808E-01 0.367E+00 -.973E-01   0.309E-01 -.721E-01 -.104E-01
   -.833E+02 -.156E+03 0.229E+04   0.812E+02 0.153E+03 -.229E+04   0.206E+01 0.310E+01 -.366E+01   0.155E-01 -.740E-02 -.455E-01
   0.134E+02 -.513E+02 0.264E+04   -.136E+02 0.516E+02 -.263E+04   0.423E-01 -.238E+00 -.301E+01   0.396E-01 -.352E-03 -.380E-01
   0.233E+03 0.979E+02 0.253E+04   -.232E+03 -.955E+02 -.253E+04   -.665E+00 -.241E+01 -.312E+01   -.962E-02 0.259E-01 -.246E-01
   -.111E+03 -.725E+02 0.128E+04   0.110E+03 0.716E+02 -.128E+04   0.960E+00 0.947E+00 0.705E-01   0.235E-01 0.228E-01 -.117E+00
   -.135E+03 0.139E+02 0.285E+02   0.135E+03 -.140E+02 -.285E+02   -.460E-01 0.477E-02 0.693E-01   0.190E-01 0.554E-02 -.104E+00
   -.210E+03 -.157E+02 0.145E+04   0.210E+03 0.165E+02 -.145E+04   -.353E+00 -.828E+00 0.742E-01   0.287E-02 -.116E-01 -.118E+00
   0.647E+01 -.631E+01 0.131E+04   -.633E+01 0.597E+01 -.131E+04   -.152E+00 0.481E+00 -.381E+00   0.435E-01 -.944E-02 -.571E-01
   0.926E+02 0.407E+02 -.140E+04   -.921E+02 -.404E+02 0.140E+04   -.624E+00 -.273E+00 0.323E+00   0.228E-01 -.428E-01 0.141E-01
   0.771E+02 -.440E+02 0.263E+04   -.765E+02 0.444E+02 -.263E+04   -.658E+00 -.484E+00 -.318E+01   -.359E-02 -.584E-02 -.600E-01
   -.714E+02 -.870E+01 0.138E+04   0.713E+02 0.907E+01 -.138E+04   -.956E-01 -.406E+00 -.463E+00   0.407E-01 -.202E-01 -.115E+00
   0.560E+02 -.100E+03 -.286E+02   -.552E+02 0.999E+02 0.291E+02   -.778E+00 0.409E+00 -.449E+00   -.559E-02 0.278E-01 -.684E-01
   0.131E+03 0.937E+02 0.327E+04   -.131E+03 -.922E+02 -.327E+04   -.216E-01 -.148E+01 -.482E+01   0.263E-01 -.383E-02 -.339E-01
   0.371E+02 -.217E+02 0.179E+04   -.374E+02 0.215E+02 -.179E+04   0.268E+00 0.313E+00 0.455E+00   0.378E-01 -.166E-01 -.465E-01
   0.239E+03 -.343E+02 0.132E+04   -.239E+03 0.348E+02 -.132E+04   0.512E+00 -.486E+00 0.603E+00   -.569E-01 0.211E-02 -.734E-01
   0.296E+02 0.118E+03 0.154E+03   -.303E+02 -.118E+03 -.153E+03   0.685E+00 -.512E+00 -.525E+00   0.885E-02 0.232E-01 -.603E-01
   0.718E+01 0.839E+02 -.158E+04   -.671E+01 -.839E+02 0.158E+04   -.439E+00 -.476E-01 0.485E+00   -.277E-01 0.312E-01 0.383E-02
   -.654E+02 0.349E+02 -.164E+04   0.647E+02 -.348E+02 0.164E+04   0.704E+00 -.100E+00 0.134E+01   0.712E-01 0.489E-01 0.651E-01
   0.663E+02 0.171E+03 0.319E+04   -.660E+02 -.171E+03 -.319E+04   -.356E+00 -.135E+00 -.363E+01   -.802E-02 -.245E-01 -.140E-01
   -.103E+03 -.883E+02 0.324E+04   0.101E+03 0.890E+02 -.324E+04   0.118E+01 -.801E+00 -.451E+01   0.434E-01 -.248E-01 -.423E-02
   0.109E+03 -.329E+02 0.103E+03   -.109E+03 0.328E+02 -.102E+03   0.424E+00 0.511E-01 -.107E+01   -.903E-02 0.617E-02 -.435E-01
   -.149E+03 -.227E+02 -.496E+02   0.148E+03 0.221E+02 0.500E+02   0.518E+00 0.451E+00 -.431E+00   -.518E-01 0.513E-01 -.281E-01
   0.344E+02 0.202E+03 0.156E+04   -.343E+02 -.201E+03 -.156E+04   -.308E-01 -.803E+00 -.112E+01   -.258E-01 -.124E-01 -.782E-01
   0.860E+02 -.546E+02 -.209E+02   -.856E+02 0.535E+02 0.212E+02   -.481E+00 0.133E+01 -.367E+00   0.745E-02 -.117E-01 -.840E-02
   0.537E+02 -.333E+02 0.443E+02   -.532E+02 0.330E+02 -.438E+02   -.561E+00 0.400E+00 -.467E+00   0.893E-02 -.186E-01 -.315E-01
   -.148E+03 -.417E+02 0.148E+04   0.147E+03 0.421E+02 -.147E+04   0.338E+00 -.384E+00 -.670E+00   -.632E-02 0.347E-01 -.695E-01
   -.805E+02 -.130E+02 0.153E+04   0.811E+02 0.127E+02 -.153E+04   -.587E+00 0.345E+00 -.669E+00   -.162E-01 0.417E-01 -.785E-01
   -.234E+03 -.103E+03 0.295E+04   0.233E+03 0.102E+03 -.294E+04   0.114E+01 0.974E+00 -.335E+01   0.417E-02 0.114E-01 0.142E-01
   0.145E+03 -.765E+02 0.285E+04   -.145E+03 0.767E+02 -.285E+04   0.402E+00 -.145E+00 -.813E+00   -.224E-01 0.239E-01 -.541E-01
   0.419E+02 -.255E+02 0.149E+04   -.416E+02 0.256E+02 -.149E+04   -.338E+00 0.320E-01 0.185E+00   0.887E-02 -.208E-01 -.846E-01
   0.123E+03 0.256E+02 0.137E+04   -.122E+03 -.257E+02 -.137E+04   -.949E+00 0.260E+00 -.879E+00   -.372E-02 -.729E-02 -.320E-01
   -.197E+02 -.348E+02 -.151E+04   0.196E+02 0.351E+02 0.151E+04   0.140E+00 -.327E+00 -.786E-01   -.188E-01 -.892E-02 0.330E-01
   -.271E+02 0.262E+02 0.291E+04   0.275E+02 -.256E+02 -.291E+04   -.350E+00 -.623E+00 -.174E+01   0.182E-01 0.186E-01 -.117E-01
   -.392E+02 0.166E+03 0.124E+02   0.395E+02 -.167E+03 -.117E+02   -.203E+00 0.469E-01 -.711E+00   -.567E-01 0.128E-01 -.367E-01
   -.164E+02 0.564E+02 -.865E+02   0.163E+02 -.556E+02 0.866E+02   0.124E+00 -.849E+00 -.884E-01   0.146E-01 -.409E-01 -.100E+00
   0.161E+03 0.277E+01 -.197E+03   -.161E+03 -.203E+01 0.197E+03   0.201E-01 -.705E+00 -.462E+00   -.797E-01 -.450E-01 -.853E-01
   -.444E+02 -.919E+02 0.535E+02   0.438E+02 0.915E+02 -.533E+02   0.424E+00 0.363E+00 -.131E+00   0.682E-01 0.525E-01 -.754E-01
   0.551E+01 -.120E+01 -.324E+03   -.573E+01 0.141E+01 0.325E+03   0.181E+00 -.196E+00 -.137E+01   0.498E-02 -.348E-02 0.559E-02
 -----------------------------------------------------------------------------------------------
   -.426E+01 0.972E+00 0.696E+01   0.296E-12 0.393E-12 -.597E-11   0.419E+01 -.954E+00 -.521E+01   0.639E-01 -.323E-01 -.177E+01
 
 
 POSITION                                       TOTAL-FORCE (eV/Angst)
 -----------------------------------------------------------------------------------
     13.66623      8.46786      6.70298        -0.001967      0.001673     -0.007776
      5.24657      8.46564      6.59243        -0.003698      0.002810      0.001503
      5.14369      3.52710      6.91201        -0.001803      0.003395     -0.002546
     15.14089      9.30729      8.91988         0.006193     -0.007507      0.004089
      3.82384      4.51414      9.08794         0.000879      0.003594      0.003729
      6.68359      9.21498      8.92252         0.006760     -0.013541     -0.008007
     12.31823      4.33545      9.14847        -0.003611     -0.004746     -0.000573
      9.50763      9.28295      9.12115        -0.000932      0.001662      0.001908
     10.90435      1.98093      8.95025         0.001325     -0.000281     -0.011679
      2.57631      2.01416      9.09046         0.000727      0.004464     -0.003617
     12.34185      9.23374      9.05251        -0.002525      0.001688     -0.002821
     13.71861      6.87770      9.07358         0.000529      0.001462      0.002026
      5.32319      1.90552      9.13794        -0.001797     -0.003025      0.003803
      8.06939      6.85991      9.00628        -0.004298     -0.003184     -0.008146
      9.50958      4.37131      9.10882         0.002821     -0.003090     -0.012986
      5.25249      6.85115      9.02122        -0.001562     -0.001201     -0.000046
      8.12980      1.97592      9.01623         0.003641      0.000608     -0.000528
      8.11367      3.62891      6.82678        -0.004395     -0.006532      0.000043
      6.62235      1.13747      6.84840        -0.003165     -0.005089      0.000405
      6.85997      1.05619      1.30452        -0.004811     -0.008479     -0.011471
      3.43490      4.14022      2.70460         0.000199     -0.006398      0.004011
      1.27392      1.21951      6.83369         0.006679      0.002119     -0.000504
      0.89096      1.08547      0.91422         0.019885      0.017906     -0.011446
      6.76854      9.20926      3.10248         0.011258      0.021479      0.002685
      6.63065      4.38399      9.06644         0.005633      0.003829      0.001700
      8.14659      5.43358      4.84371         0.014686      0.025557      0.071578
     10.90729      6.86545      9.12691        -0.001555     -0.006518     -0.011783
     14.90317      7.35364      4.60198         0.001374     -0.011075     -0.013579
     12.35423      5.96961      6.94544        -0.000744     -0.000042     -0.007387
      6.51230      6.00242      6.79745         0.010295     -0.001144     -0.010955
      3.61430      2.58306      4.95012         0.007046      0.015045     -0.041654
     10.86385      5.33986      4.86887        -0.058189      0.002501      0.046761
      3.86969      6.08287      6.90446         0.002009     -0.001644      0.008359
     13.70592      8.36565      1.41581        -0.008581     -0.008094      0.001268
      5.33677      8.27602      1.23892        -0.002358     -0.014530     -0.039177
      4.13554      6.22470      1.46246         0.000163      0.010695      0.012317
      8.34268      2.24715      2.95426        -0.006182     -0.017212     -0.002295
      9.56642      9.21763      2.98551        -0.005221      0.002667     -0.000179
      2.43900      3.66144      7.02907         0.000433     -0.005228     -0.009748
     12.99964      3.45759      0.96035         0.001157      0.007143     -0.013885
     10.86191      2.01860      2.94877         0.002409      0.010072      0.001224
     13.56226      5.11862      4.86453        -0.009866      0.007166     -0.000706
      3.95669      1.05842      7.03699        -0.006768     -0.002693     -0.002497
      9.51000      5.99261      7.03118        -0.003256      0.002603      0.005136
      3.61805      0.95781      1.13737         0.006691     -0.000819     -0.023033
      9.46777      6.02936      1.09765        -0.019172     -0.001530      0.027737
      5.47508      4.09678      1.29215         0.017939     -0.008459     -0.004215
     12.17188      9.01006      3.09748         0.014590      0.008098     -0.003335
     12.23201      7.52981      4.84967        -0.011931     -0.031868      0.005765
     13.20191      6.51639      2.86005         0.019429      0.004287     -0.000389
      9.43936      4.48143      2.88198         0.022508      0.030481      0.008134
      8.31797      8.56300      6.99574         0.007557     -0.007036     -0.008837
      8.21587      8.51474      1.04613         0.018768     -0.011144      0.018034
     10.79730      6.95699      2.87721        -0.025350     -0.021747     -0.008217
      2.74728      0.16957      5.01634        -0.000476     -0.018407      0.020081
      8.01211      3.68639      0.93635         0.018277      0.004651      0.007337
      5.15117      2.01811      2.93976        -0.001834     -0.003176      0.006843
      5.82064      6.71680      3.33353         0.004340     -0.004686      0.015139
      8.08961      0.55272      4.82086        -0.005781     -0.007998     -0.002572
      9.50423      1.22262      6.83012        -0.001897      0.004459      0.006520
     10.92346      8.43136      6.95367         0.010401      0.008771      0.000502
      9.46603      1.07207      0.98271        -0.019798      0.019153     -0.005244
     10.91369      8.53281      0.97849        -0.008454     -0.011636      0.003471
      5.04438      4.93369      4.79724         0.023194      0.021116     -0.000111
     12.20715      2.89228      4.95957        -0.010099     -0.004854     -0.015065
     15.22237      9.45570      3.09179        -0.013275      0.004974     -0.000155
      9.65101      2.87081      4.96549        -0.010789      0.000447      0.034460
      6.61860      2.70072      4.85414         0.014303      0.019991     -0.003432
     12.00438      4.22973      2.91463        -0.001288     -0.009298      0.011872
      2.29947      1.81745      2.96062         0.007347     -0.010561      0.001733
     11.89741      5.74769      1.03654        -0.013187      0.013699     -0.009774
      6.86693      6.06581      1.23796         0.027090     -0.010097     -0.005908
      8.32773      7.03578      2.95620         0.022132     -0.006952     -0.029837
      6.88302      4.26924      3.03792         0.000841     -0.001609      0.015940
     10.93437      3.71909      6.99374         0.001105     -0.004183     -0.007778
     10.59153      3.44288      1.02771        -0.008900      0.013111     -0.004555
     10.97701      0.65866      4.91478        -0.013851     -0.011263     -0.003956
      9.65018      7.71810      5.00765         0.001962     -0.010260      0.022419
      7.13050      7.75542      5.09564        -0.004630      0.025732      0.023805
      5.25728      0.25492      4.92126        -0.008522     -0.010589     -0.003284
      9.49628      5.98160      9.94853        -0.028054      0.010315     -0.026649
 -----------------------------------------------------------------------------------
    total drift:                               -0.001179     -0.014836     -0.019338


--------------------------------------------------------------------------------------------------------



  FREE ENERGIE OF THE ION-ELECTRON SYSTEM (eV)
  ---------------------------------------------------
  free  energy   TOTEN  =      -501.60789493 eV

  energy  without entropy=     -501.62721912  energy(sigma->0) =     -501.61433633
 
 d Force = 0.7345328E-03[ 0.419E-03, 0.105E-02]  d Energy = 0.7683534E-03-0.338E-04
 d Force =-0.7817496E+01[-0.783E+01,-0.781E+01]  d Ewald  =-0.7817495E+01-0.103E-05


--------------------------------------------------------------------------------------------------------


    POTLOK:  cpu time    0.4419: real time    0.4438


--------------------------------------------------------------------------------------------------------


 Conjugate gradient step on ions:
 trial-energy change:   -0.000768  1 .order   -0.000735   -0.001050   -0.000419
  (g-gl).g = 0.645E-03      g.g   = 0.589E-03  gl.gl    = 0.130E-02
 g(Force)  = 0.589E-03   g(Stress)= 0.000E+00 ortho     =-0.208E-04
 gamma     =   0.49554
 trial     =   1.81587
 opt step  =   3.02111  (harmonic =   3.02111) maximal distance =0.00336301
 next E    =  -501.608000   (d E  =  -0.00087)


--------------------------------------------------------------------------------------------------------


  
 reached required accuracy - stopping structural energy minimisation
     LOOP+:  cpu time  556.1506: real time  559.4988
    4ORBIT:  cpu time    0.0000: real time    0.0000

 total amount of memory used by VASP MPI-rank0   252373. kBytes
=======================================================================

   base      :      30000. kBytes
   nonlr-proj:      35784. kBytes
   fftplans  :      18297. kBytes
   grid      :      55120. kBytes
   one-center:        653. kBytes
   wavefun   :     112519. kBytes
 
  
  
 General timing and accounting informations for this job:
 ========================================================
  
                  Total CPU time used (sec):    13686.131
                            User time (sec):    13314.425
                          System time (sec):      371.705
                         Elapsed time (sec):    13765.941
  
                   Maximum memory used (kb):      441748.
                   Average memory used (kb):           0.
  
                          Minor page faults:      2956405
                          Major page faults:          340
                 Voluntary context switches:        10491
