 vasp.5.4.4.18Apr17-6-g9f103f2a35 (build Oct 25 2019 11:13:22) complex          
  
 executed on             LinuxIFC date 2021.10.14  19:36:49
 running on   48 total cores
 distrk:  each k-point on   48 cores,    1 groups
 distr:  one band on NCORES_PER_BAND=   4 cores,   12 groups


--------------------------------------------------------------------------------------------------------


 INCAR:
 POTCAR:    PAW_PBE Pt 04Feb2005                  
 POTCAR:    PAW_PBE Fe 06Sep2000                  
 POTCAR:    PAW_PBE Co 02Aug2007                  
 POTCAR:    PAW_PBE Cu 22Jun2005                  
 POTCAR:    PAW_PBE Ni 02Aug2007                  
 POTCAR:    PAW_PBE H 15Jun2001                   
 POTCAR:    PAW_PBE Pt 04Feb2005                  
   VRHFIN =Pt: s1d9                                                             
   LEXCH  = PE                                                                  
   EATOM  =   729.1176 eV,   53.5886 Ry                                         
                                                                                
   TITEL  = PAW_PBE Pt 04Feb2005                                                
   LULTRA =        F    use ultrasoft PP ?                                      
   IUNSCR =        1    unscreen: 0-lin 1-nonlin 2-no                           
   RPACOR =    2.330    partial core radius                                     
   POMASS =  195.080; ZVAL   =   10.000    mass and valenz                      
   RCORE  =    2.600    outmost cutoff radius                                   
   RWIGS  =    2.750; RWIGS  =    1.455    wigner-seitz radius (au A)           
   ENMAX  =  230.283; ENMIN  =  172.712 eV                                      
   ICORE  =        3    local potential                                         
   LCOR   =        T    correct aug charges                                     
   LPAW   =        T    paw PP                                                  
   EAUG   =  358.966                                                            
   DEXC   =    0.000                                                            
   RMAX   =    2.658    core radius for proj-oper                               
   RAUG   =    1.300    factor for augmentation sphere                          
   RDEP   =    2.761    radius for radial grids                                 
   RDEPT  =    2.203    core radius for aug-charge                              
                                                                                
   Atomic configuration                                                         
   16 entries                                                                   
     n  l   j            E        occ.                                          
     1  0  0.50    -78401.1885   2.0000                                         
     2  0  0.50    -13770.7750   2.0000                                         
     2  1  1.50    -11931.0468   6.0000                                         
     3  0  0.50     -3234.7234   2.0000                                         
     3  1  1.50     -2699.2216   6.0000                                         
     3  2  2.50     -2119.5714  10.0000                                         
     4  0  0.50      -695.1528   2.0000                                         
     4  1  1.50      -519.6034   6.0000                                         
     4  2  2.50      -306.6786  10.0000                                         
     4  3  3.50       -70.1041  14.0000                                         
     5  0  0.50      -101.7747   2.0000                                         
     5  1  1.50       -55.9873   6.0000                                         
     5  2  2.50        -6.1423   9.0000                                         
     6  0  0.50        -5.6573   1.0000                                         
     6  1  1.50        -6.8029   0.0000                                         
     5  3  2.50        -1.3606   0.0000                                         
   Description                                                                  
     l       E           TYP  RCUT    TYP  RCUT                                 
     2     -6.1423404     23  2.500                                             
     2     -7.5029230     23  2.500                                             
     0     -5.6573207     23  2.500                                             
     0      0.7416693     23  2.500                                             
     1     -2.7211652     23  2.600                                             
     1     20.4087390     23  2.600                                             
     3     -1.3605826     23  2.500                                             
  local pseudopotential read in
  partial core-charges read in
  partial kinetic energy density read in
  atomic valenz-charges read in
  non local Contribution for L=           2  read in
    real space projection operators read in
  non local Contribution for L=           2  read in
    real space projection operators read in
  non local Contribution for L=           0  read in
    real space projection operators read in
  non local Contribution for L=           0  read in
    real space projection operators read in
  non local Contribution for L=           1  read in
    real space projection operators read in
  non local Contribution for L=           1  read in
    real space projection operators read in
    PAW grid and wavefunctions read in
 
   number of l-projection  operators is LMAX  =           6
   number of lm-projection operators is LMMAX =          18
 
 POTCAR:    PAW_PBE Fe 06Sep2000                  
   VRHFIN =Fe:  d7 s1                                                           
   LEXCH  = PE                                                                  
   EATOM  =   594.3153 eV,   43.6809 Ry                                         
                                                                                
   TITEL  = PAW_PBE Fe 06Sep2000                                                
   LULTRA =        F    use ultrasoft PP ?                                      
   IUNSCR =        1    unscreen: 0-lin 1-nonlin 2-no                           
   RPACOR =    2.000    partial core radius                                     
   POMASS =   55.847; ZVAL   =    8.000    mass and valenz                      
   RCORE  =    2.300    outmost cutoff radius                                   
   RWIGS  =    2.460; RWIGS  =    1.302    wigner-seitz radius (au A)           
   ENMAX  =  267.882; ENMIN  =  200.911 eV                                      
   RCLOC  =    1.701    cutoff for local pot                                    
   LCOR   =        T    correct aug charges                                     
   LPAW   =        T    paw PP                                                  
   EAUG   =  511.368                                                            
   DEXC   =    0.000                                                            
   RMAX   =    2.356    core radius for proj-oper                               
   RAUG   =    1.300    factor for augmentation sphere                          
   RDEP   =    2.442    radius for radial grids                                 
   RDEPT  =    1.890    core radius for aug-charge                              
                                                                                
   Atomic configuration                                                         
    9 entries                                                                   
     n  l   j            E        occ.                                          
     1  0  0.50     -6993.8440   2.0000                                         
     2  0  0.50      -814.6047   2.0000                                         
     2  1  1.50      -693.3689   6.0000                                         
     3  0  0.50       -89.4732   2.0000                                         
     3  1  1.50       -55.6373   6.0000                                         
     3  2  2.50        -3.8151   7.0000                                         
     4  0  0.50        -4.2551   1.0000                                         
     4  1  1.50        -3.4015   0.0000                                         
     4  3  2.50        -1.3606   0.0000                                         
   Description                                                                  
     l       E           TYP  RCUT    TYP  RCUT                                 
     2     -3.8151135     23  2.300                                             
     2     -5.1756961     23  2.300                                             
     0     -4.2550963     23  2.300                                             
     0      7.2035603     23  2.300                                             
     1     -2.7211652     23  2.300                                             
     1     18.4316424     23  2.300                                             
  local pseudopotential read in
  partial core-charges read in
  partial kinetic energy density read in
  atomic valenz-charges read in
  non local Contribution for L=           2  read in
    real space projection operators read in
  non local Contribution for L=           2  read in
    real space projection operators read in
  non local Contribution for L=           0  read in
    real space projection operators read in
  non local Contribution for L=           0  read in
    real space projection operators read in
  non local Contribution for L=           1  read in
    real space projection operators read in
  non local Contribution for L=           1  read in
    real space projection operators read in
    PAW grid and wavefunctions read in
 
   number of l-projection  operators is LMAX  =           6
   number of lm-projection operators is LMMAX =          18
 
 POTCAR:    PAW_PBE Co 02Aug2007                  
   VRHFIN =Co: d8 s1                                                            
   LEXCH  = PE                                                                  
   EATOM  =   813.3670 eV,   59.7808 Ry                                         
                                                                                
   TITEL  = PAW_PBE Co 02Aug2007                                                
   LULTRA =        F    use ultrasoft PP ?                                      
   IUNSCR =        1    unscreen: 0-lin 1-nonlin 2-no                           
   RPACOR =    2.000    partial core radius                                     
   POMASS =   58.933; ZVAL   =    9.000    mass and valenz                      
   RCORE  =    2.300    outmost cutoff radius                                   
   RWIGS  =    2.460; RWIGS  =    1.302    wigner-seitz radius (au A)           
   ENMAX  =  267.968; ENMIN  =  200.976 eV                                      
   RCLOC  =    1.203    cutoff for local pot                                    
   LCOR   =        T    correct aug charges                                     
   LPAW   =        T    paw PP                                                  
   EAUG   =  477.818                                                            
   DEXC   =    0.000                                                            
   RMAX   =    2.360    core radius for proj-oper                               
   RAUG   =    1.300    factor for augmentation sphere                          
   RDEP   =    2.393    radius for radial grids                                 
   RDEPT  =    1.864    core radius for aug-charge                              
                                                                                
   Atomic configuration                                                         
    9 entries                                                                   
     n  l   j            E        occ.                                          
     1  0  0.50     -7587.6674   2.0000                                         
     2  0  0.50      -893.6084   2.0000                                         
     2  1  1.50      -764.5805   6.0000                                         
     3  0  0.50       -97.5973   2.0000                                         
     3  1  1.50       -60.9648   6.0000                                         
     3  2  2.50        -4.2382   8.0000                                         
     4  0  0.50        -4.3746   1.0000                                         
     4  1  1.50        -4.0817   0.0000                                         
     4  3  2.50        -1.3606   0.0000                                         
   Description                                                                  
     l       E           TYP  RCUT    TYP  RCUT                                 
     2     -4.2382362     23  2.300                                             
     2     -5.5988188     23  2.300                                             
     0     -4.3745797     23  2.300                                             
     0      5.7660125     23  2.300                                             
     1     -2.7211652     23  2.300                                             
     1     16.9860234     23  2.300                                             
  local pseudopotential read in
  partial core-charges read in
  partial kinetic energy density read in
  atomic valenz-charges read in
  non local Contribution for L=           2  read in
    real space projection operators read in
  non local Contribution for L=           2  read in
    real space projection operators read in
  non local Contribution for L=           0  read in
    real space projection operators read in
  non local Contribution for L=           0  read in
    real space projection operators read in
  non local Contribution for L=           1  read in
    real space projection operators read in
  non local Contribution for L=           1  read in
    real space projection operators read in
    PAW grid and wavefunctions read in
 
   number of l-projection  operators is LMAX  =           6
   number of lm-projection operators is LMMAX =          18
 
 POTCAR:    PAW_PBE Cu 22Jun2005                  
   VRHFIN =Cu: d10 p1                                                           
   LEXCH  = PE                                                                  
   EATOM  =  1390.9808 eV,  102.2342 Ry                                         
                                                                                
   TITEL  = PAW_PBE Cu 22Jun2005                                                
   LULTRA =        F    use ultrasoft PP ?                                      
   IUNSCR =        1    unscreen: 0-lin 1-nonlin 2-no                           
   RPACOR =    2.000    partial core radius                                     
   POMASS =   63.546; ZVAL   =   11.000    mass and valenz                      
   RCORE  =    2.300    outmost cutoff radius                                   
   RWIGS  =    2.200; RWIGS  =    1.164    wigner-seitz radius (au A)           
   ENMAX  =  295.446; ENMIN  =  221.585 eV                                      
   ICORE  =        3    local potential                                         
   LCOR   =        T    correct aug charges                                     
   LPAW   =        T    paw PP                                                  
   EAUG   =  586.980                                                            
   DEXC   =    0.000                                                            
   RMAX   =    2.344    core radius for proj-oper                               
   RAUG   =    1.300    factor for augmentation sphere                          
   RDEP   =    2.302    radius for radial grids                                 
   RDEPT  =    1.771    core radius for aug-charge                              
                                                                                
   Atomic configuration                                                         
    9 entries                                                                   
     n  l   j            E        occ.                                          
     1  0  0.50     -8850.2468   2.0000                                         
     2  0  0.50     -1062.3498   2.0000                                         
     2  1  1.50      -916.8226   6.0000                                         
     3  0  0.50      -114.6929   2.0000                                         
     3  1  1.50       -72.1325   6.0000                                         
     3  2  2.50        -5.0394  10.0000                                         
     4  0  0.50        -4.6097   1.0000                                         
     4  1  0.50        -4.0817   0.0000                                         
     4  3  2.50        -1.3606   0.0000                                         
   Description                                                                  
     l       E           TYP  RCUT    TYP  RCUT                                 
     2     -5.0393973     23  2.200                                             
     2     10.8846608     23  2.200                                             
     0     -4.6097109     23  2.200                                             
     0      8.2520465     23  2.200                                             
     1     -2.7211652     23  2.200                                             
     1     21.7055443     23  2.200                                             
     3      2.7211652     23  2.300                                             
  local pseudopotential read in
  partial core-charges read in
  partial kinetic energy density read in
  atomic valenz-charges read in
  non local Contribution for L=           2  read in
    real space projection operators read in
  non local Contribution for L=           2  read in
    real space projection operators read in
  non local Contribution for L=           0  read in
    real space projection operators read in
  non local Contribution for L=           0  read in
    real space projection operators read in
  non local Contribution for L=           1  read in
    real space projection operators read in
  non local Contribution for L=           1  read in
    real space projection operators read in
    PAW grid and wavefunctions read in
 
   number of l-projection  operators is LMAX  =           6
   number of lm-projection operators is LMMAX =          18
 
 POTCAR:    PAW_PBE Ni 02Aug2007                  
   VRHFIN =Ni:                                                                  
   LEXCH  = PE                                                                  
   EATOM  =  1077.6739 eV,   79.2068 Ry                                         
                                                                                
   TITEL  = PAW_PBE Ni 02Aug2007                                                
   LULTRA =        F    use ultrasoft PP ?                                      
   IUNSCR =        1    unscreen: 0-lin 1-nonlin 2-no                           
   RPACOR =    2.000    partial core radius                                     
   POMASS =   58.690; ZVAL   =   10.000    mass and valenz                      
   RCORE  =    2.300    outmost cutoff radius                                   
   RWIGS  =    2.430; RWIGS  =    1.286    wigner-seitz radius (au A)           
   ENMAX  =  269.532; ENMIN  =  202.149 eV                                      
   RCLOC  =    1.201    cutoff for local pot                                    
   LCOR   =        T    correct aug charges                                     
   LPAW   =        T    paw PP                                                  
   EAUG   =  544.565                                                            
   DEXC   =    0.000                                                            
   RMAX   =    2.357    core radius for proj-oper                               
   RAUG   =    1.300    factor for augmentation sphere                          
   RDEP   =    2.390    radius for radial grids                                 
   RDEPT  =    1.838    core radius for aug-charge                              
                                                                                
   Atomic configuration                                                         
    9 entries                                                                   
     n  l   j            E        occ.                                          
     1  0  0.50     -8206.4253   2.0000                                         
     2  0  0.50      -976.1748   2.0000                                         
     2  1  1.50      -839.0571   6.0000                                         
     3  0  0.50      -105.9991   2.0000                                         
     3  1  1.50       -66.4603   6.0000                                         
     3  2  2.50        -4.6458   9.0000                                         
     4  0  0.50        -4.4926   1.0000                                         
     4  1  1.50        -4.0817   0.0000                                         
     4  3  2.50        -1.3606   0.0000                                         
   Description                                                                  
     l       E           TYP  RCUT    TYP  RCUT                                 
     2     -4.6457903     23  2.300                                             
     2     -6.0063729     23  2.300                                             
     0     -4.4925590     23  2.300                                             
     0      5.0102601     23  2.300                                             
     1     -2.7211652     23  2.300                                             
     1     16.5183231     23  2.300                                             
  local pseudopotential read in
  partial core-charges read in
  partial kinetic energy density read in
  atomic valenz-charges read in
  non local Contribution for L=           2  read in
    real space projection operators read in
  non local Contribution for L=           2  read in
    real space projection operators read in
  non local Contribution for L=           0  read in
    real space projection operators read in
  non local Contribution for L=           0  read in
    real space projection operators read in
  non local Contribution for L=           1  read in
    real space projection operators read in
  non local Contribution for L=           1  read in
    real space projection operators read in
    PAW grid and wavefunctions read in
 
   number of l-projection  operators is LMAX  =           6
   number of lm-projection operators is LMMAX =          18
 
 POTCAR:    PAW_PBE H 15Jun2001                   
   VRHFIN =H: ultrasoft test                                                    
   LEXCH  = PE                                                                  
   EATOM  =    12.4884 eV,    0.9179 Ry                                         
                                                                                
   TITEL  = PAW_PBE H 15Jun2001                                                 
   LULTRA =        F    use ultrasoft PP ?                                      
   IUNSCR =        0    unscreen: 0-lin 1-nonlin 2-no                           
   RPACOR =    0.000    partial core radius                                     
   POMASS =    1.000; ZVAL   =    1.000    mass and valenz                      
   RCORE  =    1.100    outmost cutoff radius                                   
   RWIGS  =    0.700; RWIGS  =    0.370    wigner-seitz radius (au A)           
   ENMAX  =  250.000; ENMIN  =  200.000 eV                                      
   RCLOC  =    0.701    cutoff for local pot                                    
   LCOR   =        T    correct aug charges                                     
   LPAW   =        T    paw PP                                                  
   EAUG   =  400.000                                                            
   RMAX   =    1.123    core radius for proj-oper                               
   RAUG   =    1.200    factor for augmentation sphere                          
   RDEP   =    1.112    radius for radial grids                                 
   RDEPT  =    0.926    core radius for aug-charge                              
                                                                                
   Atomic configuration                                                         
    2 entries                                                                   
     n  l   j            E        occ.                                          
     1  0  0.50        -6.4927   1.0000                                         
     2  1  0.50        -3.4015   0.0000                                         
   Description                                                                  
     l       E           TYP  RCUT    TYP  RCUT                                 
     0     -6.4927494     23  1.100                                             
     0      6.8029130     23  1.100                                             
     1     -4.0817478     23  1.100                                             
  local pseudopotential read in
  atomic valenz-charges read in
  non local Contribution for L=           0  read in
    real space projection operators read in
  non local Contribution for L=           0  read in
    real space projection operators read in
  non local Contribution for L=           1  read in
    real space projection operators read in
    PAW grid and wavefunctions read in
 
   number of l-projection  operators is LMAX  =           3
   number of lm-projection operators is LMMAX =           5
 
 Optimization of the real space projectors (new method)

 maximal supplied QI-value         = 14.36
 optimisation between [QCUT,QGAM] = [ 11.92, 23.98] = [ 39.79,161.09] Ry 
 Optimized for a Real-space Cutoff    1.49 Angstroem

   l    n(q)    QCUT    max X(q) W(low)/X(q) W(high)/X(q)  e(spline) 
   2     10    11.920    66.195    0.79E-04    0.18E-03    0.24E-06
   2     10    11.920    64.643    0.81E-04    0.19E-03    0.24E-06
   0     11    11.920    95.520    0.28E-04    0.54E-04    0.18E-06
   0     11    11.920    63.403    0.27E-04    0.52E-04    0.17E-06
   1     10    11.920    19.961    0.18E-04    0.11E-03    0.23E-06
   1     10    11.920    13.289    0.25E-04    0.87E-04    0.19E-06
 Optimization of the real space projectors (new method)

 maximal supplied QI-value         = 16.25
 optimisation between [QCUT,QGAM] = [ 11.86, 23.89] = [ 39.41,159.82] Ry 
 Optimized for a Real-space Cutoff    1.49 Angstroem

   l    n(q)    QCUT    max X(q) W(low)/X(q) W(high)/X(q)  e(spline) 
   2     10    11.864    80.901    0.13E-03    0.23E-03    0.37E-06
   2     10    11.864    75.754    0.13E-03    0.23E-03    0.38E-06
   0     11    11.864    58.752    0.44E-04    0.11E-04    0.20E-06
   0     11    11.864    30.679    0.36E-04    0.10E-04    0.18E-06
   1     10    11.864    17.977    0.31E-04    0.45E-04    0.10E-06
   1     10    11.864    13.559    0.25E-04    0.37E-04    0.89E-07
 Optimization of the real space projectors (new method)

 maximal supplied QI-value         = 16.25
 optimisation between [QCUT,QGAM] = [ 11.86, 23.89] = [ 39.41,159.82] Ry 
 Optimized for a Real-space Cutoff    1.33 Angstroem

   l    n(q)    QCUT    max X(q) W(low)/X(q) W(high)/X(q)  e(spline) 
   2      9    11.864    65.824    0.22E-03    0.53E-03    0.26E-06
   2      9    11.864    61.429    0.22E-03    0.53E-03    0.26E-06
   0      9    11.864    56.174    0.21E-03    0.32E-04    0.15E-06
   0      9    11.864    31.263    0.19E-03    0.30E-04    0.14E-06
   1      9    11.864    19.828    0.63E-04    0.30E-03    0.16E-06
   1      9    11.864    15.139    0.49E-04    0.25E-03    0.13E-06
 Optimization of the real space projectors (new method)

 maximal supplied QI-value         = 16.25
 optimisation between [QCUT,QGAM] = [ 11.86, 23.89] = [ 39.41,159.82] Ry 
 Optimized for a Real-space Cutoff    1.49 Angstroem

   l    n(q)    QCUT    max X(q) W(low)/X(q) W(high)/X(q)  e(spline) 
   2     10    11.864     4.610    0.10E-03    0.20E-03    0.29E-06
   2     10    11.864     8.522    0.17E-03    0.33E-03    0.50E-06
   0     11    11.864    51.609    0.52E-04    0.55E-04    0.33E-06
   0     11    11.864    27.747    0.46E-04    0.52E-04    0.31E-06
   1     10    11.864    20.408    0.54E-04    0.25E-04    0.21E-06
   1     10    11.864    13.425    0.48E-04    0.22E-04    0.18E-06
 Optimization of the real space projectors (new method)

 maximal supplied QI-value         = 16.25
 optimisation between [QCUT,QGAM] = [ 11.86, 23.89] = [ 39.41,159.82] Ry 
 Optimized for a Real-space Cutoff    1.33 Angstroem

   l    n(q)    QCUT    max X(q) W(low)/X(q) W(high)/X(q)  e(spline) 
   2      9    11.864    60.317    0.21E-03    0.51E-03    0.25E-06
   2      9    11.864    55.921    0.21E-03    0.51E-03    0.26E-06
   0      9    11.864    51.690    0.22E-03    0.30E-04    0.17E-06
   0      9    11.864    30.015    0.20E-03    0.28E-04    0.15E-06
   1      9    11.864    18.849    0.76E-04    0.33E-03    0.17E-06
   1      9    11.864    14.624    0.60E-04    0.28E-03    0.15E-06
 Optimization of the real space projectors (new method)

 maximal supplied QI-value         = 34.20
 optimisation between [QCUT,QGAM] = [ 11.97, 23.94] = [ 40.13,160.53] Ry 
 Optimized for a Real-space Cutoff    1.18 Angstroem

   l    n(q)    QCUT    max X(q) W(low)/X(q) W(high)/X(q)  e(spline) 
   0      8    11.971    19.460    0.15E-03    0.31E-03    0.25E-06
   0      8    11.971    12.209    0.13E-03    0.29E-03    0.25E-06
   1      8    11.971     4.655    0.22E-03    0.24E-03    0.21E-06
  PAW_PBE Pt 04Feb2005                  :
 energy of atom  1       EATOM= -729.1176
 kinetic energy error for atom=    0.0021 (will be added to EATOM!!)
  PAW_PBE Fe 06Sep2000                  :
 energy of atom  2       EATOM= -594.3153
 kinetic energy error for atom=    0.0024 (will be added to EATOM!!)
  PAW_PBE Co 02Aug2007                  :
 energy of atom  3       EATOM= -813.3670
 kinetic energy error for atom=    0.0026 (will be added to EATOM!!)
  PAW_PBE Cu 22Jun2005                  :
 energy of atom  4       EATOM=-1390.9808
 kinetic energy error for atom=    0.0036 (will be added to EATOM!!)
  PAW_PBE Ni 02Aug2007                  :
 energy of atom  5       EATOM=-1077.6739
 kinetic energy error for atom=    0.0027 (will be added to EATOM!!)
  PAW_PBE H 15Jun2001                   :
 energy of atom  6       EATOM=  -12.4884
 kinetic energy error for atom=    0.0008 (will be added to EATOM!!)
 
 
 POSCAR: 10.76                                   
  positions in direct lattice
  velocities in cartesian coordinates
 exchange correlation table for  LEXCH =        8
   RHO(1)=    0.500       N(1)  =     2000
   RHO(2)=  100.500       N(2)  =     4000
 


--------------------------------------------------------------------------------------------------------


 ion  position               nearest neighbor table
   1  0.786  0.880  0.316-  49 2.61  28 2.63  59 2.64  19 2.68  61 2.70  33 2.71  29 2.72  60 2.72
                            11 2.75   2 2.77   4 2.82  12 2.84
   2  0.042  0.882  0.314-  79 2.55  77 2.60  60 2.67  28 2.67  30 2.68  52 2.71  33 2.71  22 2.73
                             1 2.77   6 2.79   4 2.86  16 2.93
   3  0.279  0.381  0.318-  64 2.56  39 2.61  31 2.64  33 2.64  68 2.70  19 2.75  43 2.76  30 2.76
                             5 2.76  13 2.79  25 2.83  18 2.87
   4  0.871  0.964  0.422-  81 1.63  17 2.65  11 2.67   9 2.70  12 2.73   6 2.74  16 2.76  60 2.80
                             1 2.82   2 2.86
   5  0.120  0.463  0.424-  16 2.65  12 2.66   7 2.66  10 2.67  39 2.70  33 2.71  25 2.72  13 2.74
                             3 2.76
   6  0.125  0.964  0.420-   8 2.65  10 2.68   9 2.71  14 2.72   4 2.74  16 2.76  52 2.78   2 2.79
                            22 2.85
   7  0.874  0.459  0.423-   9 2.66  15 2.66   5 2.66  39 2.67  10 2.68  12 2.68  27 2.72  75 2.72
                            29 2.77
   8  0.374  0.960  0.418-  43 2.59   6 2.65  14 2.66  52 2.67  27 2.67  13 2.68  10 2.69  11 2.70
                            61 2.70
   9  0.872  0.214  0.417-  81 1.74  75 2.65   7 2.66  15 2.66  17 2.68   4 2.70  60 2.70   6 2.71
                            10 2.72  22 2.80
  10  0.125  0.212  0.419-  13 2.66  39 2.66   5 2.67   6 2.68   7 2.68   8 2.69  43 2.71   9 2.72
                            22 2.76
  11  0.624  0.960  0.420-   4 2.67  12 2.68  13 2.68  27 2.69  17 2.69   8 2.70   1 2.75  61 2.80
                            19 2.81
  12  0.872  0.710  0.423-   5 2.66  27 2.68  11 2.68   7 2.68  33 2.69  16 2.72   4 2.73  29 2.76
                             1 2.84
  13  0.374  0.209  0.421-  10 2.66   8 2.68  11 2.68  17 2.70  25 2.71   5 2.74  43 2.74   3 2.79
                            19 2.80
  14  0.378  0.711  0.420-  27 2.63  44 2.66   8 2.66  15 2.67  25 2.71   6 2.72  52 2.72  16 2.73
                            30 2.75
  15  0.626  0.462  0.420-   9 2.66   7 2.66  44 2.67  27 2.67  14 2.67  75 2.70  17 2.71  25 2.71
                            18 2.75
  16  0.126  0.707  0.425-   5 2.65  25 2.66  33 2.70  12 2.72  14 2.73   6 2.76   4 2.76  30 2.82
                             2 2.93
  17  0.624  0.211  0.419-   4 2.65   9 2.68  25 2.69  11 2.69  13 2.70  15 2.71  18 2.74  60 2.76
                            19 2.84
  18  0.548  0.376  0.316-  67 2.56  68 2.64  60 2.65  26 2.66  75 2.67  44 2.69  17 2.74  15 2.75
                            30 2.76  19 2.78  25 2.85   3 2.87
  19  0.534  0.125  0.314-  80 2.55  68 2.57  59 2.60  43 2.60   1 2.68  61 2.69   3 2.75  18 2.78
                            13 2.80  11 2.81  60 2.81  17 2.84
  20  0.548  0.123  0.044-  57 2.55  37 2.55  48 2.57  62 2.68  63 2.73  47 2.75  34 2.75  45 2.76
                            56 2.76
  21  0.119  0.460  0.129-  40 2.52  36 2.52  47 2.52  42 2.60  64 2.63  69 2.65  70 2.68  50 2.68
                            31 2.71  58 2.75  57 2.76  74 2.79
  22  0.044  0.136  0.313-  65 2.53  55 2.54  77 2.57  43 2.62  39 2.63  75 2.68   2 2.73  60 2.74
                            10 2.76  52 2.77   9 2.80   6 2.85  31 3.40
  23  0.041  0.131  0.035-  70 2.57  41 2.60  40 2.62  45 2.66  76 2.67  62 2.67  24 2.69  35 2.79
                            53 2.85
  24  0.131  0.958  0.133-  79 2.51  77 2.55  35 2.56  53 2.58  55 2.59  70 2.66  38 2.68  58 2.69
                            23 2.69  73 2.69  66 2.75  41 2.78
  25  0.374  0.461  0.422-  16 2.66  17 2.69  15 2.71  13 2.71  14 2.71   5 2.72  30 2.81   3 2.83
                            18 2.85
  26  0.455  0.547  0.219-  73 2.50  74 2.54  51 2.56  79 2.64  30 2.65  18 2.66  64 2.69  78 2.70
                            32 2.71  68 2.72  44 2.73  67 2.78
  27  0.622  0.712  0.421-  14 2.63  15 2.67   8 2.67  12 2.68  44 2.68  11 2.69   7 2.72  61 2.74
                            29 2.78
  28  0.956  0.787  0.221-  58 2.56  66 2.58  50 2.58  42 2.62   1 2.63  49 2.64   2 2.67  64 2.68
                            33 2.69  59 2.77  79 2.86  77 2.87
  29  0.795  0.623  0.318-  42 2.55  39 2.58  32 2.62  75 2.62  49 2.67  33 2.69  44 2.71   1 2.72
                            61 2.72  12 2.76   7 2.77  27 2.78
  30  0.290  0.632  0.317-  79 2.56  64 2.60  52 2.65  26 2.65   2 2.68  44 2.69  33 2.69  14 2.75
                             3 2.76  18 2.76  25 2.81  16 2.82
  31  0.201  0.279  0.225-  70 2.51  43 2.58  55 2.59  57 2.59  65 2.60   3 2.64  39 2.65  21 2.71
                            80 2.75  42 2.76  68 2.84  64 2.87  22 3.40
  32  0.705  0.551  0.221-  54 2.54  69 2.56  51 2.58  49 2.61  29 2.62  78 2.65  42 2.65  65 2.67
                            44 2.68  75 2.69  26 2.71  67 2.74
  33  0.040  0.632  0.323-   3 2.64  30 2.69  29 2.69  28 2.69  64 2.69  12 2.69  39 2.69  16 2.70
                             1 2.71   5 2.71   2 2.71  42 2.72
  34  0.795  0.861  0.046-  50 2.37  48 2.50  66 2.51  36 2.59  71 2.61  63 2.64  20 2.75  62 2.83
                            35 2.84
  35  0.058  0.864  0.041-  58 2.53  24 2.56  36 2.57  72 2.57  66 2.62  53 2.71  23 2.79  62 2.80
                            34 2.84
  36  0.046  0.632  0.040-  21 2.52  35 2.57  58 2.57  34 2.59  50 2.60  72 2.69  47 2.69  71 2.80
                            40 2.81
  37  0.628  0.225  0.130-  67 2.51  51 2.51  56 2.52  74 2.55  20 2.55  68 2.56  59 2.56  41 2.58
                            62 2.59  66 2.72  57 2.81  48 3.01
  38  0.383  0.954  0.131-  53 2.46  80 2.47  45 2.47  78 2.53  63 2.55  73 2.57  55 2.57  48 2.58
                            54 2.59  24 2.68  57 2.68  70 2.73
  39  0.035  0.384  0.323-  29 2.58   3 2.61  75 2.63  22 2.63  42 2.64  31 2.65  10 2.66   7 2.67
                            33 2.69   5 2.70  65 2.73  43 2.85
  40  0.026  0.381  0.040-  69 2.42  21 2.52  76 2.55  71 2.56  70 2.56  23 2.62  36 2.81  45 2.87
                            47 2.92
  41  0.872  0.215  0.130-  76 2.45  77 2.51  65 2.52  67 2.53  62 2.57  37 2.58  23 2.60  69 2.61
                            51 2.63  66 2.70  70 2.70  24 2.78
  42  0.955  0.544  0.224-  50 2.54  29 2.55  21 2.60  69 2.60  28 2.62  39 2.64  32 2.65  65 2.67
                            49 2.67  64 2.71  33 2.72  31 2.76
  43  0.297  0.116  0.320-  55 2.52  31 2.58   8 2.59  52 2.60  19 2.60  61 2.61  22 2.62  80 2.63
                            10 2.71  13 2.74   3 2.76  39 2.85
  44  0.541  0.629  0.321-  61 2.62  78 2.62  52 2.63  14 2.66  15 2.67  32 2.68  27 2.68  18 2.69
                            30 2.69  75 2.69  29 2.71  26 2.73
  45  0.295  0.116  0.043-  70 2.47  38 2.47  57 2.57  53 2.60  23 2.66  63 2.67  20 2.76  40 2.87
                            47 2.87
  46  0.550  0.625  0.046-  51 2.38  73 2.40  54 2.40  71 2.58  53 2.61  63 2.63  76 2.64  56 2.66
                            72 2.70
  47  0.297  0.382  0.042-  74 2.38  21 2.52  57 2.61  72 2.64  56 2.64  36 2.69  20 2.75  45 2.87
                            40 2.92
  48  0.625  0.947  0.134-  49 2.39  80 2.48  54 2.49  34 2.50  63 2.55  59 2.56  20 2.57  38 2.58
                            50 2.61  57 2.72  66 2.76  37 3.01
  49  0.707  0.793  0.220-  48 2.39  50 2.47  54 2.49  80 2.59   1 2.61  32 2.61  61 2.64  28 2.64
                            78 2.66  42 2.67  29 2.67  59 2.77
  50  0.864  0.703  0.130-  34 2.37  71 2.41  49 2.47  54 2.50  42 2.54  28 2.58  69 2.59  36 2.60
                            48 2.61  21 2.68  66 2.86
  51  0.627  0.459  0.128-  46 2.38  76 2.45  56 2.51  37 2.51  26 2.56  32 2.58  67 2.63  41 2.63
                            69 2.65  73 2.66  74 2.67  54 2.76
  52  0.298  0.874  0.318-  55 2.43  79 2.52  78 2.52  61 2.59  43 2.60  44 2.63  30 2.65   8 2.67
                             2 2.71  14 2.72  22 2.77   6 2.78
  53  0.307  0.869  0.043-  73 2.41  38 2.46  24 2.58  63 2.58  45 2.60  46 2.61  72 2.65  35 2.71
                            23 2.85
  54  0.626  0.716  0.129-  46 2.40  71 2.46  63 2.48  49 2.49  48 2.49  50 2.50  32 2.54  38 2.59
                            73 2.60  78 2.62  69 2.73  51 2.76
  55  0.226  0.027  0.228-  52 2.43  78 2.49  43 2.52  79 2.52  22 2.54  80 2.55  38 2.57  24 2.59
                            31 2.59  70 2.73  77 2.78  65 2.95
  56  0.542  0.382  0.037-  74 2.50  51 2.51  37 2.52  72 2.64  47 2.64  76 2.65  46 2.66  20 2.76
                            62 2.76
  57  0.377  0.206  0.134-  68 2.47  20 2.55  80 2.55  45 2.57  31 2.59  47 2.61  70 2.68  74 2.68
                            38 2.68  48 2.72  21 2.76  37 2.81
  58  0.139  0.705  0.134-  72 2.45  64 2.50  35 2.53  79 2.56  28 2.56  36 2.57  74 2.67  24 2.69
                            73 2.71  21 2.75
  59  0.704  0.051  0.220-  66 2.52  37 2.56  48 2.56  19 2.60  60 2.61  68 2.63   1 2.64  67 2.65
                            77 2.72  80 2.74  49 2.77  28 2.77
  60  0.793  0.129  0.316-  67 2.52  77 2.57  59 2.61  18 2.65   2 2.67   9 2.70  75 2.71   1 2.72
                            22 2.74  17 2.76   4 2.80  19 2.81
  61  0.539  0.873  0.317-  78 2.48  80 2.52  52 2.59  43 2.61  44 2.62  49 2.64  19 2.69   1 2.70
                             8 2.70  29 2.72  27 2.74  11 2.80
  62  0.796  0.123  0.038-  66 2.52  41 2.57  37 2.59  23 2.67  20 2.68  76 2.70  56 2.76  35 2.80
                            34 2.83
  63  0.545  0.871  0.038-  54 2.48  38 2.55  48 2.55  53 2.58  46 2.63  34 2.64  45 2.67  71 2.67
                            20 2.73
  64  0.208  0.542  0.224-  58 2.50   3 2.56  30 2.60  21 2.63  74 2.66  28 2.68  68 2.68  26 2.69
                            33 2.69  42 2.71  79 2.79  31 2.87
  65  0.950  0.299  0.222-  69 2.51  41 2.52  22 2.53  67 2.56  31 2.60  77 2.60  75 2.61  70 2.62
                            42 2.67  32 2.67  39 2.73  55 2.95
  66  0.872  0.965  0.131-  34 2.51  59 2.52  62 2.52  77 2.57  28 2.58  35 2.62  41 2.70  37 2.72
                            24 2.75  48 2.76  50 2.86
  67  0.716  0.291  0.224-  37 2.51  60 2.52  41 2.53  18 2.56  77 2.56  65 2.56  75 2.62  51 2.63
                            59 2.65  32 2.74  68 2.77  26 2.78
  68  0.457  0.293  0.221-  57 2.47  74 2.52  37 2.56  19 2.57  59 2.63  18 2.64  64 2.68   3 2.70
                            26 2.72  67 2.77  80 2.82  31 2.84
  69  0.875  0.457  0.129-  40 2.42  71 2.45  76 2.46  65 2.51  32 2.56  50 2.59  42 2.60  41 2.61
                            21 2.65  51 2.65  70 2.71  54 2.73
  70  0.127  0.207  0.130-  45 2.47  31 2.51  40 2.56  23 2.57  65 2.62  24 2.66  21 2.68  57 2.68
                            41 2.70  69 2.71  38 2.73  55 2.73
  71  0.791  0.621  0.042-  50 2.41  69 2.45  54 2.46  40 2.56  46 2.58  34 2.61  76 2.63  63 2.67
                            36 2.80
  72  0.298  0.627  0.045-  74 2.45  58 2.45  73 2.48  35 2.57  47 2.64  56 2.64  53 2.65  36 2.69
                            46 2.70
  73  0.386  0.713  0.130-  46 2.40  53 2.41  72 2.48  26 2.50  78 2.55  38 2.57  54 2.60  79 2.62
                            51 2.66  24 2.69  58 2.71  74 2.83
  74  0.382  0.452  0.128-  47 2.38  72 2.45  56 2.50  68 2.52  26 2.54  37 2.55  64 2.66  51 2.67
                            58 2.67  57 2.68  21 2.79  73 2.83
  75  0.793  0.381  0.320-  65 2.61  67 2.62  29 2.62  39 2.63   9 2.65  18 2.67  22 2.68  32 2.69
                            44 2.69  15 2.70  60 2.71   7 2.72
  76  0.791  0.377  0.042-  51 2.45  41 2.45  69 2.46  40 2.55  71 2.63  46 2.64  56 2.65  23 2.67
                            62 2.70
  77  0.955  0.054  0.222-  41 2.51  24 2.55  67 2.56  22 2.57  60 2.57  66 2.57   2 2.60  65 2.60
                            59 2.72  79 2.78  55 2.78  28 2.87
  78  0.459  0.796  0.225-  61 2.48  55 2.49  80 2.52  52 2.52  38 2.53  73 2.55  79 2.61  44 2.62
                            54 2.62  32 2.65  49 2.66  26 2.70
  79  0.216  0.798  0.225-  24 2.51  52 2.52  55 2.52   2 2.55  58 2.56  30 2.56  78 2.61  73 2.62
                            26 2.64  77 2.78  64 2.79  28 2.86
  80  0.462  0.029  0.223-  38 2.47  48 2.48  78 2.52  61 2.52  55 2.55  19 2.55  57 2.55  49 2.59
                            43 2.63  59 2.74  31 2.75  68 2.82
  81  0.871  0.086  0.466-   4 1.63   9 1.74
 
  LATTYP: Found a hexagonal cell.
 ALAT       =    10.7600002289
 C/A-ratio  =     2.0446096219
  
  Lattice vectors:
  
 A1 = (   5.3800001145,  -9.3184335429,   0.0000000000)
 A2 = ( -10.7600002289,   0.0000000000,   0.0000000000)
 A3 = (   0.0000000000,   0.0000000000, -22.0000000000)


Analysis of symmetry for initial positions (statically):
=====================================================================
 Subroutine PRICEL returns:
 Original cell was already a primitive cell.
 

 Routine SETGRP: Setting up the symmetry group for a 
 hexagonal supercell.


 Subroutine GETGRP returns: Found  1 space group operations
 (whereof  1 operations were pure point group operations)
 out of a pool of 24 trial point group operations.


The static configuration has the point symmetry C_1 .


Analysis of symmetry for dynamics (positions and initial velocities):
=====================================================================
 Subroutine PRICEL returns:
 Original cell was already a primitive cell.
 

 Routine SETGRP: Setting up the symmetry group for a 
 hexagonal supercell.


 Subroutine GETGRP returns: Found  1 space group operations
 (whereof  1 operations were pure point group operations)
 out of a pool of 24 trial point group operations.


The dynamic configuration has the point symmetry C_1 .


Analysis of constrained symmetry for selective dynamics:
=====================================================================
 Subroutine PRICEL returns:
 Original cell was already a primitive cell.
 

 Routine SETGRP: Setting up the symmetry group for a 
 hexagonal supercell.


 Subroutine GETGRP returns: Found  1 space group operations
 (whereof  1 operations were pure point group operations)
 out of a pool of 24 trial point group operations.


The constrained configuration has the point symmetry C_1 .


Analysis of structural, dynamic, and magnetic symmetry:
=====================================================================
 Subroutine PRICEL returns:
 Original cell was already a primitive cell.
 

 Routine SETGRP: Setting up the symmetry group for a 
 hexagonal supercell.


 Subroutine GETGRP returns: Found  1 space group operations
 (whereof  1 operations were pure point group operations)
 out of a pool of 24 trial point group operations.


The magnetic configuration has the point symmetry C_1 .


 Subroutine INISYM returns: Found  1 space group operations
 (whereof  1 operations are pure point group operations),
 and found     1 'primitive' translations

 
 
 KPOINTS: mesh auto                               

Automatic generation of k-mesh.
Space group operators:
 irot       det(A)        alpha          n_x          n_y          n_z        tau_x        tau_y        tau_z
    1     1.000000     0.000001     1.000000     0.000000     0.000000     0.000000     0.000000     0.000000
 
 Subroutine IBZKPT returns following result:
 ===========================================
 
 Found      4 irreducible k-points:
 
 Following reciprocal coordinates:
            Coordinates               Weight
  0.000000  0.000000  0.000000      1.000000
  0.500000  0.000000  0.000000      1.000000
  0.000000  0.500000  0.000000      1.000000
  0.500000  0.500000  0.000000      1.000000
 
 Following cartesian coordinates:
            Coordinates               Weight
  0.000000  0.000000  0.000000      1.000000
  0.046468 -0.026829  0.000000      1.000000
  0.000000  0.053657  0.000000      1.000000
  0.046468  0.026829  0.000000      1.000000
 


--------------------------------------------------------------------------------------------------------




 Dimension of arrays:
   k-points           NKPTS =      4   k-points in BZ     NKDIM =      4   number of bands    NBANDS=    588
   number of dos      NEDOS =    301   number of ions     NIONS =     81
   non local maximal  LDIM  =      6   non local SUM 2l+1 LMDIM =     18
   total plane-waves  NPLWV = ******
   max r-space proj   IRMAX =   7517   max aug-charges    IRDMAX=  32744
   dimension x,y,z NGX =    84 NGY =   84 NGZ =  168
   dimension x,y,z NGXF=   168 NGYF=  168 NGZF=  336
   support grid    NGXF=   168 NGYF=  168 NGZF=  336
   ions per type =              32  13  10  13  12   1
   NGX,Y,Z   is equivalent  to a cutoff of  12.98, 12.98, 12.70 a.u.
   NGXF,Y,Z  is equivalent  to a cutoff of  25.96, 25.96, 25.39 a.u.

 SYSTEM =  Pt111                                   
 POSCAR =  10.76                                   

 Startparameter for this run:
   NWRITE =      2    write-flag & timer
   PREC   = accura    normal or accurate (medium, high low for compatibility)
   ISTART =      0    job   : 0-new  1-cont  2-samecut
   ICHARG =      2    charge: 1-file 2-atom 10-const
   ISPIN  =      2    spin polarized calculation?
   LNONCOLLINEAR =      F non collinear calculations
   LSORBIT =      F    spin-orbit coupling
   INIWAV =      1    electr: 0-lowe 1-rand  2-diag
   LASPH  =      F    aspherical Exc in radial PAW
   METAGGA=      F    non-selfconsistent MetaGGA calc.

 Electronic Relaxation 1
   ENCUT  =  550.0 eV  40.42 Ry    6.36 a.u.  20.58 20.58 42.07*2*pi/ulx,y,z
   ENINI  =  550.0     initial cutoff
   ENAUG  =  587.0 eV  augmentation charge cutoff
   NELM   =    200;   NELMIN=  2; NELMDL= -5     # of ELM steps 
   EDIFF  = 0.1E-04   stopping-criterion for ELM
   LREAL  =      T    real-space projection
   NLSPLINE    = F    spline interpolate recip. space projectors
   LCOMPAT=      F    compatible to vasp.4.4
   GGA_COMPAT  = T    GGA compatible to vasp.4.4-vasp.4.6
   LMAXPAW     = -100 max onsite density
   LMAXMIX     =    2 max onsite mixed and CHGCAR
   VOSKOWN=      0    Vosko Wilk Nusair interpolation
   ROPT   =   -0.00025  -0.00025  -0.00025  -0.00025
   ROPT   =   -0.00025  -0.00025
 Ionic relaxation
   EDIFFG = -.5E-01   stopping-criterion for IOM
   NSW    =    300    number of steps for IOM
   NBLOCK =      1;   KBLOCK =    300    inner block; outer block 
   IBRION =      2    ionic relax: 0-MD 1-quasi-New 2-CG
   NFREE  =      1    steps in history (QN), initial steepest desc. (CG)
   ISIF   =      2    stress and relaxation
   IWAVPR =     11    prediction:  0-non 1-charg 2-wave 3-comb
   ISYM   =      2    0-nonsym 1-usesym 2-fastsym
   LCORR  =      T    Harris-Foulkes like correction to forces

   POTIM  = 0.5000    time-step for ionic-motion
   TEIN   =    0.0    initial temperature
   TEBEG  =    0.0;   TEEND  =   0.0 temperature during run
   SMASS  =  -3.00    Nose mass-parameter (am)
   estimated Nose-frequenzy (Omega)   =  0.10E-29 period in steps =****** mass=  -0.265E-26a.u.
   SCALEE = 1.0000    scale energy and forces
   NPACO  =    256;   APACO  = 16.0  distance and # of slots for P.C.
   PSTRESS=    0.0 pullay stress

  Mass of Ions in am
   POMASS = 195.08 55.85 58.93 63.55 58.69  1.00
  Ionic Valenz
   ZVAL   =  10.00  8.00  9.00 11.00 10.00  1.00
  Atomic Wigner-Seitz radii
   RWIGS  =  -1.00 -1.00 -1.00 -1.00 -1.00 -1.00
  virtual crystal weights 
   VCA    =   1.00  1.00  1.00  1.00  1.00  1.00
   NELECT =     778.0000    total number of electrons
   NUPDOWN=      -1.0000    fix difference up-down

 DOS related values:
   EMIN   =  10.00;   EMAX   =-10.00  energy-range for DOS
   EFERMI =   0.00
   ISMEAR =     1;   SIGMA  =   0.10  broadening in eV -4-tet -1-fermi 0-gaus

 Electronic relaxation 2 (details)
   IALGO  =     68    algorithm
   LDIAG  =      T    sub-space diagonalisation (order eigenvalues)
   LSUBROT=      F    optimize rotation matrix (better conditioning)
   TURBO    =      0    0=normal 1=particle mesh
   IRESTART =      0    0=no restart 2=restart with 2 vectors
   NREBOOT  =      0    no. of reboots
   NMIN     =      0    reboot dimension
   EREF     =   0.00    reference energy to select bands
   IMIX   =      4    mixing-type and parameters
     AMIX     =   0.40;   BMIX     =  1.00
     AMIX_MAG =   1.60;   BMIX_MAG =  1.00
     AMIN     =   0.10
     WC   =   100.;   INIMIX=   1;  MIXPRE=   1;  MAXMIX= -45

 Intra band minimization:
   WEIMIN = 0.0010     energy-eigenvalue tresh-hold
   EBREAK =  0.43E-08  absolut break condition
   DEPER  =   0.30     relativ break condition  

   TIME   =   0.40     timestep for ELM

  volume/ion in A,a.u.               =      27.23       183.78
  Fermi-wavevector in a.u.,A,eV,Ry     =   1.156668  2.185786 18.202976  1.337881
  Thomas-Fermi vector in A             =   2.293286
 
 Write flags
   LWAVE        =      F    write WAVECAR
   LDOWNSAMPLE  =      F    k-point downsampling of WAVECAR
   LCHARG       =      F    write CHGCAR
   LVTOT        =      F    write LOCPOT, total local potential
   LVHAR        =      F    write LOCPOT, Hartree potential only
   LELF         =      F    write electronic localiz. function (ELF)
   LORBIT       =      0    0 simple, 1 ext, 2 COOP (PROOUT), +10 PAW based schemes


 Dipole corrections
   LMONO  =      F    monopole corrections only (constant potential shift)
   LDIPOL =      F    correct potential (dipole corrections)
   IDIPOL =      0    1-x, 2-y, 3-z, 4-all directions 
   EPSILON=  1.0000000 bulk dielectric constant

 Exchange correlation treatment:
   GGA     =    --    GGA type
   LEXCH   =     8    internal setting for exchange type
   VOSKOWN=      0    Vosko Wilk Nusair interpolation
   LHFCALC =     F    Hartree Fock is set to
   LHFONE  =     F    Hartree Fock one center treatment
   AEXX    =    0.0000 exact exchange contribution

 Linear response parameters
   LEPSILON=     F    determine dielectric tensor
   LRPA    =     F    only Hartree local field effects (RPA)
   LNABLA  =     F    use nabla operator in PAW spheres
   LVEL    =     F    velocity operator in full k-point grid
   LINTERFAST=   F  fast interpolation
   KINTER  =     0    interpolate to denser k-point grid
   CSHIFT  =0.1000    complex shift for real part using Kramers Kronig
   OMEGAMAX=  -1.0    maximum frequency
   DEG_THRESHOLD= 0.2000000E-02 threshold for treating states as degnerate
   RTIME   =   -0.100 relaxation time in fs
  (WPLASMAI=    0.000 imaginary part of plasma frequency in eV, 0.658/RTIME)
   DFIELD  = 0.0000000 0.0000000 0.0000000 field for delta impulse in time
 
 Orbital magnetization related:
   ORBITALMAG=     F  switch on orbital magnetization
   LCHIMAG   =     F  perturbation theory with respect to B field
   DQ        =  0.001000  dq finite difference perturbation B field
   LLRAUG    =     F  two centre corrections for induced B field



--------------------------------------------------------------------------------------------------------


 conjugate gradient relaxation of ions
   using selective dynamics as specified on POSCAR
 charge density and potential will be updated during run
 spin polarized calculation
 RMM-DIIS sequential band-by-band and
  variant of blocked Davidson during initial phase
 perform sub-space diagonalisation
    before iterative eigenvector-optimisation
 modified Broyden-mixing scheme, WC =      100.0
 initial mixing is a Kerker type mixing with AMIX =  0.4000 and BMIX =      1.0000
 Hartree-type preconditioning will be used
 using additional bands          199
 real space projection scheme for non local part
 use partial core corrections
 calculate Harris-corrections to forces 
   (improved forces if not selfconsistent)
 use gradient corrections 
 use of overlap-Matrix (Vanderbilt PP)
 Methfessel and Paxton  Order N= 1 SIGMA  =   0.10


--------------------------------------------------------------------------------------------------------


  energy-cutoff  :      550.00
  volume of cell :     2205.86
      direct lattice vectors                 reciprocal lattice vectors
    10.760000229  0.000000000  0.000000000     0.092936801 -0.053657087  0.000000000
     5.380000114  9.318433543  0.000000000     0.000000000  0.107314174  0.000000000
     0.000000000  0.000000000 22.000000000     0.000000000  0.000000000  0.045454545

  length of vectors
    10.760000229 10.760000229 22.000000000     0.107314174  0.107314174  0.045454545


 
 k-points in units of 2pi/SCALE and weight: mesh auto                               
   0.00000000  0.00000000  0.00000000       0.250
   0.04646840 -0.02682854  0.00000000       0.250
   0.00000000  0.05365709  0.00000000       0.250
   0.04646840  0.02682854  0.00000000       0.250
 
 k-points in reciprocal lattice and weights: mesh auto                               
   0.00000000  0.00000000  0.00000000       0.250
   0.50000000  0.00000000  0.00000000       0.250
   0.00000000  0.50000000  0.00000000       0.250
   0.50000000  0.50000000  0.00000000       0.250
 
 position of ions in fractional coordinates (direct lattice) 
   0.78630364  0.87985516  0.31579062
   0.04224145  0.88241600  0.31447087
   0.27901334  0.38063736  0.31781889
   0.87059820  0.96425044  0.42229538
   0.11985466  0.46347373  0.42381962
   0.12534141  0.96365774  0.42039088
   0.87435511  0.45921883  0.42339424
   0.37365696  0.96026939  0.41753756
   0.87155940  0.21408433  0.41720951
   0.12547606  0.21244857  0.41934278
   0.62422563  0.96044136  0.42042077
   0.87200071  0.70988016  0.42286043
   0.37417258  0.20904536  0.42138655
   0.37802308  0.71127443  0.42019954
   0.62568644  0.46188242  0.41983128
   0.12633321  0.70689834  0.42512744
   0.62399740  0.21084321  0.41900992
   0.54776837  0.37585151  0.31592551
   0.53367310  0.12508775  0.31375184
   0.54792673  0.12328922  0.04383544
   0.11934534  0.45972459  0.12874496
   0.04423495  0.13553346  0.31339626
   0.04080409  0.13114989  0.03536365
   0.13130448  0.95799902  0.13303643
   0.37415327  0.46114175  0.42243279
   0.45548595  0.54686581  0.21920607
   0.62191861  0.71206042  0.42107375
   0.95569127  0.78735065  0.22050316
   0.79499587  0.62310480  0.31818313
   0.28974496  0.63167392  0.31731182
   0.20123751  0.27885537  0.22539603
   0.70531330  0.55071706  0.22107616
   0.04021377  0.63182323  0.32341881
   0.79547831  0.86112383  0.04571520
   0.05752126  0.86417890  0.04095355
   0.04560842  0.63181793  0.04035269
   0.62783056  0.22534483  0.13048248
   0.38256550  0.95351772  0.13142638
   0.03521903  0.38395190  0.32275966
   0.02606154  0.38108859  0.04031026
   0.87237117  0.21512876  0.12980204
   0.95473355  0.54429733  0.22390732
   0.29689872  0.11600876  0.32000987
   0.54070692  0.62864430  0.32103635
   0.29497516  0.11635164  0.04266773
   0.54978575  0.62534505  0.04613061
   0.29695661  0.38236522  0.04225645
   0.62494582  0.94748125  0.13365829
   0.70737833  0.79257412  0.22040958
   0.86436375  0.70296060  0.12998592
   0.62697878  0.45925237  0.12844896
   0.29789209  0.87406327  0.31758793
   0.30717798  0.86850230  0.04269928
   0.62598466  0.71583948  0.12941889
   0.22636977  0.02657626  0.22776586
   0.54227868  0.38236495  0.03729113
   0.37702362  0.20555691  0.13422710
   0.13865409  0.70465584  0.13379824
   0.70443847  0.05100720  0.22039029
   0.79292857  0.12924932  0.31584784
   0.53873159  0.87286112  0.31655115
   0.79646401  0.12292985  0.03752709
   0.54537813  0.87134059  0.03811632
   0.20799686  0.54236125  0.22387311
   0.95025177  0.29885657  0.22184935
   0.87213940  0.96454459  0.13055765
   0.71606081  0.29079466  0.22408721
   0.45720633  0.29314346  0.22115087
   0.87466671  0.45688038  0.12942461
   0.12748153  0.20654114  0.12968723
   0.79120473  0.62110974  0.04224622
   0.29782181  0.62682596  0.04505060
   0.38631574  0.71285295  0.13020276
   0.38227049  0.45188866  0.12824332
   0.79281427  0.38079923  0.31974615
   0.79144401  0.37652223  0.04177987
   0.95541234  0.05424527  0.22153844
   0.45873218  0.79628882  0.22538547
   0.21584487  0.79782265  0.22481112
   0.46163445  0.02868030  0.22280218
   0.87123504  0.08610468  0.46576459
 
 position of ions in cartesian coordinates  (Angst):
  13.19424822  8.19887186  6.94739367
   5.20191625  8.22273487  6.91835920
   5.05001263  3.54694393  6.99201568
  14.55530436  8.98530365  9.29049844
   3.78312494  4.31884917  9.32403160
   6.53315229  8.97978059  9.24859929
  11.87865858  4.27920019  9.31467326
   9.18679843  8.94820646  9.18582643
  10.52975302  1.99493057  9.17860932
   2.49309574  1.97968788  9.22554119
  11.88384260  8.94980901  9.24925697
  13.20188321  6.61497109  9.30292954
   5.15076115  1.94797528  9.27050407
   7.89418501  6.62796355  9.24438998
   9.21731369  4.30402065  9.23628810
   5.16245853  6.58718519  9.35280366
   7.84854866  1.96472843  9.21821827
   7.91606892  3.50234732  6.95036118
   6.41529472  1.16562184  6.90254055
   6.55898775  1.14886237  0.96437977
   3.75747418  4.28391300  2.83238908
   1.20513812  1.26295949  6.89471779
   1.14463842  1.22211154  0.77800032
   6.56687105  8.92705020  2.92680150
   6.50683193  4.29711880  9.29352134
   7.84316702  5.09593270  4.82253351
  10.52272949  6.63528772  9.26362240
  14.51918494  7.33687474  4.85106957
  11.90645966  5.80636069  7.00002893
   6.51606159  5.88621141  6.98086013
   3.66555757  2.59849521  4.95871257
  10.55202913  5.13182036  4.86367551
   3.83190924  5.88760283  7.11521375
  13.19219308  8.02432517  1.00573441
   5.26821132  8.05279369  0.90097800
   3.88992717  5.88755336  0.88775920
   7.96781219  2.09986084  2.87061459
   9.24633038  8.88529155  2.89138037
   2.44461807  3.57783030  7.10071246
   2.33067882  3.55114870  0.88682572
  10.54410677  2.00466306  2.85564487
  13.20125292  5.07199845  4.92596105
   3.81875744  1.08101994  7.04021717
   9.20011306  5.85798017  7.06279970
   3.79990464  1.08421507  0.93869010
   9.28005122  5.82723631  1.01487350
   5.25237804  3.56304485  0.92964181
  11.82186637  8.82904104  2.94048247
  11.87543982  7.38554930  4.84901070
  13.08248223  6.55049166  2.85969017
   9.21706959  4.27951266  2.82587719
   7.90777947  8.14490051  6.98693446
   7.97777754  8.09308092  0.93938418
  10.58681158  6.67050258  2.84721558
   2.57871913  0.24764915  5.01084896
   7.89204220  3.56304242  0.82040476
   5.16267047  1.91546844  2.95299618
   5.28296656  6.56628862  2.94356121
   7.85417690  0.47530725  4.84858632
   9.22727294  1.20440124  6.94865257
  10.49274493  8.13369836  6.96412523
   9.23131555  1.14551366  0.82559594
  10.55608126  8.11952937  0.83855902
   5.15594988  5.05395730  4.92520835
  11.83255762  2.78487505  4.88068561
  14.57347016  8.98804467  2.87226841
   9.26928977  2.70975073  4.92991863
   6.49665205  2.73163781  4.86531912
  11.86943045  4.25740942  2.84734150
   2.48289262  1.92463988  2.85311896
  11.85493352  5.78776983  0.92941673
   6.57688653  5.84103608  0.99111319
   7.99190642  6.64267286  2.86446066
   6.54439165  4.21089446  2.82135314
  10.57938165  3.54845234  7.03441524
  10.54162732  3.50859735  0.91915711
  10.57207652  0.50548096  4.87384564
   9.21999232  7.42016445  4.95848029
   6.61477676  7.43445734  4.94584463
   5.12148683  0.26725547  4.90164786
   9.83773249  0.80236078 10.24682090
 


--------------------------------------------------------------------------------------------------------


 k-point  1 :   0.0000 0.0000 0.0000  plane waves:   64687
 k-point  2 :   0.5000 0.0000 0.0000  plane waves:   64612
 k-point  3 :   0.0000 0.5000 0.0000  plane waves:   64612
 k-point  4 :   0.5000 0.5000 0.0000  plane waves:   64612

 maximum and minimum number of plane-waves per node :     16191    16134

 maximum number of plane-waves:     64687
 maximum index in each direction: 
   IXMAX=   20   IYMAX=   20   IZMAX=   42
   IXMIN=  -21   IYMIN=  -21   IZMIN=  -42


 real space projection operators:
  total allocation   :      74970.50 KBytes
  max/ min on nodes  :      18753.28      18730.80


 parallel 3D FFT for wavefunctions:
    minimum data exchange during FFTs selected (reduces bandwidth)
 parallel 3D FFT for charge:
    minimum data exchange during FFTs selected (reduces bandwidth)


 total amount of memory used by VASP MPI-rank0   233093. kBytes
=======================================================================

   base      :      30000. kBytes
   nonlr-proj:      33408. kBytes
   fftplans  :      16137. kBytes
   grid      :      49182. kBytes
   one-center:        653. kBytes
   wavefun   :     103713. kBytes
 
     INWAV:  cpu time    0.0001: real time    0.0004
 Broyden mixing: mesh for mixing (old mesh)
   NGX = 41   NGY = 41   NGZ = 85
  (NGX  =168   NGY  =168   NGZ  =336)
  gives a total of 142885 points

 initial charge density was supplied:
 charge density of overlapping atoms calculated
 number of electron     778.0000000 magnetization     231.0000000
 keeping initial charge density in first step


--------------------------------------------------------------------------------------------------------


 Maximum index for non-local projection operator         1828
 Maximum index for augmentation-charges         1428 (set IRDMAX)


--------------------------------------------------------------------------------------------------------


 First call to EWALD:  gamma=   0.136
 Maximum number of real-space cells 4x 4x 2
 Maximum number of reciprocal cells 2x 2x 4

    FEWALD:  cpu time    0.0044: real time    0.0044


--------------------------------------- Iteration      1(   1)  ---------------------------------------


    POTLOK:  cpu time    0.3653: real time    0.3700
    SETDIJ:  cpu time    0.0330: real time    0.0331
     EDDAV:  cpu time   59.7221: real time   60.0089
       DOS:  cpu time    0.0037: real time    0.0568
    --------------------------------------------
      LOOP:  cpu time   60.1244: real time   60.4690

 eigenvalue-minimisations  :  9408
 total energy-change (2. order) : 0.7767777E+04  (-0.3290373E+05)
 number of electron     778.0000000 magnetization     231.0000000
 augmentation part      778.0000000 magnetization     231.0000000

 Free energy of the ion-electron system (eV)
  ---------------------------------------------------
  alpha Z        PSCENC =      2156.50569604
  Ewald energy   TEWEN  =    221623.17947711
  -Hartree energ DENC   =   -293650.04321340
  -exchange      EXHF   =         0.00000000
  -V(xc)+E(xc)   XCENC  =      1381.58206885
  PAW double counting   =     64136.80006862   -66038.70876209
  entropy T*S    EENTRO =        -0.00071185
  eigenvalues    EBANDS =      7939.80811679
  atomic energy  EATOM  =     70218.65458108
  Solvation  Ediel_sol  =         0.00000000
  ---------------------------------------------------
  free energy    TOTEN  =      7767.77732115 eV

  energy without entropy =     7767.77803300  energy(sigma->0) =     7767.77755844


--------------------------------------------------------------------------------------------------------




--------------------------------------- Iteration      1(   2)  ---------------------------------------


     EDDAV:  cpu time   59.6981: real time   59.8916
       DOS:  cpu time    0.0027: real time    0.0028
    --------------------------------------------
      LOOP:  cpu time   59.7008: real time   59.8944

 eigenvalue-minimisations  :  9408
 total energy-change (2. order) :-0.6954497E+04  (-0.6223622E+04)
 number of electron     778.0000000 magnetization     231.0000000
 augmentation part      778.0000000 magnetization     231.0000000

 Free energy of the ion-electron system (eV)
  ---------------------------------------------------
  alpha Z        PSCENC =      2156.50569604
  Ewald energy   TEWEN  =    221623.17947711
  -Hartree energ DENC   =   -293650.04321340
  -exchange      EXHF   =         0.00000000
  -V(xc)+E(xc)   XCENC  =      1381.58206885
  PAW double counting   =     64136.80006862   -66038.70876209
  entropy T*S    EENTRO =        -0.00245488
  eigenvalues    EBANDS =       985.31257736
  atomic energy  EATOM  =     70218.65458108
  Solvation  Ediel_sol  =         0.00000000
  ---------------------------------------------------
  free energy    TOTEN  =       813.28003869 eV

  energy without entropy =      813.28249357  energy(sigma->0) =      813.28085698


--------------------------------------------------------------------------------------------------------




--------------------------------------- Iteration      1(   3)  ---------------------------------------


     EDDAV:  cpu time   59.6463: real time   59.8875
       DOS:  cpu time    0.0028: real time    0.0029
    --------------------------------------------
      LOOP:  cpu time   59.6491: real time   59.8904

 eigenvalue-minimisations  :  9408
 total energy-change (2. order) :-0.1189417E+04  (-0.9633911E+03)
 number of electron     778.0000000 magnetization     231.0000000
 augmentation part      778.0000000 magnetization     231.0000000

 Free energy of the ion-electron system (eV)
  ---------------------------------------------------
  alpha Z        PSCENC =      2156.50569604
  Ewald energy   TEWEN  =    221623.17947711
  -Hartree energ DENC   =   -293650.04321340
  -exchange      EXHF   =         0.00000000
  -V(xc)+E(xc)   XCENC  =      1381.58206885
  PAW double counting   =     64136.80006862   -66038.70876209
  entropy T*S    EENTRO =        -0.00480223
  eigenvalues    EBANDS =      -204.10182314
  atomic energy  EATOM  =     70218.65458108
  Solvation  Ediel_sol  =         0.00000000
  ---------------------------------------------------
  free energy    TOTEN  =      -376.13670915 eV

  energy without entropy =     -376.13190693  energy(sigma->0) =     -376.13510841


--------------------------------------------------------------------------------------------------------




--------------------------------------- Iteration      1(   4)  ---------------------------------------


     EDDAV:  cpu time   71.2034: real time   71.4359
       DOS:  cpu time    0.0028: real time    0.0361
    --------------------------------------------
      LOOP:  cpu time   71.2061: real time   71.4720

 eigenvalue-minimisations  : 11844
 total energy-change (2. order) :-0.1168264E+03  (-0.1068042E+03)
 number of electron     778.0000000 magnetization     231.0000000
 augmentation part      778.0000000 magnetization     231.0000000

 Free energy of the ion-electron system (eV)
  ---------------------------------------------------
  alpha Z        PSCENC =      2156.50569604
  Ewald energy   TEWEN  =    221623.17947711
  -Hartree energ DENC   =   -293650.04321340
  -exchange      EXHF   =         0.00000000
  -V(xc)+E(xc)   XCENC  =      1381.58206885
  PAW double counting   =     64136.80006862   -66038.70876209
  entropy T*S    EENTRO =        -0.00520400
  eigenvalues    EBANDS =      -320.92781951
  atomic energy  EATOM  =     70218.65458108
  Solvation  Ediel_sol  =         0.00000000
  ---------------------------------------------------
  free energy    TOTEN  =      -492.96310730 eV

  energy without entropy =     -492.95790330  energy(sigma->0) =     -492.96137263


--------------------------------------------------------------------------------------------------------




--------------------------------------- Iteration      1(   5)  ---------------------------------------


     EDDAV:  cpu time   68.1187: real time   68.3416
       DOS:  cpu time    0.0030: real time    0.0032
    CHARGE:  cpu time    3.7277: real time    3.7376
    MIXING:  cpu time    0.0098: real time    0.0098
    --------------------------------------------
      LOOP:  cpu time   71.8592: real time   72.0923

 eigenvalue-minimisations  : 11184
 total energy-change (2. order) :-0.4384126E+01  (-0.4348257E+01)
 number of electron     777.9999975 magnetization     216.6331753
 augmentation part      335.1211824 magnetization     183.8362668

 Broyden mixing:
  rms(total) = 0.11573E+02    rms(broyden)= 0.11573E+02
  rms(prec ) = 0.11908E+02
  weight for this iteration     100.00

 Free energy of the ion-electron system (eV)
  ---------------------------------------------------
  alpha Z        PSCENC =      2156.50569604
  Ewald energy   TEWEN  =    221623.17947711
  -Hartree energ DENC   =   -293650.04321340
  -exchange      EXHF   =         0.00000000
  -V(xc)+E(xc)   XCENC  =      1381.58206885
  PAW double counting   =     64136.80006862   -66038.70876209
  entropy T*S    EENTRO =        -0.00550933
  eigenvalues    EBANDS =      -325.31163996
  atomic energy  EATOM  =     70218.65458108
  Solvation  Ediel_sol  =         0.00000000
  ---------------------------------------------------
  free energy    TOTEN  =      -497.34723307 eV

  energy without entropy =     -497.34172375  energy(sigma->0) =     -497.34539663


--------------------------------------------------------------------------------------------------------




--------------------------------------- Iteration      1(   6)  ---------------------------------------


    POTLOK:  cpu time    0.3443: real time    0.3572
    SETDIJ:  cpu time    0.0315: real time    0.0317
    EDDIAG:  cpu time   10.6410: real time   10.6742
  RMM-DIIS:  cpu time   36.9999: real time   37.1014
    ORTHCH:  cpu time    1.2661: real time    1.2700
       DOS:  cpu time    0.0025: real time    0.0025
    CHARGE:  cpu time    3.5977: real time    3.6073
    MIXING:  cpu time    0.0107: real time    0.0111
    --------------------------------------------
      LOOP:  cpu time   52.8937: real time   53.0554

 eigenvalue-minimisations  :  9579
 total energy-change (2. order) :-0.1906460E+03  (-0.9498737E+02)
 number of electron     777.9999957 magnetization     212.7199109
 augmentation part      406.7985354 magnetization     179.6443950

 Broyden mixing:
  rms(total) = 0.20163E+02    rms(broyden)= 0.20163E+02
  rms(prec ) = 0.26300E+02
  weight for this iteration     100.00

 eigenvalues of (default mixing * dielectric matrix)
  average eigenvalue GAMMA=   0.2127
  0.2127

 Free energy of the ion-electron system (eV)
  ---------------------------------------------------
  alpha Z        PSCENC =      2156.50569604
  Ewald energy   TEWEN  =    221623.17947711
  -Hartree energ DENC   =   -292042.29742178
  -exchange      EXHF   =         0.00000000
  -V(xc)+E(xc)   XCENC  =      1335.59590457
  PAW double counting   =     68857.56068881   -70545.30264839
  entropy T*S    EENTRO =        -0.00227836
  eigenvalues    EBANDS =     -2291.88720924
  atomic energy  EATOM  =     70218.65458108
  Solvation  Ediel_sol  =         0.00000000
  ---------------------------------------------------
  free energy    TOTEN  =      -687.99321016 eV

  energy without entropy =     -687.99093179  energy(sigma->0) =     -687.99245070


--------------------------------------------------------------------------------------------------------




--------------------------------------- Iteration      1(   7)  ---------------------------------------


    POTLOK:  cpu time    0.3468: real time    0.3488
    SETDIJ:  cpu time    0.0317: real time    0.0318
    EDDIAG:  cpu time   10.6719: real time   10.7005
  RMM-DIIS:  cpu time   36.4382: real time   36.5384
    ORTHCH:  cpu time    1.2661: real time    1.2699
       DOS:  cpu time    0.0025: real time    0.0025
    CHARGE:  cpu time    3.6182: real time    3.6278
    MIXING:  cpu time    0.0106: real time    0.0107
    --------------------------------------------
      LOOP:  cpu time   52.3860: real time   52.5304

 eigenvalue-minimisations  :  9422
 total energy-change (2. order) : 0.1665174E+03  (-0.1615233E+02)
 number of electron     777.9999972 magnetization     207.9629178
 augmentation part      368.9495601 magnetization     164.6804244

 Broyden mixing:
  rms(total) = 0.14885E+02    rms(broyden)= 0.14885E+02
  rms(prec ) = 0.19861E+02
  weight for this iteration     100.00

 eigenvalues of (default mixing * dielectric matrix)
  average eigenvalue GAMMA=   0.2707
  0.3746  0.1668

 Free energy of the ion-electron system (eV)
  ---------------------------------------------------
  alpha Z        PSCENC =      2156.50569604
  Ewald energy   TEWEN  =    221623.17947711
  -Hartree energ DENC   =   -292708.18264862
  -exchange      EXHF   =         0.00000000
  -V(xc)+E(xc)   XCENC  =      1355.18700621
  PAW double counting   =     69857.28071471   -71700.84422924
  entropy T*S    EENTRO =        -0.01229566
  eigenvalues    EBANDS =     -1323.24415075
  atomic energy  EATOM  =     70218.65458108
  Solvation  Ediel_sol  =         0.00000000
  ---------------------------------------------------
  free energy    TOTEN  =      -521.47584912 eV

  energy without entropy =     -521.46355346  energy(sigma->0) =     -521.47175057


--------------------------------------------------------------------------------------------------------




--------------------------------------- Iteration      1(   8)  ---------------------------------------


    POTLOK:  cpu time    0.3475: real time    0.3493
    SETDIJ:  cpu time    0.0314: real time    0.0315
    EDDIAG:  cpu time   10.6800: real time   10.7110
  RMM-DIIS:  cpu time   36.4497: real time   36.5610
    ORTHCH:  cpu time    1.2668: real time    1.2712
       DOS:  cpu time    0.0026: real time    0.0026
    CHARGE:  cpu time    3.5515: real time    3.5610
    MIXING:  cpu time    0.0111: real time    0.0115
    --------------------------------------------
      LOOP:  cpu time   52.3407: real time   52.4991

 eigenvalue-minimisations  :  9435
 total energy-change (2. order) : 0.3813442E+02  (-0.1152239E+02)
 number of electron     777.9999974 magnetization     200.7680306
 augmentation part      372.8948299 magnetization     163.8504286

 Broyden mixing:
  rms(total) = 0.16337E+02    rms(broyden)= 0.16337E+02
  rms(prec ) = 0.19187E+02
  weight for this iteration     100.00

 eigenvalues of (default mixing * dielectric matrix)
  average eigenvalue GAMMA=   0.3094
  0.5875  0.2592  0.0816

 Free energy of the ion-electron system (eV)
  ---------------------------------------------------
  alpha Z        PSCENC =      2156.50569604
  Ewald energy   TEWEN  =    221623.17947711
  -Hartree energ DENC   =   -292963.12235343
  -exchange      EXHF   =         0.00000000
  -V(xc)+E(xc)   XCENC  =      1361.18376358
  PAW double counting   =     71063.29599164   -72980.16995232
  entropy T*S    EENTRO =         0.01134604
  eigenvalues    EBANDS =      -962.87997993
  atomic energy  EATOM  =     70218.65458108
  Solvation  Ediel_sol  =         0.00000000
  ---------------------------------------------------
  free energy    TOTEN  =      -483.34143019 eV

  energy without entropy =     -483.35277623  energy(sigma->0) =     -483.34521220


--------------------------------------------------------------------------------------------------------




--------------------------------------- Iteration      1(   9)  ---------------------------------------


    POTLOK:  cpu time    0.3465: real time    0.3494
    SETDIJ:  cpu time    0.0313: real time    0.0315
    EDDIAG:  cpu time   10.6973: real time   10.7311
  RMM-DIIS:  cpu time   36.6227: real time   36.7235
    ORTHCH:  cpu time    1.2756: real time    1.2794
       DOS:  cpu time    0.0024: real time    0.0024
    CHARGE:  cpu time    3.5618: real time    3.5712
    MIXING:  cpu time    0.0118: real time    0.0118
    --------------------------------------------
      LOOP:  cpu time   52.5494: real time   52.7004

 eigenvalue-minimisations  :  9450
 total energy-change (2. order) : 0.9688861E+02  (-0.1502783E+02)
 number of electron     777.9999968 magnetization     192.6825512
 augmentation part      375.2005610 magnetization     146.7882124

 Broyden mixing:
  rms(total) = 0.12281E+02    rms(broyden)= 0.12281E+02
  rms(prec ) = 0.13967E+02
  weight for this iteration     100.00

 eigenvalues of (default mixing * dielectric matrix)
  average eigenvalue GAMMA=   0.3599
  0.8662  0.3442  0.1293  0.0999

 Free energy of the ion-electron system (eV)
  ---------------------------------------------------
  alpha Z        PSCENC =      2156.50569604
  Ewald energy   TEWEN  =    221623.17947711
  -Hartree energ DENC   =   -292695.04895816
  -exchange      EXHF   =         0.00000000
  -V(xc)+E(xc)   XCENC  =      1378.08629927
  PAW double counting   =     72462.55377320   -74431.55576271
  entropy T*S    EENTRO =        -0.00293838
  eigenvalues    EBANDS =     -1098.82499047
  atomic energy  EATOM  =     70218.65458108
  Solvation  Ediel_sol  =         0.00000000
  ---------------------------------------------------
  free energy    TOTEN  =      -386.45282302 eV

  energy without entropy =     -386.44988464  energy(sigma->0) =     -386.45184356


[...]
   0.314E+01 0.465E+02 -.286E+04   -.285E+01 -.461E+02 0.286E+04   -.290E+00 -.465E+00 -.912E+00   0.453E-02 0.242E-01 -.645E-01
   -.141E+02 0.634E+01 -.286E+04   0.135E+02 -.591E+01 0.286E+04   0.633E+00 -.447E+00 0.173E+01   -.107E-02 0.148E-01 0.105E-01
   0.765E+01 0.205E+01 -.283E+04   -.680E+01 -.277E+01 0.283E+04   -.839E+00 0.693E+00 0.173E+01   -.149E-01 0.277E-02 -.587E-01
   -.271E+02 -.152E+02 -.288E+04   0.270E+02 0.145E+02 0.288E+04   0.516E-01 0.691E+00 0.167E+01   -.165E-01 0.154E-01 -.221E-01
   0.110E+02 -.210E+02 -.288E+04   -.114E+02 0.211E+02 0.287E+04   0.427E+00 -.117E+00 0.205E+01   -.120E-01 0.150E-01 0.488E-02
   -.308E+02 -.185E+01 -.287E+04   0.306E+02 0.213E+01 0.287E+04   0.959E-01 -.323E+00 0.139E-01   -.234E-01 0.477E-02 -.630E-01
   -.113E+02 -.179E+01 -.284E+04   0.119E+02 0.221E+01 0.284E+04   -.588E+00 -.387E+00 0.187E+01   -.488E-02 -.261E-02 -.718E-03
   -.918E+01 -.686E+01 -.288E+04   0.922E+01 0.647E+01 0.288E+04   -.970E-01 0.344E+00 0.105E+01   0.127E-01 0.140E-01 -.137E-01
   -.107E+02 0.963E+01 -.285E+04   0.110E+02 -.971E+01 0.285E+04   -.318E+00 0.867E-01 0.142E+01   0.697E-02 -.190E-01 -.858E-02
   0.521E+01 -.281E+02 -.286E+04   -.554E+01 0.276E+02 0.286E+04   0.319E+00 0.428E+00 0.117E+01   0.940E-02 0.100E-01 -.415E-02
   0.257E+02 0.134E+02 -.287E+04   -.252E+02 -.132E+02 0.287E+04   -.535E+00 -.200E+00 0.168E+01   -.134E-01 -.117E-01 0.455E-02
   0.257E+02 -.103E+02 -.287E+04   -.253E+02 0.108E+02 0.287E+04   -.413E+00 -.461E+00 0.162E+01   0.132E-01 -.535E-02 -.170E-01
   -.170E+01 0.138E+00 -.285E+04   0.137E+01 -.821E+00 0.285E+04   0.336E+00 0.664E+00 0.141E+01   -.545E-02 -.274E-02 -.243E-01
   0.298E+02 -.110E+02 -.285E+04   -.305E+02 0.116E+02 0.285E+04   0.686E+00 -.648E+00 0.166E+01   0.131E-01 -.380E-02 -.184E-01
   0.669E+02 -.639E+02 -.149E+04   -.655E+02 0.640E+02 0.149E+04   -.129E+01 -.125E+00 0.165E+01   0.104E-01 -.434E-02 -.490E-02
   0.233E+02 -.414E+02 -.148E+04   -.244E+02 0.409E+02 0.147E+04   0.108E+01 0.451E+00 0.242E+01   0.147E-01 0.838E-02 0.266E-02
   0.338E+02 0.245E+02 0.295E+04   -.339E+02 -.247E+02 -.295E+04   0.520E-01 0.241E+00 -.265E+01   0.229E-02 0.167E-02 -.428E-02
   0.257E+02 -.589E+01 0.158E+04   -.266E+02 0.662E+01 -.158E+04   0.964E+00 -.685E+00 0.946E+00   -.136E-01 -.130E-01 0.135E-01
   -.638E+02 0.113E+02 -.145E+04   0.646E+02 -.106E+02 0.145E+04   -.711E+00 -.718E+00 0.253E+01   -.111E-01 -.196E-01 -.250E-01
   -.526E+02 0.593E+02 0.302E+04   0.533E+02 -.582E+02 -.301E+04   -.702E+00 -.111E+01 -.239E+01   0.428E-02 0.669E-02 0.193E-01
   0.907E+01 -.548E+02 0.156E+04   -.886E+01 0.542E+02 -.156E+04   -.289E+00 0.486E+00 -.784E+00   0.192E-01 0.208E-01 0.438E-01
   0.147E+02 0.182E+01 -.286E+04   -.148E+02 -.176E+01 0.286E+04   0.137E+00 -.393E-01 0.108E+01   0.733E-03 -.308E-02 0.348E-02
   -.157E+02 -.447E+00 0.104E+02   0.157E+02 0.730E+00 -.115E+02   -.506E-01 -.344E+00 0.108E+01   0.552E-02 0.635E-02 0.173E-01
   -.142E+02 0.133E+02 -.288E+04   0.137E+02 -.134E+02 0.288E+04   0.513E+00 0.106E+00 0.155E+01   0.487E-02 -.316E-01 -.422E-02
   0.143E+02 0.507E+02 0.273E+02   -.153E+02 -.519E+02 -.275E+02   0.109E+01 0.122E+01 0.113E+00   0.232E-01 0.714E-02 0.271E-01
   -.642E+02 0.663E+01 -.146E+04   0.647E+02 -.777E+01 0.146E+04   -.464E+00 0.121E+01 0.282E+01   0.223E-02 -.126E-01 0.146E-01
   0.281E+02 0.289E+02 -.150E+04   -.279E+02 -.281E+02 0.150E+04   -.233E+00 -.748E+00 0.224E+01   -.490E-02 0.153E-01 0.689E-03
   0.841E+01 -.634E+02 -.637E+02   -.938E+01 0.628E+02 0.640E+02   0.107E+01 0.542E+00 -.324E+00   -.199E-01 -.251E-01 -.775E-02
   -.215E+02 -.185E+02 0.552E+01   0.223E+02 0.193E+02 -.614E+01   -.744E+00 -.796E+00 0.607E+00   -.916E-02 -.813E-02 0.212E-02
   0.196E+02 0.130E+02 -.120E+04   -.197E+02 -.133E+02 0.120E+04   0.819E-01 0.415E+00 0.346E+00   0.864E-02 0.989E-02 0.753E-02
   -.670E+02 -.771E+01 0.237E+04   0.672E+02 0.640E+01 -.237E+04   -.300E+00 0.133E+01 -.288E+01   0.160E-02 -.317E-02 -.984E-02
   0.361E+02 -.202E+02 0.241E+04   -.360E+02 0.186E+02 -.241E+04   -.520E-01 0.168E+01 -.258E+01   -.387E-03 0.409E-02 0.503E-02
   0.267E+02 0.377E+01 0.241E+04   -.267E+02 -.296E+01 -.240E+04   -.282E-01 -.855E+00 -.311E+01   -.535E-02 0.666E-03 0.375E-03
   0.179E+02 0.610E+02 0.125E+04   -.170E+02 -.603E+02 -.125E+04   -.976E+00 -.819E+00 -.112E+00   0.883E-02 0.704E-02 0.118E-01
   0.302E+02 -.650E+02 0.125E+04   -.301E+02 0.647E+02 -.125E+04   -.114E+00 0.289E+00 -.445E+00   -.220E-01 0.782E-02 0.295E-01
   -.566E+02 -.220E+02 -.120E+04   0.568E+02 0.221E+02 0.120E+04   -.152E+00 -.192E+00 0.599E+00   -.630E-02 0.298E-02 -.182E-02
   -.119E+03 0.181E+02 0.242E+04   0.118E+03 -.179E+02 -.242E+04   0.782E+00 -.175E+00 -.300E+01   -.987E-02 -.308E-02 0.159E-01
   -.345E+02 0.510E+02 0.127E+04   0.336E+02 -.505E+02 -.127E+04   0.868E+00 -.528E+00 -.443E+00   0.144E-01 0.228E-02 0.172E-01
   -.517E+02 0.277E+01 -.358E+02   0.514E+02 -.235E+01 0.359E+02   0.212E+00 -.461E+00 -.146E+00   -.286E-02 -.104E-01 0.509E-02
   0.148E+02 -.805E+02 -.121E+04   -.149E+02 0.804E+02 0.121E+04   0.146E+00 0.187E+00 0.969E+00   -.106E-01 -.595E-02 -.211E-01
   0.126E+02 0.275E+02 -.121E+04   -.127E+02 -.275E+02 0.121E+04   0.124E+00 0.315E-02 0.206E+00   -.236E-02 -.565E-02 -.936E-02
   0.330E+01 -.624E+02 0.239E+04   -.409E+01 0.613E+02 -.239E+04   0.821E+00 0.110E+01 -.302E+01   -.885E-02 -.309E-02 0.158E-01
   0.110E+02 -.155E+02 0.269E+04   -.111E+02 0.157E+02 -.269E+04   0.269E-01 -.225E+00 -.254E+01   0.100E-01 -.189E-02 0.577E-03
   0.132E+03 0.387E+02 0.272E+04   -.132E+03 -.378E+02 -.272E+04   0.162E+00 -.884E+00 -.276E+01   0.259E-03 0.320E-04 0.738E-02
   -.480E+02 -.441E+02 0.138E+04   0.475E+02 0.430E+02 -.138E+04   0.518E+00 0.119E+01 -.358E+00   -.136E-01 0.208E-02 0.338E-02
   -.659E+02 0.516E+02 0.208E+02   0.659E+02 -.515E+02 -.216E+02   -.422E-01 -.115E+00 0.675E+00   -.122E-01 -.693E-02 0.184E-01
   -.105E+03 0.121E+02 0.138E+04   0.105E+03 -.117E+02 -.138E+04   0.471E+00 -.465E+00 -.180E+00   -.258E-02 -.172E-01 -.202E-02
   -.158E+02 0.653E+01 0.136E+04   0.159E+02 -.682E+01 -.136E+04   -.135E+00 0.332E+00 -.145E+00   0.114E-01 -.845E-03 0.107E-01
   0.417E+02 0.420E+01 -.137E+04   -.416E+02 -.436E+01 0.137E+04   -.158E+00 0.193E+00 0.123E+01   -.197E-01 0.798E-02 -.322E-01
   0.598E+02 -.792E+02 0.270E+04   -.594E+02 0.791E+02 -.270E+04   -.466E+00 0.202E+00 -.272E+01   0.901E-02 0.574E-02 0.109E-01
   -.133E+02 0.391E+01 0.135E+04   0.135E+02 -.362E+01 -.135E+04   -.129E+00 -.267E+00 -.439E+00   -.166E-01 -.132E-01 0.432E-02
   0.263E+02 -.740E+02 -.158E+02   -.254E+02 0.734E+02 0.161E+02   -.856E+00 0.649E+00 -.402E+00   -.103E-01 -.637E-02 -.956E-02
   0.358E+02 0.409E+02 0.336E+04   -.359E+02 -.400E+02 -.336E+04   0.972E-01 -.921E+00 -.400E+01   0.935E-02 0.559E-02 0.627E-02
   0.575E+02 0.572E+01 0.170E+04   -.576E+02 -.633E+01 -.170E+04   0.160E+00 0.656E+00 -.108E+00   -.235E-01 -.116E-02 0.196E-01
   0.113E+03 -.352E+02 0.167E+04   -.113E+03 0.353E+02 -.167E+04   -.203E+00 -.532E-01 -.122E+00   0.840E-02 0.524E-02 0.234E-01
   0.165E+02 0.651E+02 0.955E+02   -.172E+02 -.651E+02 -.960E+02   0.682E+00 -.178E+00 0.491E+00   0.198E-01 0.148E-01 0.257E-01
   0.126E+02 0.555E+02 -.168E+04   -.120E+02 -.553E+02 0.168E+04   -.654E+00 -.213E+00 0.151E+01   0.961E-02 -.425E-02 0.531E-02
   -.413E+02 0.279E+02 -.164E+04   0.405E+02 -.276E+02 0.164E+04   0.975E+00 -.234E+00 0.216E+01   -.140E-01 -.620E-02 -.186E-01
   0.164E+01 0.102E+03 0.331E+04   -.156E+01 -.103E+03 -.331E+04   -.143E+00 0.442E+00 -.331E+01   0.482E-02 0.438E-02 0.703E-02
   -.232E+02 -.845E+02 0.334E+04   0.223E+02 0.842E+02 -.334E+04   0.944E+00 0.280E+00 -.298E+01   -.971E-02 -.114E-01 0.433E-03
   0.109E+03 0.109E+02 -.516E+02   -.109E+03 -.108E+02 0.518E+02   -.313E-01 -.258E+00 -.435E+00   0.644E-02 0.889E-02 0.161E-01
   -.115E+03 -.287E+02 0.410E+02   0.115E+03 0.285E+02 -.408E+02   0.345E+00 0.155E+00 -.120E+00   0.130E-02 -.230E-01 -.888E-02
   -.764E+01 0.632E+02 0.176E+04   0.738E+01 -.626E+02 -.176E+04   0.292E+00 -.664E+00 -.805E+00   0.208E-01 0.117E-01 0.168E-01
   0.184E+02 -.618E+02 0.397E+02   -.181E+02 0.607E+02 -.403E+02   -.328E+00 0.119E+01 0.473E+00   0.101E-01 -.183E-02 0.125E-01
   0.545E+02 -.215E+02 0.105E+02   -.539E+02 0.212E+02 -.105E+02   -.699E+00 0.295E+00 0.420E-01   0.802E-02 0.379E-02 0.104E-01
   -.784E+02 0.308E+01 0.151E+04   0.779E+02 -.293E+01 -.151E+04   0.467E+00 -.992E-01 -.238E+00   -.524E-02 -.149E-01 0.113E-01
   -.184E+02 0.173E+02 0.159E+04   0.187E+02 -.176E+02 -.159E+04   -.391E+00 0.272E+00 -.486E+00   -.101E-01 -.138E-01 0.301E-01
   -.109E+03 -.804E+01 0.302E+04   0.109E+03 0.811E+01 -.302E+04   -.465E+00 -.209E-01 -.171E+01   -.113E-01 -.703E-02 0.738E-02
   0.697E+02 -.467E+02 0.301E+04   -.701E+02 0.473E+02 -.301E+04   0.488E+00 -.597E+00 -.109E+01   0.706E-02 -.414E-02 0.243E-02
   0.197E+02 -.330E+02 0.152E+04   -.193E+02 0.328E+02 -.152E+04   -.411E+00 0.221E+00 -.333E-01   0.105E-01 0.120E-01 0.257E-01
   0.563E+02 0.686E+01 0.155E+04   -.557E+02 -.691E+01 -.155E+04   -.560E+00 0.102E+00 -.244E+00   0.615E-02 0.148E-03 0.169E-01
   -.318E+02 -.580E+02 -.152E+04   0.318E+02 0.579E+02 0.152E+04   0.916E-01 0.133E+00 0.524E+00   -.681E-02 -.662E-02 0.111E-02
   -.427E+02 0.320E+02 0.300E+04   0.432E+02 -.314E+02 -.300E+04   -.491E+00 -.644E+00 -.209E+01   0.677E-02 0.566E-02 0.159E-01
   -.421E+02 0.787E+02 0.801E+02   0.425E+02 -.784E+02 -.800E+02   -.425E+00 -.357E+00 -.168E+00   0.273E-01 -.276E-03 0.158E-01
   -.288E+00 0.568E+02 -.134E+02   0.192E+00 -.561E+02 0.133E+02   0.161E+00 -.852E+00 -.634E-01   -.253E-01 0.187E-01 0.308E-02
   0.588E+02 -.833E+00 -.275E+02   -.583E+02 0.139E+01 0.274E+02   -.461E+00 -.631E+00 -.664E-01   0.132E-01 0.289E-01 0.177E-01
   0.921E+01 -.609E+02 0.353E+02   -.952E+01 0.604E+02 -.354E+02   0.311E+00 0.492E+00 0.171E-01   -.430E-01 -.175E-03 0.624E-02
   -.225E+01 -.155E+01 -.344E+03   0.237E+01 0.176E+01 0.346E+03   -.120E+00 -.237E+00 -.191E+01   -.113E-02 0.821E-03 -.205E-02
 -----------------------------------------------------------------------------------------------
   -.171E+01 -.249E+00 0.520E+00   0.630E-12 0.116E-11 -.235E-10   0.172E+01 0.258E+00 -.674E+00   -.433E-01 0.159E-01 0.165E+00
 
 
 POSITION                                       TOTAL-FORCE (eV/Angst)
 -----------------------------------------------------------------------------------
     13.20601      8.20392      6.95752        -0.001280     -0.003491      0.000557
      5.19215      8.22259      6.90311         0.012482      0.005707     -0.009092
      5.05536      3.54415      6.99272         0.003972     -0.019065     -0.015679
     14.56964      8.95355      9.33384        -0.003694      0.002376      0.014172
      3.78676      4.31766      9.32204         0.006131     -0.016543     -0.010406
      6.54054      8.94351      9.17595        -0.008588     -0.007002      0.044077
     11.87542      4.27117      9.28735        -0.004845      0.002746      0.001322
      9.18944      8.94495      9.19122         0.024567      0.030531      0.002252
     10.54510      1.98334      9.27668        -0.003649     -0.017297      0.006171
      2.50017      1.97532      9.22381        -0.006016      0.006882     -0.002455
     11.87021      8.94317      9.25398        -0.004884      0.005546      0.004017
     13.22873      6.63117      9.29764         0.009161     -0.005938     -0.002198
      5.15068      1.94040      9.27245        -0.001178     -0.013669     -0.010767
      7.87515      6.63385      9.25411        -0.011001     -0.013961     -0.002736
      9.21354      4.31096      9.22887         0.006321      0.003644     -0.000350
      5.15616      6.61016      9.28984         0.015510     -0.011845      0.020067
      7.82615      1.96999      9.20138         0.022252     -0.008723      0.004941
      7.92052      3.49923      6.94837         0.008264     -0.009413      0.021581
      6.41678      1.15887      6.89975        -0.000301      0.009498      0.014348
      6.55899      1.14886      0.96438        -0.005666     -0.000704      0.004008
      3.75747      4.28391      2.83239        -0.016939     -0.018395     -0.023783
      1.19128      1.27629      6.89095         0.006029     -0.015343      0.020648
      1.14464      1.22211      0.77800        -0.002503      0.017018     -0.007268
      6.56687      8.92705      2.92680        -0.010732      0.002133      0.008212
      6.50889      4.30031      9.29542         0.005486      0.027036      0.004133
      7.84317      5.09593      4.82253         0.005973      0.001905     -0.055142
     10.52423      6.62929      9.25673         0.000634     -0.019776      0.001846
     14.51918      7.33687      4.85107        -0.013319      0.016747     -0.037410
     11.91255      5.81360      6.99846         0.001647     -0.010907      0.031795
      6.52455      5.88458      6.97274        -0.009986     -0.004690     -0.024192
      3.66556      2.59850      4.95871         0.015096     -0.014120     -0.012242
     10.55203      5.13182      4.86368         0.004422     -0.001033     -0.026075
      3.83534      5.87905      7.10430         0.005291      0.011303      0.009674
     13.19219      8.02433      1.00573        -0.010105     -0.013223      0.010673
      5.26821      8.05279      0.90098         0.003894      0.005427      0.011508
      3.88993      5.88755      0.88776         0.004563     -0.005447      0.019293
      7.96781      2.09986      2.87061        -0.022556      0.000218     -0.012506
      9.24633      8.88529      2.89138        -0.008607      0.038266      0.000956
      2.44843      3.57284      7.09415        -0.017188      0.005339      0.010910
      2.33068      3.55115      0.88683         0.029095      0.000018     -0.003651
     10.54411      2.00466      2.85564        -0.006677      0.011513     -0.016993
     13.20125      5.07200      4.92596        -0.025424     -0.012946     -0.011235
      3.81638      1.08001      7.04149         0.004334      0.007980     -0.003696
      9.20194      5.85907      7.06163         0.003511     -0.011799     -0.002112
      3.79990      1.08422      0.93869        -0.006426      0.001995      0.019737
      9.28005      5.82724      1.01487        -0.027763      0.002178      0.008762
      5.25238      3.56304      0.92964        -0.010235     -0.000638      0.015246
     11.82187      8.82904      2.94048        -0.018474      0.012473      0.024500
     11.87544      7.38555      4.84901        -0.029726     -0.014937     -0.093835
     13.08248      6.55049      2.85969         0.009468     -0.009375     -0.002323
      9.21707      4.27951      2.82588         0.014022      0.000295      0.004607
      7.89976      8.15646      6.98949        -0.005010     -0.005082      0.010206
      7.97778      8.09308      0.93938        -0.007347      0.020995     -0.012404
     10.58681      6.67050      2.84722         0.020212      0.023137      0.045591
      2.57872      0.24765      5.01085         0.031945      0.002825      0.000089
      7.89204      3.56304      0.82040        -0.003272     -0.005935      0.010115
      5.16267      1.91547      2.95300        -0.010402     -0.005322      0.014701
      5.28297      6.56629      2.94356         0.007000     -0.010794     -0.004913
      7.85418      0.47531      4.84859         0.029825     -0.002862      0.038616
      9.24248      1.20868      6.97028        -0.005410      0.002619      0.015291
     10.49263      8.13215      6.96291         0.017557      0.003172     -0.003134
      9.23132      1.14551      0.82560        -0.024779      0.010570      0.013892
     10.55608      8.11953      0.83856        -0.010398      0.004767      0.027327
      5.15595      5.05396      4.92521         0.005802     -0.010913     -0.048261
     11.83256      2.78488      4.88069        -0.003071      0.014843      0.006339
     14.57347      8.98804      2.87227         0.012174      0.017479     -0.005909
      9.26929      2.70975      4.92992         0.014089     -0.025047      0.003515
      6.49665      2.73164      4.86532        -0.007958     -0.003260      0.005336
     11.86943      4.25741      2.84734         0.010921     -0.018235     -0.025330
      2.48289      1.92464      2.85312        -0.028165      0.002900     -0.006800
     11.85493      5.78777      0.92942        -0.005998      0.027908      0.011784
      6.57689      5.84104      0.99111         0.015530      0.008223     -0.008519
      7.99191      6.64267      2.86446        -0.006928      0.009434     -0.012532
      6.54439      4.21089      2.82135        -0.010251      0.010735      0.017120
     10.58419      3.54962      7.02921         0.003991      0.002897      0.016335
     10.54163      3.50860      0.91916        -0.014139     -0.006962      0.003455
     10.57208      0.50548      4.87385        -0.038681      0.010640     -0.001812
      9.21999      7.42016      4.95848         0.016755      0.002688     -0.031264
      6.61478      7.43446      4.94584         0.065748     -0.010215     -0.025042
      5.12149      0.26726      4.90165        -0.006665      0.002148     -0.007543
      9.85535      0.79737     10.42185         0.002561     -0.021847     -0.000123
 -----------------------------------------------------------------------------------
    total drift:                               -0.040353      0.024765      0.010497


--------------------------------------------------------------------------------------------------------



  FREE ENERGIE OF THE ION-ELECTRON SYSTEM (eV)
  ---------------------------------------------------
  free  energy   TOTEN  =      -509.12986677 eV

  energy  without entropy=     -509.15468915  energy(sigma->0) =     -509.13814090
 
 d Force = 0.1862963E-02[ 0.653E-03, 0.307E-02]  d Energy = 0.1700891E-02 0.162E-03
 d Force = 0.7130690E+02[ 0.713E+02, 0.713E+02]  d Ewald  = 0.7130691E+02-0.109E-04


--------------------------------------------------------------------------------------------------------


    POTLOK:  cpu time    0.3874: real time    0.3887


--------------------------------------------------------------------------------------------------------


 Conjugate gradient step on ions:
 trial-energy change:   -0.001701  1 .order   -0.001863   -0.003073   -0.000653
  (g-gl).g = 0.187E-02      g.g   = 0.186E-02  gl.gl    = 0.317E-02
 g(Force)  = 0.186E-02   g(Stress)= 0.000E+00 ortho     =-0.131E-03
 gamma     =   0.58821
 trial     =   1.72113
 opt step  =   2.18588  (harmonic =   2.18588) maximal distance =0.01262027
 next E    =  -509.130117   (d E  =  -0.00195)


--------------------------------------------------------------------------------------------------------


  
 reached required accuracy - stopping structural energy minimisation
     LOOP+:  cpu time  741.5809: real time  744.3671
    4ORBIT:  cpu time    0.0000: real time    0.0000

 total amount of memory used by VASP MPI-rank0   233093. kBytes
=======================================================================

   base      :      30000. kBytes
   nonlr-proj:      33408. kBytes
   fftplans  :      16137. kBytes
   grid      :      49182. kBytes
   one-center:        653. kBytes
   wavefun   :     103713. kBytes
 
  
  
 General timing and accounting informations for this job:
 ========================================================
  
                  Total CPU time used (sec):    13192.653
                            User time (sec):    12852.810
                          System time (sec):      339.844
                         Elapsed time (sec):    13260.490
  
                   Maximum memory used (kb):      420996.
                   Average memory used (kb):           0.
  
                          Minor page faults:      3077907
                          Major page faults:          277
                 Voluntary context switches:        10561
