 vasp.5.4.4.18Apr17-6-g9f103f2a35 (build Oct 25 2019 11:13:22) complex          
  
 executed on             LinuxIFC date 2021.10.13  21:42:56
 running on   48 total cores
 distrk:  each k-point on   48 cores,    1 groups
 distr:  one band on NCORES_PER_BAND=   4 cores,   12 groups


--------------------------------------------------------------------------------------------------------


 INCAR:
 POTCAR:    PAW_PBE Pt 04Feb2005                  
 POTCAR:    PAW_PBE Fe 06Sep2000                  
 POTCAR:    PAW_PBE Co 02Aug2007                  
 POTCAR:    PAW_PBE Cu 22Jun2005                  
 POTCAR:    PAW_PBE Ni 02Aug2007                  
 POTCAR:    PAW_PBE H 15Jun2001                   
 POTCAR:    PAW_PBE Pt 04Feb2005                  
   VRHFIN =Pt: s1d9                                                             
   LEXCH  = PE                                                                  
   EATOM  =   729.1176 eV,   53.5886 Ry                                         
                                                                                
   TITEL  = PAW_PBE Pt 04Feb2005                                                
   LULTRA =        F    use ultrasoft PP ?                                      
   IUNSCR =        1    unscreen: 0-lin 1-nonlin 2-no                           
   RPACOR =    2.330    partial core radius                                     
   POMASS =  195.080; ZVAL   =   10.000    mass and valenz                      
   RCORE  =    2.600    outmost cutoff radius                                   
   RWIGS  =    2.750; RWIGS  =    1.455    wigner-seitz radius (au A)           
   ENMAX  =  230.283; ENMIN  =  172.712 eV                                      
   ICORE  =        3    local potential                                         
   LCOR   =        T    correct aug charges                                     
   LPAW   =        T    paw PP                                                  
   EAUG   =  358.966                                                            
   DEXC   =    0.000                                                            
   RMAX   =    2.658    core radius for proj-oper                               
   RAUG   =    1.300    factor for augmentation sphere                          
   RDEP   =    2.761    radius for radial grids                                 
   RDEPT  =    2.203    core radius for aug-charge                              
                                                                                
   Atomic configuration                                                         
   16 entries                                                                   
     n  l   j            E        occ.                                          
     1  0  0.50    -78401.1885   2.0000                                         
     2  0  0.50    -13770.7750   2.0000                                         
     2  1  1.50    -11931.0468   6.0000                                         
     3  0  0.50     -3234.7234   2.0000                                         
     3  1  1.50     -2699.2216   6.0000                                         
     3  2  2.50     -2119.5714  10.0000                                         
     4  0  0.50      -695.1528   2.0000                                         
     4  1  1.50      -519.6034   6.0000                                         
     4  2  2.50      -306.6786  10.0000                                         
     4  3  3.50       -70.1041  14.0000                                         
     5  0  0.50      -101.7747   2.0000                                         
     5  1  1.50       -55.9873   6.0000                                         
     5  2  2.50        -6.1423   9.0000                                         
     6  0  0.50        -5.6573   1.0000                                         
     6  1  1.50        -6.8029   0.0000                                         
     5  3  2.50        -1.3606   0.0000                                         
   Description                                                                  
     l       E           TYP  RCUT    TYP  RCUT                                 
     2     -6.1423404     23  2.500                                             
     2     -7.5029230     23  2.500                                             
     0     -5.6573207     23  2.500                                             
     0      0.7416693     23  2.500                                             
     1     -2.7211652     23  2.600                                             
     1     20.4087390     23  2.600                                             
     3     -1.3605826     23  2.500                                             
  local pseudopotential read in
  partial core-charges read in
  partial kinetic energy density read in
  atomic valenz-charges read in
  non local Contribution for L=           2  read in
    real space projection operators read in
  non local Contribution for L=           2  read in
    real space projection operators read in
  non local Contribution for L=           0  read in
    real space projection operators read in
  non local Contribution for L=           0  read in
    real space projection operators read in
  non local Contribution for L=           1  read in
    real space projection operators read in
  non local Contribution for L=           1  read in
    real space projection operators read in
    PAW grid and wavefunctions read in
 
   number of l-projection  operators is LMAX  =           6
   number of lm-projection operators is LMMAX =          18
 
 POTCAR:    PAW_PBE Fe 06Sep2000                  
   VRHFIN =Fe:  d7 s1                                                           
   LEXCH  = PE                                                                  
   EATOM  =   594.3153 eV,   43.6809 Ry                                         
                                                                                
   TITEL  = PAW_PBE Fe 06Sep2000                                                
   LULTRA =        F    use ultrasoft PP ?                                      
   IUNSCR =        1    unscreen: 0-lin 1-nonlin 2-no                           
   RPACOR =    2.000    partial core radius                                     
   POMASS =   55.847; ZVAL   =    8.000    mass and valenz                      
   RCORE  =    2.300    outmost cutoff radius                                   
   RWIGS  =    2.460; RWIGS  =    1.302    wigner-seitz radius (au A)           
   ENMAX  =  267.882; ENMIN  =  200.911 eV                                      
   RCLOC  =    1.701    cutoff for local pot                                    
   LCOR   =        T    correct aug charges                                     
   LPAW   =        T    paw PP                                                  
   EAUG   =  511.368                                                            
   DEXC   =    0.000                                                            
   RMAX   =    2.356    core radius for proj-oper                               
   RAUG   =    1.300    factor for augmentation sphere                          
   RDEP   =    2.442    radius for radial grids                                 
   RDEPT  =    1.890    core radius for aug-charge                              
                                                                                
   Atomic configuration                                                         
    9 entries                                                                   
     n  l   j            E        occ.                                          
     1  0  0.50     -6993.8440   2.0000                                         
     2  0  0.50      -814.6047   2.0000                                         
     2  1  1.50      -693.3689   6.0000                                         
     3  0  0.50       -89.4732   2.0000                                         
     3  1  1.50       -55.6373   6.0000                                         
     3  2  2.50        -3.8151   7.0000                                         
     4  0  0.50        -4.2551   1.0000                                         
     4  1  1.50        -3.4015   0.0000                                         
     4  3  2.50        -1.3606   0.0000                                         
   Description                                                                  
     l       E           TYP  RCUT    TYP  RCUT                                 
     2     -3.8151135     23  2.300                                             
     2     -5.1756961     23  2.300                                             
     0     -4.2550963     23  2.300                                             
     0      7.2035603     23  2.300                                             
     1     -2.7211652     23  2.300                                             
     1     18.4316424     23  2.300                                             
  local pseudopotential read in
  partial core-charges read in
  partial kinetic energy density read in
  atomic valenz-charges read in
  non local Contribution for L=           2  read in
    real space projection operators read in
  non local Contribution for L=           2  read in
    real space projection operators read in
  non local Contribution for L=           0  read in
    real space projection operators read in
  non local Contribution for L=           0  read in
    real space projection operators read in
  non local Contribution for L=           1  read in
    real space projection operators read in
  non local Contribution for L=           1  read in
    real space projection operators read in
    PAW grid and wavefunctions read in
 
   number of l-projection  operators is LMAX  =           6
   number of lm-projection operators is LMMAX =          18
 
 POTCAR:    PAW_PBE Co 02Aug2007                  
   VRHFIN =Co: d8 s1                                                            
   LEXCH  = PE                                                                  
   EATOM  =   813.3670 eV,   59.7808 Ry                                         
                                                                                
   TITEL  = PAW_PBE Co 02Aug2007                                                
   LULTRA =        F    use ultrasoft PP ?                                      
   IUNSCR =        1    unscreen: 0-lin 1-nonlin 2-no                           
   RPACOR =    2.000    partial core radius                                     
   POMASS =   58.933; ZVAL   =    9.000    mass and valenz                      
   RCORE  =    2.300    outmost cutoff radius                                   
   RWIGS  =    2.460; RWIGS  =    1.302    wigner-seitz radius (au A)           
   ENMAX  =  267.968; ENMIN  =  200.976 eV                                      
   RCLOC  =    1.203    cutoff for local pot                                    
   LCOR   =        T    correct aug charges                                     
   LPAW   =        T    paw PP                                                  
   EAUG   =  477.818                                                            
   DEXC   =    0.000                                                            
   RMAX   =    2.360    core radius for proj-oper                               
   RAUG   =    1.300    factor for augmentation sphere                          
   RDEP   =    2.393    radius for radial grids                                 
   RDEPT  =    1.864    core radius for aug-charge                              
                                                                                
   Atomic configuration                                                         
    9 entries                                                                   
     n  l   j            E        occ.                                          
     1  0  0.50     -7587.6674   2.0000                                         
     2  0  0.50      -893.6084   2.0000                                         
     2  1  1.50      -764.5805   6.0000                                         
     3  0  0.50       -97.5973   2.0000                                         
     3  1  1.50       -60.9648   6.0000                                         
     3  2  2.50        -4.2382   8.0000                                         
     4  0  0.50        -4.3746   1.0000                                         
     4  1  1.50        -4.0817   0.0000                                         
     4  3  2.50        -1.3606   0.0000                                         
   Description                                                                  
     l       E           TYP  RCUT    TYP  RCUT                                 
     2     -4.2382362     23  2.300                                             
     2     -5.5988188     23  2.300                                             
     0     -4.3745797     23  2.300                                             
     0      5.7660125     23  2.300                                             
     1     -2.7211652     23  2.300                                             
     1     16.9860234     23  2.300                                             
  local pseudopotential read in
  partial core-charges read in
  partial kinetic energy density read in
  atomic valenz-charges read in
  non local Contribution for L=           2  read in
    real space projection operators read in
  non local Contribution for L=           2  read in
    real space projection operators read in
  non local Contribution for L=           0  read in
    real space projection operators read in
  non local Contribution for L=           0  read in
    real space projection operators read in
  non local Contribution for L=           1  read in
    real space projection operators read in
  non local Contribution for L=           1  read in
    real space projection operators read in
    PAW grid and wavefunctions read in
 
   number of l-projection  operators is LMAX  =           6
   number of lm-projection operators is LMMAX =          18
 
 POTCAR:    PAW_PBE Cu 22Jun2005                  
   VRHFIN =Cu: d10 p1                                                           
   LEXCH  = PE                                                                  
   EATOM  =  1390.9808 eV,  102.2342 Ry                                         
                                                                                
   TITEL  = PAW_PBE Cu 22Jun2005                                                
   LULTRA =        F    use ultrasoft PP ?                                      
   IUNSCR =        1    unscreen: 0-lin 1-nonlin 2-no                           
   RPACOR =    2.000    partial core radius                                     
   POMASS =   63.546; ZVAL   =   11.000    mass and valenz                      
   RCORE  =    2.300    outmost cutoff radius                                   
   RWIGS  =    2.200; RWIGS  =    1.164    wigner-seitz radius (au A)           
   ENMAX  =  295.446; ENMIN  =  221.585 eV                                      
   ICORE  =        3    local potential                                         
   LCOR   =        T    correct aug charges                                     
   LPAW   =        T    paw PP                                                  
   EAUG   =  586.980                                                            
   DEXC   =    0.000                                                            
   RMAX   =    2.344    core radius for proj-oper                               
   RAUG   =    1.300    factor for augmentation sphere                          
   RDEP   =    2.302    radius for radial grids                                 
   RDEPT  =    1.771    core radius for aug-charge                              
                                                                                
   Atomic configuration                                                         
    9 entries                                                                   
     n  l   j            E        occ.                                          
     1  0  0.50     -8850.2468   2.0000                                         
     2  0  0.50     -1062.3498   2.0000                                         
     2  1  1.50      -916.8226   6.0000                                         
     3  0  0.50      -114.6929   2.0000                                         
     3  1  1.50       -72.1325   6.0000                                         
     3  2  2.50        -5.0394  10.0000                                         
     4  0  0.50        -4.6097   1.0000                                         
     4  1  0.50        -4.0817   0.0000                                         
     4  3  2.50        -1.3606   0.0000                                         
   Description                                                                  
     l       E           TYP  RCUT    TYP  RCUT                                 
     2     -5.0393973     23  2.200                                             
     2     10.8846608     23  2.200                                             
     0     -4.6097109     23  2.200                                             
     0      8.2520465     23  2.200                                             
     1     -2.7211652     23  2.200                                             
     1     21.7055443     23  2.200                                             
     3      2.7211652     23  2.300                                             
  local pseudopotential read in
  partial core-charges read in
  partial kinetic energy density read in
  atomic valenz-charges read in
  non local Contribution for L=           2  read in
    real space projection operators read in
  non local Contribution for L=           2  read in
    real space projection operators read in
  non local Contribution for L=           0  read in
    real space projection operators read in
  non local Contribution for L=           0  read in
    real space projection operators read in
  non local Contribution for L=           1  read in
    real space projection operators read in
  non local Contribution for L=           1  read in
    real space projection operators read in
    PAW grid and wavefunctions read in
 
   number of l-projection  operators is LMAX  =           6
   number of lm-projection operators is LMMAX =          18
 
 POTCAR:    PAW_PBE Ni 02Aug2007                  
   VRHFIN =Ni:                                                                  
   LEXCH  = PE                                                                  
   EATOM  =  1077.6739 eV,   79.2068 Ry                                         
                                                                                
   TITEL  = PAW_PBE Ni 02Aug2007                                                
   LULTRA =        F    use ultrasoft PP ?                                      
   IUNSCR =        1    unscreen: 0-lin 1-nonlin 2-no                           
   RPACOR =    2.000    partial core radius                                     
   POMASS =   58.690; ZVAL   =   10.000    mass and valenz                      
   RCORE  =    2.300    outmost cutoff radius                                   
   RWIGS  =    2.430; RWIGS  =    1.286    wigner-seitz radius (au A)           
   ENMAX  =  269.532; ENMIN  =  202.149 eV                                      
   RCLOC  =    1.201    cutoff for local pot                                    
   LCOR   =        T    correct aug charges                                     
   LPAW   =        T    paw PP                                                  
   EAUG   =  544.565                                                            
   DEXC   =    0.000                                                            
   RMAX   =    2.357    core radius for proj-oper                               
   RAUG   =    1.300    factor for augmentation sphere                          
   RDEP   =    2.390    radius for radial grids                                 
   RDEPT  =    1.838    core radius for aug-charge                              
                                                                                
   Atomic configuration                                                         
    9 entries                                                                   
     n  l   j            E        occ.                                          
     1  0  0.50     -8206.4253   2.0000                                         
     2  0  0.50      -976.1748   2.0000                                         
     2  1  1.50      -839.0571   6.0000                                         
     3  0  0.50      -105.9991   2.0000                                         
     3  1  1.50       -66.4603   6.0000                                         
     3  2  2.50        -4.6458   9.0000                                         
     4  0  0.50        -4.4926   1.0000                                         
     4  1  1.50        -4.0817   0.0000                                         
     4  3  2.50        -1.3606   0.0000                                         
   Description                                                                  
     l       E           TYP  RCUT    TYP  RCUT                                 
     2     -4.6457903     23  2.300                                             
     2     -6.0063729     23  2.300                                             
     0     -4.4925590     23  2.300                                             
     0      5.0102601     23  2.300                                             
     1     -2.7211652     23  2.300                                             
     1     16.5183231     23  2.300                                             
  local pseudopotential read in
  partial core-charges read in
  partial kinetic energy density read in
  atomic valenz-charges read in
  non local Contribution for L=           2  read in
    real space projection operators read in
  non local Contribution for L=           2  read in
    real space projection operators read in
  non local Contribution for L=           0  read in
    real space projection operators read in
  non local Contribution for L=           0  read in
    real space projection operators read in
  non local Contribution for L=           1  read in
    real space projection operators read in
  non local Contribution for L=           1  read in
    real space projection operators read in
    PAW grid and wavefunctions read in
 
   number of l-projection  operators is LMAX  =           6
   number of lm-projection operators is LMMAX =          18
 
 POTCAR:    PAW_PBE H 15Jun2001                   
   VRHFIN =H: ultrasoft test                                                    
   LEXCH  = PE                                                                  
   EATOM  =    12.4884 eV,    0.9179 Ry                                         
                                                                                
   TITEL  = PAW_PBE H 15Jun2001                                                 
   LULTRA =        F    use ultrasoft PP ?                                      
   IUNSCR =        0    unscreen: 0-lin 1-nonlin 2-no                           
   RPACOR =    0.000    partial core radius                                     
   POMASS =    1.000; ZVAL   =    1.000    mass and valenz                      
   RCORE  =    1.100    outmost cutoff radius                                   
   RWIGS  =    0.700; RWIGS  =    0.370    wigner-seitz radius (au A)           
   ENMAX  =  250.000; ENMIN  =  200.000 eV                                      
   RCLOC  =    0.701    cutoff for local pot                                    
   LCOR   =        T    correct aug charges                                     
   LPAW   =        T    paw PP                                                  
   EAUG   =  400.000                                                            
   RMAX   =    1.123    core radius for proj-oper                               
   RAUG   =    1.200    factor for augmentation sphere                          
   RDEP   =    1.112    radius for radial grids                                 
   RDEPT  =    0.926    core radius for aug-charge                              
                                                                                
   Atomic configuration                                                         
    2 entries                                                                   
     n  l   j            E        occ.                                          
     1  0  0.50        -6.4927   1.0000                                         
     2  1  0.50        -3.4015   0.0000                                         
   Description                                                                  
     l       E           TYP  RCUT    TYP  RCUT                                 
     0     -6.4927494     23  1.100                                             
     0      6.8029130     23  1.100                                             
     1     -4.0817478     23  1.100                                             
  local pseudopotential read in
  atomic valenz-charges read in
  non local Contribution for L=           0  read in
    real space projection operators read in
  non local Contribution for L=           0  read in
    real space projection operators read in
  non local Contribution for L=           1  read in
    real space projection operators read in
    PAW grid and wavefunctions read in
 
   number of l-projection  operators is LMAX  =           3
   number of lm-projection operators is LMMAX =           5
 
 Optimization of the real space projectors (new method)

 maximal supplied QI-value         = 14.36
 optimisation between [QCUT,QGAM] = [ 11.92, 23.98] = [ 39.79,161.09] Ry 
 Optimized for a Real-space Cutoff    1.49 Angstroem

   l    n(q)    QCUT    max X(q) W(low)/X(q) W(high)/X(q)  e(spline) 
   2     10    11.920    66.195    0.79E-04    0.18E-03    0.24E-06
   2     10    11.920    64.643    0.81E-04    0.19E-03    0.24E-06
   0     11    11.920    95.520    0.28E-04    0.54E-04    0.18E-06
   0     11    11.920    63.403    0.27E-04    0.52E-04    0.17E-06
   1     10    11.920    19.961    0.18E-04    0.11E-03    0.23E-06
   1     10    11.920    13.289    0.25E-04    0.87E-04    0.19E-06
 Optimization of the real space projectors (new method)

 maximal supplied QI-value         = 16.25
 optimisation between [QCUT,QGAM] = [ 11.86, 23.89] = [ 39.41,159.82] Ry 
 Optimized for a Real-space Cutoff    1.49 Angstroem

   l    n(q)    QCUT    max X(q) W(low)/X(q) W(high)/X(q)  e(spline) 
   2     10    11.864    80.901    0.13E-03    0.23E-03    0.37E-06
   2     10    11.864    75.754    0.13E-03    0.23E-03    0.38E-06
   0     11    11.864    58.752    0.44E-04    0.11E-04    0.20E-06
   0     11    11.864    30.679    0.36E-04    0.10E-04    0.18E-06
   1     10    11.864    17.977    0.31E-04    0.45E-04    0.10E-06
   1     10    11.864    13.559    0.25E-04    0.37E-04    0.89E-07
 Optimization of the real space projectors (new method)

 maximal supplied QI-value         = 16.25
 optimisation between [QCUT,QGAM] = [ 11.86, 23.89] = [ 39.41,159.82] Ry 
 Optimized for a Real-space Cutoff    1.33 Angstroem

   l    n(q)    QCUT    max X(q) W(low)/X(q) W(high)/X(q)  e(spline) 
   2      9    11.864    65.824    0.22E-03    0.53E-03    0.26E-06
   2      9    11.864    61.429    0.22E-03    0.53E-03    0.26E-06
   0      9    11.864    56.174    0.21E-03    0.32E-04    0.15E-06
   0      9    11.864    31.263    0.19E-03    0.30E-04    0.14E-06
   1      9    11.864    19.828    0.63E-04    0.30E-03    0.16E-06
   1      9    11.864    15.139    0.49E-04    0.25E-03    0.13E-06
 Optimization of the real space projectors (new method)

 maximal supplied QI-value         = 16.25
 optimisation between [QCUT,QGAM] = [ 11.86, 23.89] = [ 39.41,159.82] Ry 
 Optimized for a Real-space Cutoff    1.49 Angstroem

   l    n(q)    QCUT    max X(q) W(low)/X(q) W(high)/X(q)  e(spline) 
   2     10    11.864     4.610    0.10E-03    0.20E-03    0.29E-06
   2     10    11.864     8.522    0.17E-03    0.33E-03    0.50E-06
   0     11    11.864    51.609    0.52E-04    0.55E-04    0.33E-06
   0     11    11.864    27.747    0.46E-04    0.52E-04    0.31E-06
   1     10    11.864    20.408    0.54E-04    0.25E-04    0.21E-06
   1     10    11.864    13.425    0.48E-04    0.22E-04    0.18E-06
 Optimization of the real space projectors (new method)

 maximal supplied QI-value         = 16.25
 optimisation between [QCUT,QGAM] = [ 11.86, 23.89] = [ 39.41,159.82] Ry 
 Optimized for a Real-space Cutoff    1.33 Angstroem

   l    n(q)    QCUT    max X(q) W(low)/X(q) W(high)/X(q)  e(spline) 
   2      9    11.864    60.317    0.21E-03    0.51E-03    0.25E-06
   2      9    11.864    55.921    0.21E-03    0.51E-03    0.26E-06
   0      9    11.864    51.690    0.22E-03    0.30E-04    0.17E-06
   0      9    11.864    30.015    0.20E-03    0.28E-04    0.15E-06
   1      9    11.864    18.849    0.76E-04    0.33E-03    0.17E-06
   1      9    11.864    14.624    0.60E-04    0.28E-03    0.15E-06
 Optimization of the real space projectors (new method)

 maximal supplied QI-value         = 34.20
 optimisation between [QCUT,QGAM] = [ 11.97, 23.94] = [ 40.13,160.53] Ry 
 Optimized for a Real-space Cutoff    1.18 Angstroem

   l    n(q)    QCUT    max X(q) W(low)/X(q) W(high)/X(q)  e(spline) 
   0      8    11.971    19.460    0.15E-03    0.31E-03    0.25E-06
   0      8    11.971    12.209    0.13E-03    0.29E-03    0.25E-06
   1      8    11.971     4.655    0.22E-03    0.24E-03    0.21E-06
  PAW_PBE Pt 04Feb2005                  :
 energy of atom  1       EATOM= -729.1176
 kinetic energy error for atom=    0.0021 (will be added to EATOM!!)
  PAW_PBE Fe 06Sep2000                  :
 energy of atom  2       EATOM= -594.3153
 kinetic energy error for atom=    0.0024 (will be added to EATOM!!)
  PAW_PBE Co 02Aug2007                  :
 energy of atom  3       EATOM= -813.3670
 kinetic energy error for atom=    0.0026 (will be added to EATOM!!)
  PAW_PBE Cu 22Jun2005                  :
 energy of atom  4       EATOM=-1390.9808
 kinetic energy error for atom=    0.0036 (will be added to EATOM!!)
  PAW_PBE Ni 02Aug2007                  :
 energy of atom  5       EATOM=-1077.6739
 kinetic energy error for atom=    0.0027 (will be added to EATOM!!)
  PAW_PBE H 15Jun2001                   :
 energy of atom  6       EATOM=  -12.4884
 kinetic energy error for atom=    0.0008 (will be added to EATOM!!)
 
 
 POSCAR: 10.66                                   
  positions in direct lattice
  velocities in cartesian coordinates
 exchange correlation table for  LEXCH =        8
   RHO(1)=    0.500       N(1)  =     2000
   RHO(2)=  100.500       N(2)  =     4000
 


--------------------------------------------------------------------------------------------------------


 ion  position               nearest neighbor table
   1  0.787  0.879  0.317-  49 2.62  28 2.62  59 2.64  19 2.66  33 2.68  61 2.68  29 2.70  60 2.70
                             2 2.74  11 2.76   4 2.84  12 2.84
   2  0.042  0.882  0.316-  79 2.56  77 2.60  60 2.65  30 2.66  28 2.67  52 2.69  33 2.69  22 2.71
                             1 2.74   6 2.79   4 2.87  16 2.94
   3  0.279  0.381  0.319-  64 2.57  39 2.59  33 2.61  31 2.63  68 2.71  19 2.73  43 2.73  30 2.73
                             5 2.77  13 2.79  25 2.84  18 2.84
   4  0.870  0.964  0.425-  17 2.63  11 2.64   9 2.67  12 2.70   6 2.72  16 2.74  60 2.83   1 2.84
                             2 2.87
   5  0.121  0.462  0.426-  16 2.63  12 2.64  10 2.65   7 2.65  13 2.70  25 2.70  39 2.71  33 2.72
                             3 2.77
   6  0.125  0.964  0.422-   8 2.63  10 2.65   9 2.68  14 2.69   4 2.72  16 2.74   2 2.79  52 2.80
                            22 2.86
   7  0.874  0.460  0.425-   9 2.64  15 2.64   5 2.65  10 2.66  12 2.66  39 2.69  27 2.69  75 2.75
                            29 2.79
   8  0.374  0.960  0.419-  43 2.60   6 2.63  14 2.64  27 2.65  13 2.66  11 2.67  10 2.67  52 2.68
                            61 2.71
   9  0.872  0.213  0.419-  15 2.64   7 2.64  17 2.66  75 2.66   4 2.67   6 2.68  10 2.69  60 2.71
                            22 2.80
  10  0.125  0.212  0.421-  13 2.64   5 2.65   6 2.65   7 2.66  39 2.66   8 2.67   9 2.69  43 2.72
                            22 2.77
  11  0.624  0.961  0.422-   4 2.64  13 2.66  27 2.66  12 2.66   8 2.67  17 2.67   1 2.76  19 2.81
                            61 2.82
  12  0.873  0.710  0.424-   5 2.64   7 2.66  27 2.66  11 2.66  33 2.69  16 2.69   4 2.70  29 2.78
                             1 2.84
  13  0.374  0.209  0.423-  10 2.64  11 2.66   8 2.66  17 2.67  25 2.69   5 2.70  43 2.75   3 2.79
                            19 2.81
  14  0.377  0.712  0.422-  81 1.82  27 2.61   8 2.64  15 2.65  44 2.67  25 2.68   6 2.69  16 2.70
                            52 2.73  30 2.75
  15  0.626  0.462  0.421-  81 1.87   9 2.64   7 2.64  27 2.65  14 2.65  25 2.68  17 2.68  44 2.69
                            75 2.71  18 2.76
  16  0.127  0.707  0.427-  25 2.63   5 2.63  12 2.69  14 2.70  33 2.71   4 2.74   6 2.74  30 2.84
                             2 2.94
  17  0.624  0.211  0.421-   4 2.63   9 2.66  25 2.66  11 2.67  13 2.67  15 2.68  18 2.75  60 2.77
                            19 2.85
  18  0.548  0.376  0.316-  67 2.56  60 2.62  75 2.63  68 2.65  26 2.66  44 2.66  30 2.74  17 2.75
                            19 2.75  15 2.76   3 2.84  25 2.86
  19  0.534  0.125  0.314-  80 2.55  68 2.57  43 2.58  59 2.60   1 2.66  61 2.66   3 2.73  18 2.75
                            60 2.78  13 2.81  11 2.81  17 2.85
  20  0.549  0.122  0.042-  37 2.55  57 2.55  48 2.57  62 2.66  63 2.70  34 2.71  45 2.73  47 2.74
                            56 2.74
  21  0.120  0.460  0.128-  40 2.52  36 2.53  47 2.53  42 2.60  64 2.62  69 2.62  70 2.66  50 2.67
                            31 2.71  58 2.71  57 2.74  74 2.75
  22  0.044  0.136  0.314-  65 2.52  55 2.54  77 2.57  43 2.60  39 2.61  75 2.64   2 2.71  60 2.71
                            52 2.75  10 2.77   9 2.80   6 2.86  31 3.41
  23  0.042  0.131  0.034-  70 2.57  40 2.60  41 2.61  45 2.64  62 2.65  76 2.65  24 2.69  35 2.76
                            53 2.81
  24  0.131  0.958  0.132-  79 2.52  77 2.55  35 2.57  53 2.58  55 2.59  70 2.64  38 2.66  58 2.66
                            73 2.67  23 2.69  66 2.73  41 2.75
  25  0.375  0.461  0.424-  16 2.63  17 2.66  15 2.68  14 2.68  13 2.69   5 2.70  30 2.82   3 2.84
                            18 2.86
  26  0.455  0.546  0.219-  73 2.50  74 2.54  51 2.55  79 2.63  64 2.65  30 2.66  18 2.66  68 2.69
                            78 2.69  32 2.70  44 2.74  67 2.75
  27  0.622  0.712  0.423-  81 1.82  14 2.61   8 2.65  15 2.65  11 2.66  12 2.66   7 2.69  44 2.70
                            61 2.77  29 2.78
  28  0.956  0.789  0.221-  58 2.56  66 2.58  50 2.58  42 2.61   1 2.62  49 2.64  64 2.66   2 2.67
                            33 2.70  59 2.74  79 2.80  77 2.81
  29  0.794  0.623  0.319-  42 2.56  39 2.56  75 2.60  32 2.62  44 2.67  33 2.67  49 2.68  61 2.70
                             1 2.70  12 2.78  27 2.78   7 2.79
  30  0.290  0.631  0.318-  79 2.56  64 2.61  52 2.63  26 2.66  44 2.66   2 2.66  33 2.67   3 2.73
                            18 2.74  14 2.75  25 2.82  16 2.84
  31  0.202  0.280  0.225-  70 2.51  55 2.58  43 2.58  65 2.59  57 2.60   3 2.63  39 2.66  21 2.71
                            80 2.72  42 2.74  68 2.79  64 2.83  22 3.41
  32  0.706  0.550  0.221-  54 2.53  69 2.56  51 2.58  49 2.60  29 2.62  42 2.62  78 2.64  65 2.65
                            75 2.68  44 2.69  26 2.70  67 2.72
  33  0.040  0.632  0.325-   3 2.61  30 2.67  39 2.67  29 2.67   1 2.68  12 2.69   2 2.69  28 2.70
                            64 2.70  16 2.71   5 2.72  42 2.73
  34  0.796  0.862  0.044-  50 2.39  66 2.51  48 2.52  36 2.55  71 2.58  63 2.62  20 2.71  62 2.79
                            35 2.80
  35  0.057  0.865  0.039-  58 2.54  72 2.55  36 2.56  24 2.57  66 2.62  53 2.68  23 2.76  62 2.76
                            34 2.80
  36  0.044  0.632  0.039-  21 2.53  34 2.55  35 2.56  58 2.58  50 2.59  47 2.67  72 2.69  71 2.74
                            40 2.76
  37  0.628  0.224  0.129-  51 2.51  67 2.52  56 2.52  74 2.53  20 2.55  68 2.56  59 2.56  41 2.57
                            62 2.59  66 2.69  57 2.76  48 2.95
  38  0.383  0.954  0.131-  53 2.46  45 2.47  80 2.47  78 2.53  73 2.56  63 2.56  48 2.56  54 2.58
                            55 2.58  57 2.65  24 2.66  70 2.70
  39  0.035  0.384  0.324-  29 2.56   3 2.59  75 2.60  22 2.61  42 2.65  10 2.66  31 2.66  33 2.67
                             7 2.69   5 2.71  65 2.74  43 2.82
  40  0.028  0.381  0.039-  69 2.42  21 2.52  71 2.54  76 2.54  70 2.56  23 2.60  36 2.76  45 2.84
                            47 2.85
  41  0.872  0.215  0.129-  76 2.45  65 2.52  77 2.53  67 2.53  37 2.57  62 2.57  69 2.59  23 2.61
                            51 2.61  70 2.68  66 2.68  24 2.75
  42  0.955  0.545  0.224-  50 2.55  29 2.56  69 2.60  21 2.60  28 2.61  32 2.62  49 2.65  39 2.65
                            65 2.65  64 2.69  33 2.73  31 2.74
  43  0.296  0.116  0.320-  55 2.52  52 2.57  31 2.58  19 2.58  61 2.59   8 2.60  22 2.60  80 2.64
                            10 2.72   3 2.73  13 2.75  39 2.82
  44  0.541  0.629  0.321-  61 2.59  52 2.60  78 2.63  30 2.66  18 2.66  14 2.67  29 2.67  75 2.68
                            15 2.69  32 2.69  27 2.70  26 2.74
  45  0.296  0.116  0.041-  38 2.47  70 2.49  57 2.57  53 2.58  23 2.64  63 2.65  20 2.73  47 2.83
                            40 2.84
  46  0.549  0.625  0.045-  51 2.38  73 2.39  54 2.41  71 2.57  53 2.59  63 2.60  76 2.62  56 2.63
                            72 2.66
  47  0.294  0.382  0.040-  74 2.41  21 2.53  57 2.64  72 2.65  56 2.66  36 2.67  20 2.74  45 2.83
                            40 2.85
  48  0.626  0.948  0.133-  49 2.39  54 2.48  80 2.49  34 2.52  59 2.56  63 2.56  38 2.56  20 2.57
                            50 2.58  57 2.68  66 2.72  37 2.95
  49  0.707  0.793  0.220-  48 2.39  50 2.47  54 2.48  80 2.57  32 2.60   1 2.62  61 2.63  28 2.64
                            78 2.64  42 2.65  29 2.68  59 2.73
  50  0.865  0.704  0.130-  34 2.39  71 2.42  49 2.47  54 2.49  42 2.55  48 2.58  28 2.58  69 2.58
                            36 2.59  21 2.67  66 2.81  58 2.90
  51  0.627  0.460  0.128-  46 2.38  76 2.44  56 2.51  37 2.51  26 2.55  32 2.58  41 2.61  67 2.62
                            73 2.63  69 2.64  74 2.65  54 2.72
  52  0.298  0.874  0.318-  55 2.44  79 2.52  78 2.52  61 2.56  43 2.57  44 2.60  30 2.63   8 2.68
                             2 2.69  14 2.73  22 2.75   6 2.80
  53  0.307  0.869  0.042-  73 2.42  38 2.46  63 2.57  24 2.58  45 2.58  46 2.59  72 2.61  35 2.68
                            23 2.81
  54  0.627  0.715  0.129-  46 2.41  71 2.46  63 2.48  48 2.48  49 2.48  50 2.49  32 2.53  38 2.58
                            73 2.58  78 2.62  69 2.70  51 2.72
  55  0.225  0.027  0.228-  52 2.44  78 2.48  79 2.51  43 2.52  80 2.54  22 2.54  31 2.58  38 2.58
                            24 2.59  70 2.72  77 2.75  65 2.90
  56  0.544  0.381  0.036-  74 2.50  51 2.51  37 2.52  76 2.61  46 2.63  72 2.64  47 2.66  62 2.72
                            20 2.74
  57  0.379  0.204  0.133-  68 2.46  80 2.54  20 2.55  45 2.57  31 2.60  47 2.64  38 2.65  74 2.66
                            70 2.66  48 2.68  21 2.74  37 2.76
  58  0.137  0.705  0.133-  72 2.46  64 2.50  35 2.54  28 2.56  79 2.57  36 2.58  74 2.66  24 2.66
                            73 2.70  21 2.71  50 2.90
  59  0.705  0.051  0.220-  66 2.52  48 2.56  37 2.56  19 2.60  68 2.61  67 2.61  60 2.62   1 2.64
                            77 2.69  80 2.71  49 2.73  28 2.74
  60  0.793  0.129  0.317-  67 2.53  77 2.57  59 2.62  18 2.62   2 2.65  75 2.67   1 2.70   9 2.71
                            22 2.71  17 2.77  19 2.78   4 2.83
  61  0.539  0.873  0.317-  78 2.49  80 2.52  52 2.56  43 2.59  44 2.59  49 2.63  19 2.66   1 2.68
                            29 2.70   8 2.71  27 2.77  11 2.82
  62  0.797  0.123  0.036-  66 2.53  41 2.57  37 2.59  23 2.65  20 2.66  76 2.68  56 2.72  35 2.76
                            34 2.79
  63  0.546  0.870  0.037-  54 2.48  38 2.56  48 2.56  53 2.57  46 2.60  34 2.62  71 2.63  45 2.65
                            20 2.70
  64  0.208  0.542  0.224-  58 2.50   3 2.57  30 2.61  21 2.62  26 2.65  28 2.66  68 2.66  74 2.67
                            42 2.69  33 2.70  79 2.76  31 2.83
  65  0.951  0.297  0.222-  69 2.52  22 2.52  41 2.52  67 2.55  77 2.58  31 2.59  75 2.61  70 2.61
                            32 2.65  42 2.65  39 2.74  55 2.90
  66  0.872  0.964  0.130-  34 2.51  59 2.52  62 2.53  77 2.58  28 2.58  35 2.62  41 2.68  37 2.69
                            48 2.72  24 2.73  50 2.81
  67  0.715  0.290  0.224-  37 2.52  60 2.53  41 2.53  77 2.54  65 2.55  18 2.56  59 2.61  51 2.62
                            75 2.63  32 2.72  68 2.74  26 2.75
  68  0.457  0.292  0.221-  57 2.46  74 2.54  37 2.56  19 2.57  59 2.61  18 2.65  64 2.66  26 2.69
                             3 2.71  67 2.74  80 2.78  31 2.79
  69  0.875  0.457  0.129-  40 2.42  71 2.45  76 2.46  65 2.52  32 2.56  50 2.58  41 2.59  42 2.60
                            21 2.62  51 2.64  70 2.68  54 2.70
  70  0.128  0.206  0.129-  45 2.49  31 2.51  40 2.56  23 2.57  65 2.61  24 2.64  21 2.66  57 2.66
                            41 2.68  69 2.68  38 2.70  55 2.72
  71  0.792  0.622  0.041-  50 2.42  69 2.45  54 2.46  40 2.54  46 2.57  34 2.58  76 2.61  63 2.63
                            36 2.74
  72  0.298  0.629  0.044-  74 2.46  58 2.46  73 2.47  35 2.55  53 2.61  56 2.64  47 2.65  46 2.66
                            36 2.69
  73  0.386  0.713  0.130-  46 2.39  53 2.42  72 2.47  26 2.50  78 2.54  38 2.56  54 2.58  79 2.63
                            51 2.63  24 2.67  58 2.70  74 2.80
  74  0.382  0.451  0.127-  47 2.41  72 2.46  56 2.50  37 2.53  68 2.54  26 2.54  51 2.65  57 2.66
                            58 2.66  64 2.67  21 2.75  73 2.80
  75  0.793  0.380  0.320-  29 2.60  39 2.60  65 2.61  67 2.63  18 2.63  22 2.64   9 2.66  60 2.67
                            44 2.68  32 2.68  15 2.71   7 2.75
  76  0.791  0.377  0.041-  51 2.44  41 2.45  69 2.46  40 2.54  56 2.61  71 2.61  46 2.62  23 2.65
                            62 2.68
  77  0.956  0.053  0.222-  41 2.53  67 2.54  24 2.55  22 2.57  60 2.57  66 2.58  65 2.58   2 2.60
                            59 2.69  79 2.74  55 2.75  28 2.81
  78  0.458  0.796  0.225-  55 2.48  61 2.49  80 2.50  52 2.52  38 2.53  73 2.54  79 2.59  54 2.62
                            44 2.63  49 2.64  32 2.64  26 2.69
  79  0.215  0.798  0.225-  55 2.51  24 2.52  52 2.52   2 2.56  30 2.56  58 2.57  78 2.59  73 2.63
                            26 2.63  77 2.74  64 2.76  28 2.80
  80  0.462  0.029  0.223-  38 2.47  48 2.49  78 2.50  61 2.52  55 2.54  57 2.54  19 2.55  49 2.57
                            43 2.64  59 2.71  31 2.72  68 2.78
  81  0.540  0.630  0.468-  27 1.82  14 1.82  15 1.87
 
  LATTYP: Found a hexagonal cell.
 ALAT       =    10.6599998474
 C/A-ratio  =     2.0637898982
  
  Lattice vectors:
  
 A1 = (   5.3299999237,  -9.2318306722,   0.0000000000)
 A2 = ( -10.6599998474,   0.0000000000,   0.0000000000)
 A3 = (   0.0000000000,   0.0000000000, -22.0000000000)


Analysis of symmetry for initial positions (statically):
=====================================================================
 Subroutine PRICEL returns:
 Original cell was already a primitive cell.
 

 Routine SETGRP: Setting up the symmetry group for a 
 hexagonal supercell.


 Subroutine GETGRP returns: Found  1 space group operations
 (whereof  1 operations were pure point group operations)
 out of a pool of 24 trial point group operations.


The static configuration has the point symmetry C_1 .


Analysis of symmetry for dynamics (positions and initial velocities):
=====================================================================
 Subroutine PRICEL returns:
 Original cell was already a primitive cell.
 

 Routine SETGRP: Setting up the symmetry group for a 
 hexagonal supercell.


 Subroutine GETGRP returns: Found  1 space group operations
 (whereof  1 operations were pure point group operations)
 out of a pool of 24 trial point group operations.


The dynamic configuration has the point symmetry C_1 .


Analysis of constrained symmetry for selective dynamics:
=====================================================================
 Subroutine PRICEL returns:
 Original cell was already a primitive cell.
 

 Routine SETGRP: Setting up the symmetry group for a 
 hexagonal supercell.


 Subroutine GETGRP returns: Found  1 space group operations
 (whereof  1 operations were pure point group operations)
 out of a pool of 24 trial point group operations.


The constrained configuration has the point symmetry C_1 .


Analysis of structural, dynamic, and magnetic symmetry:
=====================================================================
 Subroutine PRICEL returns:
 Original cell was already a primitive cell.
 

 Routine SETGRP: Setting up the symmetry group for a 
 hexagonal supercell.


 Subroutine GETGRP returns: Found  1 space group operations
 (whereof  1 operations were pure point group operations)
 out of a pool of 24 trial point group operations.


The magnetic configuration has the point symmetry C_1 .


 Subroutine INISYM returns: Found  1 space group operations
 (whereof  1 operations are pure point group operations),
 and found     1 'primitive' translations

 
 
 KPOINTS: mesh auto                               

Automatic generation of k-mesh.
Space group operators:
 irot       det(A)        alpha          n_x          n_y          n_z        tau_x        tau_y        tau_z
    1     1.000000     0.000000     1.000000     0.000000     0.000000     0.000000     0.000000     0.000000
 
 Subroutine IBZKPT returns following result:
 ===========================================
 
 Found      4 irreducible k-points:
 
 Following reciprocal coordinates:
            Coordinates               Weight
  0.000000  0.000000  0.000000      1.000000
  0.500000 -0.000000  0.000000      1.000000
  0.000000  0.500000  0.000000      1.000000
  0.500000  0.500000  0.000000      1.000000
 
 Following cartesian coordinates:
            Coordinates               Weight
  0.000000  0.000000  0.000000      1.000000
  0.046904 -0.027080  0.000000      1.000000
  0.000000  0.054160  0.000000      1.000000
  0.046904  0.027080  0.000000      1.000000
 


--------------------------------------------------------------------------------------------------------




 Dimension of arrays:
   k-points           NKPTS =      4   k-points in BZ     NKDIM =      4   number of bands    NBANDS=    588
   number of dos      NEDOS =    301   number of ions     NIONS =     81
   non local maximal  LDIM  =      6   non local SUM 2l+1 LMDIM =     18
   total plane-waves  NPLWV = ******
   max r-space proj   IRMAX =   7657   max aug-charges    IRDMAX=  33358
   dimension x,y,z NGX =    84 NGY =   84 NGZ =  168
   dimension x,y,z NGXF=   168 NGYF=  168 NGZF=  336
   support grid    NGXF=   168 NGYF=  168 NGZF=  336
   ions per type =              32  13  10  13  12   1
   NGX,Y,Z   is equivalent  to a cutoff of  13.10, 13.10, 12.70 a.u.
   NGXF,Y,Z  is equivalent  to a cutoff of  26.20, 26.20, 25.39 a.u.

 SYSTEM =  Pt111                                   
 POSCAR =  10.66                                   

 Startparameter for this run:
   NWRITE =      2    write-flag & timer
   PREC   = accura    normal or accurate (medium, high low for compatibility)
   ISTART =      0    job   : 0-new  1-cont  2-samecut
   ICHARG =      2    charge: 1-file 2-atom 10-const
   ISPIN  =      2    spin polarized calculation?
   LNONCOLLINEAR =      F non collinear calculations
   LSORBIT =      F    spin-orbit coupling
   INIWAV =      1    electr: 0-lowe 1-rand  2-diag
   LASPH  =      F    aspherical Exc in radial PAW
   METAGGA=      F    non-selfconsistent MetaGGA calc.

 Electronic Relaxation 1
   ENCUT  =  550.0 eV  40.42 Ry    6.36 a.u.  20.38 20.38 42.07*2*pi/ulx,y,z
   ENINI  =  550.0     initial cutoff
   ENAUG  =  587.0 eV  augmentation charge cutoff
   NELM   =    200;   NELMIN=  2; NELMDL= -5     # of ELM steps 
   EDIFF  = 0.1E-04   stopping-criterion for ELM
   LREAL  =      T    real-space projection
   NLSPLINE    = F    spline interpolate recip. space projectors
   LCOMPAT=      F    compatible to vasp.4.4
   GGA_COMPAT  = T    GGA compatible to vasp.4.4-vasp.4.6
   LMAXPAW     = -100 max onsite density
   LMAXMIX     =    2 max onsite mixed and CHGCAR
   VOSKOWN=      0    Vosko Wilk Nusair interpolation
   ROPT   =   -0.00025  -0.00025  -0.00025  -0.00025
   ROPT   =   -0.00025  -0.00025
 Ionic relaxation
   EDIFFG = -.5E-01   stopping-criterion for IOM
   NSW    =    300    number of steps for IOM
   NBLOCK =      1;   KBLOCK =    300    inner block; outer block 
   IBRION =      2    ionic relax: 0-MD 1-quasi-New 2-CG
   NFREE  =      1    steps in history (QN), initial steepest desc. (CG)
   ISIF   =      2    stress and relaxation
   IWAVPR =     11    prediction:  0-non 1-charg 2-wave 3-comb
   ISYM   =      2    0-nonsym 1-usesym 2-fastsym
   LCORR  =      T    Harris-Foulkes like correction to forces

   POTIM  = 0.5000    time-step for ionic-motion
   TEIN   =    0.0    initial temperature
   TEBEG  =    0.0;   TEEND  =   0.0 temperature during run
   SMASS  =  -3.00    Nose mass-parameter (am)
   estimated Nose-frequenzy (Omega)   =  0.10E-29 period in steps =****** mass=  -0.260E-26a.u.
   SCALEE = 1.0000    scale energy and forces
   NPACO  =    256;   APACO  = 16.0  distance and # of slots for P.C.
   PSTRESS=    0.0 pullay stress

  Mass of Ions in am
   POMASS = 195.08 55.85 58.93 63.55 58.69  1.00
  Ionic Valenz
   ZVAL   =  10.00  8.00  9.00 11.00 10.00  1.00
  Atomic Wigner-Seitz radii
   RWIGS  =  -1.00 -1.00 -1.00 -1.00 -1.00 -1.00
  virtual crystal weights 
   VCA    =   1.00  1.00  1.00  1.00  1.00  1.00
   NELECT =     778.0000    total number of electrons
   NUPDOWN=      -1.0000    fix difference up-down

 DOS related values:
   EMIN   =  10.00;   EMAX   =-10.00  energy-range for DOS
   EFERMI =   0.00
   ISMEAR =     1;   SIGMA  =   0.10  broadening in eV -4-tet -1-fermi 0-gaus

 Electronic relaxation 2 (details)
   IALGO  =     68    algorithm
   LDIAG  =      T    sub-space diagonalisation (order eigenvalues)
   LSUBROT=      F    optimize rotation matrix (better conditioning)
   TURBO    =      0    0=normal 1=particle mesh
   IRESTART =      0    0=no restart 2=restart with 2 vectors
   NREBOOT  =      0    no. of reboots
   NMIN     =      0    reboot dimension
   EREF     =   0.00    reference energy to select bands
   IMIX   =      4    mixing-type and parameters
     AMIX     =   0.40;   BMIX     =  1.00
     AMIX_MAG =   1.60;   BMIX_MAG =  1.00
     AMIN     =   0.10
     WC   =   100.;   INIMIX=   1;  MIXPRE=   1;  MAXMIX= -45

 Intra band minimization:
   WEIMIN = 0.0010     energy-eigenvalue tresh-hold
   EBREAK =  0.43E-08  absolut break condition
   DEPER  =   0.30     relativ break condition  

   TIME   =   0.40     timestep for ELM

  volume/ion in A,a.u.               =      26.73       180.38
  Fermi-wavevector in a.u.,A,eV,Ry     =   1.163891  2.199434 18.431011  1.354641
  Thomas-Fermi vector in A             =   2.300435
 
 Write flags
   LWAVE        =      F    write WAVECAR
   LDOWNSAMPLE  =      F    k-point downsampling of WAVECAR
   LCHARG       =      F    write CHGCAR
   LVTOT        =      F    write LOCPOT, total local potential
   LVHAR        =      F    write LOCPOT, Hartree potential only
   LELF         =      F    write electronic localiz. function (ELF)
   LORBIT       =      0    0 simple, 1 ext, 2 COOP (PROOUT), +10 PAW based schemes


 Dipole corrections
   LMONO  =      F    monopole corrections only (constant potential shift)
   LDIPOL =      F    correct potential (dipole corrections)
   IDIPOL =      0    1-x, 2-y, 3-z, 4-all directions 
   EPSILON=  1.0000000 bulk dielectric constant

 Exchange correlation treatment:
   GGA     =    --    GGA type
   LEXCH   =     8    internal setting for exchange type
   VOSKOWN=      0    Vosko Wilk Nusair interpolation
   LHFCALC =     F    Hartree Fock is set to
   LHFONE  =     F    Hartree Fock one center treatment
   AEXX    =    0.0000 exact exchange contribution

 Linear response parameters
   LEPSILON=     F    determine dielectric tensor
   LRPA    =     F    only Hartree local field effects (RPA)
   LNABLA  =     F    use nabla operator in PAW spheres
   LVEL    =     F    velocity operator in full k-point grid
   LINTERFAST=   F  fast interpolation
   KINTER  =     0    interpolate to denser k-point grid
   CSHIFT  =0.1000    complex shift for real part using Kramers Kronig
   OMEGAMAX=  -1.0    maximum frequency
   DEG_THRESHOLD= 0.2000000E-02 threshold for treating states as degnerate
   RTIME   =   -0.100 relaxation time in fs
  (WPLASMAI=    0.000 imaginary part of plasma frequency in eV, 0.658/RTIME)
   DFIELD  = 0.0000000 0.0000000 0.0000000 field for delta impulse in time
 
 Orbital magnetization related:
   ORBITALMAG=     F  switch on orbital magnetization
   LCHIMAG   =     F  perturbation theory with respect to B field
   DQ        =  0.001000  dq finite difference perturbation B field
   LLRAUG    =     F  two centre corrections for induced B field



--------------------------------------------------------------------------------------------------------


 conjugate gradient relaxation of ions
   using selective dynamics as specified on POSCAR
 charge density and potential will be updated during run
 spin polarized calculation
 RMM-DIIS sequential band-by-band and
  variant of blocked Davidson during initial phase
 perform sub-space diagonalisation
    before iterative eigenvector-optimisation
 modified Broyden-mixing scheme, WC =      100.0
 initial mixing is a Kerker type mixing with AMIX =  0.4000 and BMIX =      1.0000
 Hartree-type preconditioning will be used
 using additional bands          199
 real space projection scheme for non local part
 use partial core corrections
 calculate Harris-corrections to forces 
   (improved forces if not selfconsistent)
 use gradient corrections 
 use of overlap-Matrix (Vanderbilt PP)
 Methfessel and Paxton  Order N= 1 SIGMA  =   0.10


--------------------------------------------------------------------------------------------------------


  energy-cutoff  :      550.00
  volume of cell :     2165.05
      direct lattice vectors                 reciprocal lattice vectors
    10.659999847  0.000000000  0.000000000     0.093808632 -0.054160439  0.000000000
     5.329999924  9.231830672  0.000000000     0.000000000  0.108320878  0.000000000
     0.000000000  0.000000000 22.000000000     0.000000000  0.000000000  0.045454545

  length of vectors
    10.659999847 10.659999847 22.000000000     0.108320878  0.108320878  0.045454545


 
 k-points in units of 2pi/SCALE and weight: mesh auto                               
   0.00000000  0.00000000  0.00000000       0.250
   0.04690432 -0.02708022  0.00000000       0.250
   0.00000000  0.05416044  0.00000000       0.250
   0.04690432  0.02708022  0.00000000       0.250
 
 k-points in reciprocal lattice and weights: mesh auto                               
   0.00000000  0.00000000  0.00000000       0.250
   0.50000000 -0.00000000  0.00000000       0.250
   0.00000000  0.50000000  0.00000000       0.250
   0.50000000  0.50000000  0.00000000       0.250
 
 position of ions in fractional coordinates (direct lattice) 
   0.78698156  0.87934948  0.31670903
   0.04234848  0.88246863  0.31591121
   0.27906093  0.38077159  0.31860809
   0.87037601  0.96396705  0.42463440
   0.12086295  0.46246961  0.42579099
   0.12543563  0.96387204  0.42212371
   0.87404697  0.45970614  0.42522089
   0.37414116  0.96018450  0.41859529
   0.87209320  0.21346419  0.41866451
   0.12504209  0.21244796  0.42095965
   0.62402401  0.96062852  0.42207325
   0.87281104  0.70992359  0.42433242
   0.37420595  0.20933820  0.42297381
   0.37724820  0.71152838  0.42154660
   0.62552648  0.46180555  0.42118050
   0.12661411  0.70664851  0.42737501
   0.62411420  0.21111642  0.42062184
   0.54809608  0.37581131  0.31638217
   0.53418159  0.12488383  0.31438418
   0.54860226  0.12207837  0.04171946
   0.12037701  0.45967589  0.12832010
   0.04398259  0.13560906  0.31394450
   0.04184264  0.13051489  0.03430237
   0.13087669  0.95764103  0.13245935
   0.37478501  0.46119156  0.42416400
   0.45485914  0.54588982  0.21874999
   0.62218054  0.71199103  0.42264004
   0.95645968  0.78899581  0.22100756
   0.79431358  0.62283920  0.31869408
   0.29035371  0.63122911  0.31786704
   0.20217908  0.27972982  0.22528100
   0.70611390  0.54959934  0.22097174
   0.04036407  0.63157605  0.32455883
   0.79601056  0.86182010  0.04358326
   0.05654378  0.86511100  0.03922008
   0.04354811  0.63172365  0.03890931
   0.62768151  0.22351632  0.12936912
   0.38251648  0.95408414  0.13073287
   0.03528268  0.38373991  0.32354596
   0.02789537  0.38111357  0.03922688
   0.87238548  0.21524336  0.12909491
   0.95467932  0.54470465  0.22394960
   0.29644672  0.11628504  0.32044908
   0.54060553  0.62917590  0.32136700
   0.29593874  0.11566849  0.04109769
   0.54915757  0.62535345  0.04512996
   0.29444361  0.38188257  0.03954700
   0.62577798  0.94799811  0.13283874
   0.70705774  0.79324161  0.22005214
   0.86523064  0.70443471  0.12965162
   0.62674088  0.45978399  0.12791088
   0.29845064  0.87417220  0.31768696
   0.30656831  0.86859519  0.04153612
   0.62656079  0.71505450  0.12903147
   0.22515281  0.02743556  0.22759778
   0.54425403  0.38139876  0.03593963
   0.37883082  0.20414358  0.13341050
   0.13702030  0.70469682  0.13275664
   0.70477493  0.05064794  0.22041944
   0.79288205  0.12930665  0.31656623
   0.53879004  0.87299165  0.31663114
   0.79690904  0.12300803  0.03589815
   0.54639677  0.86991640  0.03703501
   0.20779659  0.54239767  0.22376022
   0.95111425  0.29749285  0.22182122
   0.87203635  0.96412677  0.12966428
   0.71537339  0.29000752  0.22356538
   0.45718173  0.29225077  0.22086730
   0.87549525  0.45703326  0.12894021
   0.12808024  0.20618715  0.12934578
   0.79201094  0.62176511  0.04149761
   0.29752238  0.62870438  0.04356032
   0.38614974  0.71252577  0.12966825
   0.38234618  0.45146388  0.12688447
   0.79315007  0.37965716  0.31998752
   0.79142063  0.37689392  0.04093851
   0.95561894  0.05311826  0.22176563
   0.45832980  0.79639200  0.22484809
   0.21473375  0.79774967  0.22502562
   0.46199744  0.02941329  0.22254954
   0.54035797  0.62957843  0.46840172
 
 position of ions in cartesian coordinates  (Angst):
  13.07615599  8.11800551  6.96759867
   5.15499251  8.14680092  6.95004655
   5.00430200  3.51521882  7.00937790
  14.41615247  8.89918061  9.34195677
   3.75336201  4.26944112  9.36740170
   6.47458174  8.89830346  9.28672158
  11.76757422  4.24392924  9.35485963
   9.10612809  8.86426075  9.20909647
  10.43427746  1.97066527  9.21061932
   2.46529630  1.96128357  9.26111228
  11.77224579  8.86835980  9.28561147
  13.08805823  6.55389440  9.33531328
   5.10480797  1.93257482  9.30542384
   7.81391199  6.56870955  9.27402517
   9.12953571  4.26331063  9.26597090
   5.11614291  6.52365937  9.40225030
   7.77830774  1.94899106  9.25368057
   7.84577839  3.46942635  6.96040778
   6.36000644  1.15290638  6.91645200
   6.49877769  1.12700682  0.91782815
   3.73329140  4.24365001  2.82304227
   1.19165074  1.25191993  6.90677896
   1.14168689  1.20489139  0.75465211
   6.49937211  8.84077982  2.91410569
   6.45335914  4.25764239  9.33160810
   7.75839111  5.03956240  4.81249981
  10.42735662  6.57298059  9.29808086
  14.40120767  7.28387573  4.86216630
  11.78711552  5.74994601  7.01126987
   6.45962155  5.82740022  6.99307492
   3.64618885  2.58241830  4.95618191
  10.45653852  5.07380801  4.86137834
   3.79658130  5.83060319  7.14029420
  13.07897347  7.95617723  0.95883175
   5.21379828  7.98655826  0.86284167
   3.83130979  5.83196573  0.85600479
   7.88242681  2.06346482  2.84612068
   9.16289403  8.80794326  2.87612304
   2.42144708  3.54262184  7.11801115
   2.32869997  3.51837592  0.86299137
  10.44687620  1.98709023  2.84008810
  13.08015720  5.02862111  4.92689116
   3.77992122  1.07352384  7.04987973
   9.11636234  5.80844539  7.07007403
   3.77121995  1.06783187  0.90414915
   9.18715339  5.77315714  0.99285907
   5.17420286  3.52547522  0.87003394
  11.72362308  8.75175804  2.92245229
  11.76521306  7.32307218  4.84114715
  12.97799537  6.50322193  2.85233561
   9.13170631  4.24464793  2.81403934
   7.84082150  8.07020973  6.98911306
   7.89763048  8.01872375  0.91379463
  10.49037833  6.60126203  2.83869239
   2.54636042  0.25328046  5.00715111
   7.83460323  3.52100880  0.79067188
   5.12642169  1.88461893  2.93503107
   5.21667036  6.50564171  2.92064609
   7.78285419  0.46757319  4.84922766
   9.14132700  1.19373713  6.96445700
  10.39654712  8.05931108  6.96588500
   9.15068307  1.13558928  0.78975929
  10.46124387  8.03092093  0.81477030
   5.10609115  5.00732347  4.92272485
  11.72451460  2.74640359  4.88006674
  14.43470298  8.90065509  2.85261421
   9.17162027  2.67730030  4.91843837
   6.43125380  2.69800961  4.85908059
  11.76876646  4.21925362  2.83668457
   2.46431279  1.90348482  2.84560726
  11.75684446  5.74003023  0.91294740
   6.52258279  5.80409234  0.95832694
   7.91411848  6.57791728  2.85270146
   6.48211261  4.16783809  2.79145838
  10.47855222  3.50493060  7.03972547
  10.44538833  3.47942085  0.90064720
  10.47001811  0.49037882  4.87884395
   9.13056487  7.35215612  4.94665795
   6.54106736  7.36468985  4.95056361
   5.08166545  0.27153855  4.89608981
   9.11586887  5.81216143 10.30483790
 


--------------------------------------------------------------------------------------------------------


 k-point  1 :   0.0000 0.0000 0.0000  plane waves:   63475
 k-point  2 :   0.5000-0.0000 0.0000  plane waves:   63428
 k-point  3 :   0.0000 0.5000 0.0000  plane waves:   63428
 k-point  4 :   0.5000 0.5000 0.0000  plane waves:   63428

 maximum and minimum number of plane-waves per node :     15884    15811

 maximum number of plane-waves:     63475
 maximum index in each direction: 
   IXMAX=   20   IYMAX=   20   IZMAX=   42
   IXMIN=  -20   IYMIN=  -20   IZMIN=  -42


 real space projection operators:
  total allocation   :      76347.25 KBytes
  max/ min on nodes  :      19104.35      19065.37


 parallel 3D FFT for wavefunctions:
    minimum data exchange during FFTs selected (reduces bandwidth)
 parallel 3D FFT for charge:
    minimum data exchange during FFTs selected (reduces bandwidth)


 total amount of memory used by VASP MPI-rank0   231983. kBytes
=======================================================================

   base      :      30000. kBytes
   nonlr-proj:      34033. kBytes
   fftplans  :      16133. kBytes
   grid      :      49182. kBytes
   one-center:        653. kBytes
   wavefun   :     101982. kBytes
 
     INWAV:  cpu time    0.0000: real time    0.0000
 Broyden mixing: mesh for mixing (old mesh)
   NGX = 41   NGY = 41   NGZ = 85
  (NGX  =168   NGY  =168   NGZ  =336)
  gives a total of 142885 points

 initial charge density was supplied:
 charge density of overlapping atoms calculated
 number of electron     778.0000000 magnetization     231.0000000
 keeping initial charge density in first step


--------------------------------------------------------------------------------------------------------


 Maximum index for non-local projection operator         1866
 Maximum index for augmentation-charges         1444 (set IRDMAX)


--------------------------------------------------------------------------------------------------------


 First call to EWALD:  gamma=   0.137
 Maximum number of real-space cells 4x 4x 2
 Maximum number of reciprocal cells 2x 2x 4

    FEWALD:  cpu time    0.0047: real time    0.0047


--------------------------------------- Iteration      1(   1)  ---------------------------------------


    POTLOK:  cpu time    0.4078: real time    0.4200
    SETDIJ:  cpu time    0.0352: real time    0.0353
     EDDAV:  cpu time   62.9984: real time   63.4008
       DOS:  cpu time    0.0039: real time    0.0714
    --------------------------------------------
      LOOP:  cpu time   63.4453: real time   63.9275

 eigenvalue-minimisations  :  9408
 total energy-change (2. order) : 0.7828819E+04  (-0.3294584E+05)
 number of electron     778.0000000 magnetization     231.0000000
 augmentation part      778.0000000 magnetization     231.0000000

 Free energy of the ion-electron system (eV)
  ---------------------------------------------------
  alpha Z        PSCENC =      2197.15539535
  Ewald energy   TEWEN  =    222781.44891628
  -Hartree energ DENC   =   -294923.83754680
  -exchange      EXHF   =         0.00000000
  -V(xc)+E(xc)   XCENC  =      1384.68899899
  PAW double counting   =     64136.80006862   -66038.70876209
  entropy T*S    EENTRO =         0.01225165
  eigenvalues    EBANDS =      8072.60473967
  atomic energy  EATOM  =     70218.65458108
  Solvation  Ediel_sol  =         0.00000000
  ---------------------------------------------------
  free energy    TOTEN  =      7828.81864274 eV

  energy without entropy =     7828.80639109  energy(sigma->0) =     7828.81455886


--------------------------------------------------------------------------------------------------------




--------------------------------------- Iteration      1(   2)  ---------------------------------------


     EDDAV:  cpu time   62.9871: real time   63.2789
       DOS:  cpu time    0.0030: real time    0.0167
    --------------------------------------------
      LOOP:  cpu time   62.9901: real time   63.2955

 eigenvalue-minimisations  :  9408
 total energy-change (2. order) :-0.6997885E+04  (-0.6260311E+04)
 number of electron     778.0000000 magnetization     231.0000000
 augmentation part      778.0000000 magnetization     231.0000000

 Free energy of the ion-electron system (eV)
  ---------------------------------------------------
  alpha Z        PSCENC =      2197.15539535
  Ewald energy   TEWEN  =    222781.44891628
  -Hartree energ DENC   =   -294923.83754680
  -exchange      EXHF   =         0.00000000
  -V(xc)+E(xc)   XCENC  =      1384.68899899
  PAW double counting   =     64136.80006862   -66038.70876209
  entropy T*S    EENTRO =         0.00323210
  eigenvalues    EBANDS =      1074.72833851
  atomic energy  EATOM  =     70218.65458108
  Solvation  Ediel_sol  =         0.00000000
  ---------------------------------------------------
  free energy    TOTEN  =       830.93322203 eV

  energy without entropy =      830.92998993  energy(sigma->0) =      830.93214466


--------------------------------------------------------------------------------------------------------




--------------------------------------- Iteration      1(   3)  ---------------------------------------


     EDDAV:  cpu time   62.6882: real time   62.9968
       DOS:  cpu time    0.0031: real time    0.0038
    --------------------------------------------
      LOOP:  cpu time   62.6914: real time   63.0005

 eigenvalue-minimisations  :  9408
 total energy-change (2. order) :-0.1206482E+04  (-0.9767024E+03)
 number of electron     778.0000000 magnetization     231.0000000
 augmentation part      778.0000000 magnetization     231.0000000

 Free energy of the ion-electron system (eV)
  ---------------------------------------------------
  alpha Z        PSCENC =      2197.15539535
  Ewald energy   TEWEN  =    222781.44891628
  -Hartree energ DENC   =   -294923.83754680
  -exchange      EXHF   =         0.00000000
  -V(xc)+E(xc)   XCENC  =      1384.68899899
  PAW double counting   =     64136.80006862   -66038.70876209
  entropy T*S    EENTRO =         0.00129117
  eigenvalues    EBANDS =      -131.75213653
  atomic energy  EATOM  =     70218.65458108
  Solvation  Ediel_sol  =         0.00000000
  ---------------------------------------------------
  free energy    TOTEN  =      -375.54919394 eV

  energy without entropy =     -375.55048511  energy(sigma->0) =     -375.54962433


--------------------------------------------------------------------------------------------------------




--------------------------------------- Iteration      1(   4)  ---------------------------------------


     EDDAV:  cpu time   74.8079: real time   75.1565
       DOS:  cpu time    0.0030: real time    0.0040
    --------------------------------------------
      LOOP:  cpu time   74.8109: real time   75.1605

 eigenvalue-minimisations  : 11796
 total energy-change (2. order) :-0.1171526E+03  (-0.1073907E+03)
 number of electron     778.0000000 magnetization     231.0000000
 augmentation part      778.0000000 magnetization     231.0000000

 Free energy of the ion-electron system (eV)
  ---------------------------------------------------
  alpha Z        PSCENC =      2197.15539535
  Ewald energy   TEWEN  =    222781.44891628
  -Hartree energ DENC   =   -294923.83754680
  -exchange      EXHF   =         0.00000000
  -V(xc)+E(xc)   XCENC  =      1384.68899899
  PAW double counting   =     64136.80006862   -66038.70876209
  entropy T*S    EENTRO =        -0.00805506
  eigenvalues    EBANDS =      -248.89540041
  atomic energy  EATOM  =     70218.65458108
  Solvation  Ediel_sol  =         0.00000000
  ---------------------------------------------------
  free energy    TOTEN  =      -492.70180405 eV

  energy without entropy =     -492.69374898  energy(sigma->0) =     -492.69911903


--------------------------------------------------------------------------------------------------------




--------------------------------------- Iteration      1(   5)  ---------------------------------------


     EDDAV:  cpu time   71.6918: real time   72.0686
       DOS:  cpu time    0.0050: real time    0.0311
    CHARGE:  cpu time    3.8654: real time    3.8755
    MIXING:  cpu time    0.0116: real time    0.0117
    --------------------------------------------
      LOOP:  cpu time   75.5738: real time   75.9869

 eigenvalue-minimisations  : 11196
 total energy-change (2. order) :-0.4394205E+01  (-0.4359160E+01)
 number of electron     778.0000011 magnetization     216.4996245
 augmentation part      335.1289212 magnetization     184.2180130

 Broyden mixing:
  rms(total) = 0.11736E+02    rms(broyden)= 0.11736E+02
  rms(prec ) = 0.12052E+02
  weight for this iteration     100.00

 Free energy of the ion-electron system (eV)
  ---------------------------------------------------
  alpha Z        PSCENC =      2197.15539535
  Ewald energy   TEWEN  =    222781.44891628
  -Hartree energ DENC   =   -294923.83754680
  -exchange      EXHF   =         0.00000000
  -V(xc)+E(xc)   XCENC  =      1384.68899899
  PAW double counting   =     64136.80006862   -66038.70876209
  entropy T*S    EENTRO =        -0.00655232
  eigenvalues    EBANDS =      -253.29110807
  atomic energy  EATOM  =     70218.65458108
  Solvation  Ediel_sol  =         0.00000000
  ---------------------------------------------------
  free energy    TOTEN  =      -497.09600898 eV

  energy without entropy =     -497.08945665  energy(sigma->0) =     -497.09382487


--------------------------------------------------------------------------------------------------------




--------------------------------------- Iteration      1(   6)  ---------------------------------------


    POTLOK:  cpu time    0.3973: real time    0.4209
    SETDIJ:  cpu time    0.0344: real time    0.0347
    EDDIAG:  cpu time   11.2348: real time   11.2834
  RMM-DIIS:  cpu time   37.6016: real time   37.7509
    ORTHCH:  cpu time    1.3409: real time    1.3445
       DOS:  cpu time    0.0026: real time    0.0026
    CHARGE:  cpu time    3.6916: real time    3.7057
    MIXING:  cpu time    0.0108: real time    0.0114
    --------------------------------------------
      LOOP:  cpu time   54.3139: real time   54.5541

 eigenvalue-minimisations  :  9550
 total energy-change (2. order) :-0.1615735E+03  (-0.9238439E+02)
 number of electron     778.0000015 magnetization     212.4064708
 augmentation part      406.1756058 magnetization     179.7361193

 Broyden mixing:
  rms(total) = 0.19609E+02    rms(broyden)= 0.19609E+02
  rms(prec ) = 0.25434E+02
  weight for this iteration     100.00

 eigenvalues of (default mixing * dielectric matrix)
  average eigenvalue GAMMA=   0.2261
  0.2261

 Free energy of the ion-electron system (eV)
  ---------------------------------------------------
  alpha Z        PSCENC =      2197.15539535
  Ewald energy   TEWEN  =    222781.44891628
  -Hartree energ DENC   =   -293320.59894235
  -exchange      EXHF   =         0.00000000
  -V(xc)+E(xc)   XCENC  =      1338.86096382
  PAW double counting   =     69083.03823835   -70775.84589012
  entropy T*S    EENTRO =        -0.00385521
  eigenvalues    EBANDS =     -2181.37895617
  atomic energy  EATOM  =     70218.65458108
  Solvation  Ediel_sol  =         0.00000000
  ---------------------------------------------------
  free energy    TOTEN  =      -658.66954897 eV

  energy without entropy =     -658.66569376  energy(sigma->0) =     -658.66826390


--------------------------------------------------------------------------------------------------------




--------------------------------------- Iteration      1(   7)  ---------------------------------------


    POTLOK:  cpu time    0.3868: real time    0.3888
    SETDIJ:  cpu time    0.0347: real time    0.0348
    EDDIAG:  cpu time   11.2539: real time   11.2843
  RMM-DIIS:  cpu time   37.1564: real time   37.2563
    ORTHCH:  cpu time    1.3645: real time    1.3681
       DOS:  cpu time    0.0030: real time    0.0031
    CHARGE:  cpu time    3.7624: real time    3.7730
    MIXING:  cpu time    0.0109: real time    0.0111
    --------------------------------------------
      LOOP:  cpu time   53.9726: real time   54.1194

 eigenvalue-minimisations  :  9419
 total energy-change (2. order) : 0.1206406E+03  (-0.1652806E+02)
 number of electron     778.0000016 magnetization     207.7494424
 augmentation part      366.3092260 magnetization     165.1120310

 Broyden mixing:
  rms(total) = 0.15614E+02    rms(broyden)= 0.15614E+02
  rms(prec ) = 0.21044E+02
  weight for this iteration     100.00

 eigenvalues of (default mixing * dielectric matrix)
  average eigenvalue GAMMA=   0.2691
  0.3726  0.1656

 Free energy of the ion-electron system (eV)
  ---------------------------------------------------
  alpha Z        PSCENC =      2197.15539535
  Ewald energy   TEWEN  =    222781.44891628
  -Hartree energ DENC   =   -294004.93905257
  -exchange      EXHF   =         0.00000000
  -V(xc)+E(xc)   XCENC  =      1359.15198049
  PAW double counting   =     70136.52769649   -71989.38298606
  entropy T*S    EENTRO =        -0.00444488
  eigenvalues    EBANDS =     -1236.64105953
  atomic energy  EATOM  =     70218.65458108
  Solvation  Ediel_sol  =         0.00000000
  ---------------------------------------------------
  free energy    TOTEN  =      -538.02897336 eV

  energy without entropy =     -538.02452848  energy(sigma->0) =     -538.02749174


--------------------------------------------------------------------------------------------------------




--------------------------------------- Iteration      1(   8)  ---------------------------------------


    POTLOK:  cpu time    0.3897: real time    0.3917
    SETDIJ:  cpu time    0.0344: real time    0.0345
    EDDIAG:  cpu time   11.2183: real time   11.2485
  RMM-DIIS:  cpu time   37.2658: real time   37.3657
    ORTHCH:  cpu time    1.4092: real time    1.4164
       DOS:  cpu time    0.0027: real time    0.0028
    CHARGE:  cpu time    3.6678: real time    3.6845
    MIXING:  cpu time    0.0114: real time    0.0116
    --------------------------------------------
      LOOP:  cpu time   53.9993: real time   54.1557

 eigenvalue-minimisations  :  9431
 total energy-change (2. order) : 0.5846717E+02  (-0.1038482E+02)
 number of electron     778.0000013 magnetization     200.5327221
 augmentation part      371.6429231 magnetization     163.2261499

 Broyden mixing:
  rms(total) = 0.16183E+02    rms(broyden)= 0.16183E+02
  rms(prec ) = 0.18960E+02
  weight for this iteration     100.00

 eigenvalues of (default mixing * dielectric matrix)
  average eigenvalue GAMMA=   0.3068
  0.5798  0.2595  0.0811

 Free energy of the ion-electron system (eV)
  ---------------------------------------------------
  alpha Z        PSCENC =      2197.15539535
  Ewald energy   TEWEN  =    222781.44891628
  -Hartree energ DENC   =   -294269.35249796
  -exchange      EXHF   =         0.00000000
  -V(xc)+E(xc)   XCENC  =      1364.57362925
  PAW double counting   =     71337.54853316   -73259.23594860
  entropy T*S    EENTRO =         0.00408041
  eigenvalues    EBANDS =      -850.35849470
  atomic energy  EATOM  =     70218.65458108
  Solvation  Ediel_sol  =         0.00000000
  ---------------------------------------------------
  free energy    TOTEN  =      -479.56180575 eV

  energy without entropy =     -479.56588615  energy(sigma->0) =     -479.56316588


--------------------------------------------------------------------------------------------------------




--------------------------------------- Iteration      1(   9)  ---------------------------------------


    POTLOK:  cpu time    0.3907: real time    0.3929
    SETDIJ:  cpu time    0.0345: real time    0.0346
    EDDIAG:  cpu time   11.2311: real time   11.2618
  RMM-DIIS:  cpu time   37.2672: real time   37.4687
    ORTHCH:  cpu time    1.3757: real time    1.3793
       DOS:  cpu time    0.0027: real time    0.0027
    CHARGE:  cpu time    3.6519: real time    3.7070
    MIXING:  cpu time    0.0135: real time    0.0135
    --------------------------------------------
      LOOP:  cpu time   53.9673: real time   54.2605

 eigenvalue-minimisations  :  9448
 total energy-change (2. order) : 0.1025370E+03  (-0.1500769E+02)
 number of electron     778.0000010 magnetization     192.3381528
 augmentation part      373.4386184 magnetization     147.1500931

 Broyden mixing:
  rms(total) = 0.12473E+02    rms(broyden)= 0.12472E+02
  rms(prec ) = 0.14208E+02
  weight for this iteration     100.00

 eigenvalues of (default mixing * dielectric matrix)
  average eigenvalue GAMMA=   0.3661
  0.8877  0.3434  0.1404  0.0929

 Free energy of the ion-electron system (eV)
  ---------------------------------------------------
  alpha Z        PSCENC =      2197.15539535
  Ewald energy   TEWEN  =    222781.44891628
  -Hartree energ DENC   =   -293997.07212775
  -exchange      EXHF   =         0.00000000
  -V(xc)+E(xc)   XCENC  =      1381.20691656
  PAW double counting   =     72790.41686271   -74764.55779828
  entropy T*S    EENTRO =        -0.01288345
  eigenvalues    EBANDS =      -984.26468063
  atomic energy  EATOM  =     70218.65458108
  Solvation  Ediel_sol  =         0.00000000
  ---------------------------------------------------
  free energy    TOTEN  =      -377.02481815 eV

[...]
   -.506E+01 0.271E+02 -.290E+04   0.523E+01 -.269E+02 0.290E+04   -.161E+00 -.208E+00 0.894E+00   0.144E-02 -.924E-02 0.680E-01
   -.120E+02 0.720E+01 -.290E+04   0.114E+02 -.676E+01 0.289E+04   0.555E+00 -.434E+00 0.152E+01   -.181E-01 0.210E-01 -.232E-01
   0.670E+01 -.260E+01 -.287E+04   -.662E+01 0.220E+01 0.287E+04   -.615E-01 0.332E+00 0.105E+01   -.106E-01 0.259E-01 0.424E-01
   -.191E+02 -.633E+01 -.291E+04   0.196E+02 0.563E+01 0.291E+04   -.454E+00 0.694E+00 0.165E+01   0.191E-01 -.195E-01 -.580E-01
   0.126E+02 -.182E+02 -.289E+04   -.129E+02 0.188E+02 0.289E+04   0.347E+00 -.531E+00 0.207E+01   -.249E-01 0.174E-01 0.268E-01
   -.251E+02 0.187E+02 -.290E+04   0.249E+02 -.185E+02 0.290E+04   0.198E+00 -.215E+00 0.113E+01   0.312E-01 0.359E-01 0.104E-01
   -.825E+01 0.137E+00 -.288E+04   0.865E+01 0.878E-01 0.287E+04   -.352E+00 -.275E+00 0.166E+01   -.277E-01 0.469E-01 0.781E-02
   -.124E+02 -.101E+02 -.291E+04   0.126E+02 0.983E+01 0.291E+04   -.257E+00 0.269E+00 0.786E+00   0.303E-01 0.575E-02 0.438E-01
   -.157E+02 -.953E+00 -.289E+04   0.159E+02 0.750E+00 0.289E+04   -.241E+00 0.242E+00 0.120E+01   0.320E-01 -.500E-01 0.895E-02
   0.373E+01 -.198E+02 -.289E+04   -.394E+01 0.195E+02 0.289E+04   0.262E+00 0.297E+00 0.960E+00   -.165E-01 0.429E-01 0.303E-01
   0.354E+02 -.394E-01 -.289E+04   -.357E+02 0.566E+00 0.289E+04   0.282E+00 -.534E+00 0.101E+01   -.118E-01 -.222E-01 0.252E-02
   0.211E+02 0.693E+01 -.290E+04   -.207E+02 -.735E+01 0.290E+04   -.334E+00 0.488E+00 0.842E+00   0.345E-01 -.977E-04 -.368E-01
   0.208E+01 -.239E+01 -.288E+04   -.235E+01 0.202E+01 0.288E+04   0.310E+00 0.402E+00 0.122E+01   -.351E-01 -.380E-01 0.139E-01
   0.285E+02 -.291E+01 -.290E+04   -.284E+02 0.308E+01 0.290E+04   -.154E+00 -.213E+00 0.110E+01   0.108E-01 0.214E-02 0.333E-01
   0.698E+02 -.724E+02 -.152E+04   -.684E+02 0.726E+02 0.152E+04   -.139E+01 -.280E+00 0.165E+01   0.511E-01 0.367E-01 0.333E-01
   0.289E+02 -.436E+02 -.150E+04   -.301E+02 0.432E+02 0.150E+04   0.110E+01 0.394E+00 0.248E+01   0.307E-01 0.376E-01 0.127E+00
   0.379E+02 0.173E+02 0.299E+04   -.379E+02 -.176E+02 -.299E+04   0.318E-01 0.369E+00 -.253E+01   -.184E-01 0.530E-01 -.869E-01
   0.246E+02 -.314E+01 0.159E+04   -.254E+02 0.392E+01 -.159E+04   0.956E+00 -.670E+00 0.903E+00   -.290E-01 -.745E-01 -.307E-01
   -.677E+02 0.101E+02 -.146E+04   0.687E+02 -.952E+01 0.146E+04   -.889E+00 -.641E+00 0.262E+01   -.564E-02 0.118E+00 0.126E+00
   -.545E+02 0.530E+02 0.305E+04   0.551E+02 -.521E+02 -.305E+04   -.711E+00 -.100E+01 -.219E+01   0.388E-01 0.850E-01 0.480E-02
   0.450E+01 -.537E+02 0.157E+04   -.431E+01 0.532E+02 -.157E+04   -.300E+00 0.433E+00 -.810E+00   0.638E-01 -.912E-02 -.345E-01
   0.881E+01 0.958E-01 -.288E+04   -.932E+01 -.340E+00 0.288E+04   0.542E+00 0.231E+00 0.967E+00   -.387E-01 0.109E-01 0.210E-01
   -.181E+02 -.471E+01 0.805E+01   0.180E+02 0.493E+01 -.925E+01   -.102E-01 -.321E+00 0.123E+01   0.847E-01 0.502E-01 -.200E-01
   -.233E+02 0.166E+01 -.290E+04   0.237E+02 -.122E+01 0.290E+04   -.389E+00 -.395E+00 0.109E+01   0.151E-01 -.448E-01 -.105E-01
   0.157E+02 0.598E+02 0.151E+02   -.167E+02 -.610E+02 -.155E+02   0.105E+01 0.121E+01 0.227E+00   0.462E-01 -.503E-01 0.112E+00
   -.618E+02 0.794E+01 -.148E+04   0.620E+02 -.895E+01 0.148E+04   -.277E+00 0.118E+01 0.271E+01   0.850E-02 -.106E+00 0.716E-01
   0.260E+02 0.288E+02 -.153E+04   -.255E+02 -.280E+02 0.153E+04   -.491E+00 -.801E+00 0.213E+01   -.160E-01 -.226E-01 0.486E-01
   0.135E+02 -.649E+02 -.674E+02   -.143E+02 0.643E+02 0.677E+02   0.100E+01 0.496E+00 -.307E+00   -.866E-01 0.999E-01 0.416E-01
   -.200E+02 -.213E+02 -.204E+01   0.208E+02 0.220E+02 0.139E+01   -.795E+00 -.735E+00 0.698E+00   -.643E-01 -.265E-01 -.223E-01
   0.174E+02 0.145E+02 -.123E+04   -.175E+02 -.148E+02 0.123E+04   0.124E+00 0.450E+00 0.409E+00   -.132E-01 -.508E-01 0.773E-01
   -.634E+02 -.539E+01 0.241E+04   0.637E+02 0.408E+01 -.240E+04   -.322E+00 0.132E+01 -.278E+01   -.109E-01 0.127E-01 -.878E-01
   0.326E+02 -.163E+02 0.244E+04   -.325E+02 0.148E+02 -.244E+04   -.881E-01 0.161E+01 -.246E+01   0.476E-01 -.311E-01 -.298E-01
   0.172E+02 0.628E+01 0.244E+04   -.173E+02 -.555E+01 -.244E+04   0.160E+00 -.763E+00 -.298E+01   0.462E-01 -.651E-01 -.560E-01
   0.156E+02 0.539E+02 0.128E+04   -.148E+02 -.532E+02 -.128E+04   -.914E+00 -.770E+00 -.121E+00   0.693E-01 0.874E-01 -.254E-01
   0.307E+02 -.601E+02 0.126E+04   -.305E+02 0.599E+02 -.126E+04   -.104E+00 0.233E+00 -.429E+00   -.588E-01 -.953E-01 -.649E-01
   -.557E+02 -.228E+02 -.122E+04   0.558E+02 0.230E+02 0.122E+04   -.117E+00 -.261E+00 0.643E+00   -.273E-01 0.276E-01 0.613E-01
   -.111E+03 0.206E+02 0.245E+04   0.110E+03 -.203E+02 -.245E+04   0.574E+00 -.215E+00 -.276E+01   -.127E-01 -.487E-01 0.250E-02
   -.346E+02 0.479E+02 0.128E+04   0.337E+02 -.475E+02 -.128E+04   0.826E+00 -.522E+00 -.448E+00   0.279E-01 0.101E+00 -.233E-01
   -.495E+02 0.293E+01 -.424E+02   0.492E+02 -.248E+01 0.422E+02   0.254E+00 -.404E+00 -.779E-01   -.286E-01 -.756E-01 0.956E-01
   0.144E+02 -.821E+02 -.123E+04   -.145E+02 0.819E+02 0.123E+04   0.139E+00 0.231E+00 0.101E+01   -.444E-01 0.521E-01 0.106E+00
   0.141E+02 0.264E+02 -.124E+04   -.143E+02 -.265E+02 0.124E+04   0.162E+00 0.507E-01 0.494E+00   0.155E-01 -.293E-01 0.370E-02
   0.556E+01 -.628E+02 0.242E+04   -.627E+01 0.618E+02 -.242E+04   0.787E+00 0.104E+01 -.287E+01   -.325E-01 0.335E-01 -.254E-01
   0.855E+01 -.150E+02 0.272E+04   -.860E+01 0.152E+02 -.272E+04   0.982E-01 -.247E+00 -.238E+01   -.461E-01 -.289E-01 0.753E-01
   0.119E+03 0.345E+02 0.276E+04   -.119E+03 -.337E+02 -.276E+04   0.387E+00 -.855E+00 -.274E+01   -.521E-02 0.194E-01 -.571E-01
   -.412E+02 -.382E+02 0.140E+04   0.407E+02 0.371E+02 -.140E+04   0.465E+00 0.113E+01 -.438E+00   -.504E-01 -.388E-01 -.659E-01
   -.615E+02 0.603E+02 0.192E+02   0.617E+02 -.600E+02 -.200E+02   -.734E-01 -.207E+00 0.727E+00   -.777E-01 -.114E+00 0.690E-01
   -.970E+02 0.166E+02 0.139E+04   0.966E+02 -.160E+02 -.139E+04   0.483E+00 -.516E+00 -.152E+00   -.529E-01 -.755E-01 -.447E-02
   -.155E+02 0.808E+01 0.137E+04   0.156E+02 -.843E+01 -.137E+04   -.135E+00 0.311E+00 -.137E+00   0.427E-01 0.105E+00 -.421E-01
   0.423E+02 0.109E+02 -.139E+04   -.422E+02 -.111E+02 0.139E+04   -.232E+00 0.299E+00 0.134E+01   0.607E-02 -.535E-01 0.580E-01
   0.563E+02 -.797E+02 0.273E+04   -.561E+02 0.796E+02 -.273E+04   -.407E+00 0.214E+00 -.251E+01   0.481E-01 -.101E+00 0.134E-01
   -.126E+02 0.404E+01 0.136E+04   0.130E+02 -.368E+01 -.136E+04   -.134E+00 -.264E+00 -.458E+00   -.192E+00 -.126E+00 -.213E-01
   0.233E+02 -.705E+02 -.122E+02   -.225E+02 0.700E+02 0.125E+02   -.862E+00 0.574E+00 -.366E+00   -.339E-01 -.134E-01 0.157E-01
   0.460E+02 0.345E+02 0.340E+04   -.461E+02 -.338E+02 -.340E+04   -.104E+00 -.854E+00 -.390E+01   0.723E-01 0.128E+00 -.183E-01
   0.595E+02 -.125E+01 0.173E+04   -.595E+02 0.511E+00 -.173E+04   0.121E+00 0.742E+00 -.186E+00   -.808E-01 0.810E-01 -.932E-01
   0.104E+03 -.273E+02 0.170E+04   -.104E+03 0.273E+02 -.170E+04   -.142E+00 -.155E-01 -.807E-01   0.131E+00 -.548E-01 -.160E-01
   0.195E+02 0.674E+02 0.951E+02   -.201E+02 -.673E+02 -.958E+02   0.570E+00 -.263E+00 0.548E+00   0.727E-01 0.594E-01 0.832E-01
   0.135E+02 0.532E+02 -.168E+04   -.131E+02 -.529E+02 0.168E+04   -.476E+00 -.413E+00 0.137E+01   0.283E-01 0.715E-01 0.107E+00
   -.369E+02 0.336E+02 -.167E+04   0.360E+02 -.333E+02 0.166E+04   0.104E+01 -.104E+00 0.215E+01   -.307E-01 -.937E-01 0.921E-01
   -.246E+01 0.990E+02 0.335E+04   0.251E+01 -.994E+02 -.335E+04   -.116E+00 0.369E+00 -.312E+01   0.224E-01 0.104E+00 -.378E-01
   -.190E+02 -.826E+02 0.338E+04   0.182E+02 0.824E+02 -.338E+04   0.953E+00 0.311E+00 -.279E+01   -.103E+00 -.900E-01 -.287E-01
   0.106E+03 0.892E+01 -.593E+02   -.106E+03 -.878E+01 0.594E+02   -.564E-01 -.215E+00 -.309E+00   0.112E-01 0.397E-02 0.886E-01
   -.116E+03 -.354E+02 0.408E+02   0.116E+03 0.352E+02 -.409E+02   0.308E+00 0.130E+00 0.306E-01   -.200E-01 0.950E-01 0.369E-01
   -.105E+02 0.574E+02 0.179E+04   0.102E+02 -.569E+02 -.179E+04   0.353E+00 -.627E+00 -.720E+00   0.560E-01 0.623E-01 -.228E-01
   0.139E+02 -.734E+02 0.484E+02   -.136E+02 0.721E+02 -.490E+02   -.353E+00 0.130E+01 0.499E+00   0.587E-01 0.128E+00 0.271E-01
   0.561E+02 -.316E+02 0.108E+02   -.555E+02 0.311E+02 -.110E+02   -.597E+00 0.324E+00 0.263E+00   0.479E-01 0.103E+00 0.602E-01
   -.759E+02 0.365E+01 0.153E+04   0.755E+02 -.344E+01 -.153E+04   0.432E+00 -.754E-01 -.172E+00   -.110E+00 -.733E-01 0.628E-03
   -.180E+02 0.154E+02 0.160E+04   0.184E+02 -.157E+02 -.160E+04   -.402E+00 0.255E+00 -.453E+00   -.459E-01 0.654E-01 -.602E-01
   -.103E+03 -.239E+01 0.305E+04   0.104E+03 0.253E+01 -.305E+04   -.559E+00 -.568E-01 -.149E+01   -.143E+00 -.706E-01 -.653E-02
   0.737E+02 -.367E+02 0.305E+04   -.742E+02 0.373E+02 -.305E+04   0.379E+00 -.678E+00 -.104E+01   0.124E+00 -.349E-01 -.174E-01
   0.195E+02 -.328E+02 0.153E+04   -.193E+02 0.327E+02 -.153E+04   -.376E+00 0.211E+00 -.260E-01   0.110E+00 -.962E-01 -.472E-01
   0.578E+02 0.599E+01 0.159E+04   -.574E+02 -.611E+01 -.159E+04   -.483E+00 0.706E-01 -.144E+00   0.899E-01 0.869E-01 -.547E-01
   -.349E+02 -.707E+02 -.153E+04   0.347E+02 0.708E+02 0.153E+04   0.206E+00 -.108E+00 0.651E+00   0.508E-01 0.215E-01 0.403E-01
   -.498E+02 0.297E+02 0.303E+04   0.503E+02 -.292E+02 -.303E+04   -.407E+00 -.581E+00 -.196E+01   -.417E-01 0.513E-01 0.394E-01
   -.483E+02 0.766E+02 0.803E+02   0.487E+02 -.763E+02 -.804E+02   -.354E+00 -.361E+00 -.119E-01   0.101E-01 0.717E-01 0.253E-01
   0.708E+00 0.621E+02 -.157E+02   -.745E+00 -.611E+02 0.156E+02   0.103E+00 -.826E+00 0.369E-02   -.360E-01 -.173E+00 -.359E-01
   0.520E+02 0.396E+01 -.297E+02   -.517E+02 -.329E+01 0.297E+02   -.382E+00 -.609E+00 -.124E-01   0.712E-01 -.956E-01 0.445E-02
   0.166E+02 -.560E+02 0.311E+02   -.170E+02 0.556E+02 -.314E+02   0.376E+00 0.483E+00 0.139E+00   -.444E-01 -.330E-01 0.556E-01
   0.590E+00 0.236E+00 -.346E+03   -.573E+00 -.256E+00 0.347E+03   -.268E-01 -.116E-01 -.163E+01   -.130E-02 -.209E-02 -.583E-03
 -----------------------------------------------------------------------------------------------
   -.199E+01 -.804E+00 -.410E+01   -.364E-12 0.427E-12 -.126E-10   0.206E+01 0.797E+00 0.291E+01   -.386E-01 -.857E-02 0.118E+01
 
 
 POSITION                                       TOTAL-FORCE (eV/Angst)
 -----------------------------------------------------------------------------------
     13.07059      8.11538      6.96059        -0.005321      0.003833     -0.010956
      5.15502      8.14343      6.92133         0.022386      0.008821     -0.018107
      5.00338      3.51981      7.01250         0.021922     -0.009016     -0.001214
     14.45013      8.88711      9.27326         0.009246     -0.012905      0.013465
      3.75909      4.27666      9.38237         0.011520      0.018985     -0.009267
      6.45716      8.87505      9.22764        -0.003746     -0.006360      0.008900
     11.78657      4.22795      9.33202        -0.008557     -0.005527      0.012748
      9.10691      8.88319      9.21046        -0.001766      0.019244     -0.007254
     10.44040      1.94662      9.20903         0.013761      0.003263     -0.014502
      2.46745      1.95108      9.26482        -0.026694     -0.025511     -0.016037
     11.77656      8.86937      9.28126        -0.012761      0.004729     -0.006160
     13.10948      6.56551      9.35266         0.003615     -0.012385     -0.019629
      5.10943      1.93238      9.31331         0.021392     -0.022488     -0.002975
      7.77088      6.58880      9.35099         0.023325     -0.015654      0.001579
      9.12832      4.23429      9.32698         0.008723      0.031084      0.024680
      5.10367      6.56368      9.33416         0.016174      0.005396      0.025526
      7.78175      1.94040      9.25091        -0.001908     -0.008891      0.001094
      7.85448      3.46933      6.97171         0.001884      0.007867      0.012262
      6.36276      1.15618      6.91206        -0.003462      0.011538      0.015591
      6.49878      1.12701      0.91783        -0.020059      0.018572      0.009377
      3.73329      4.24365      2.82304         0.003571     -0.005861     -0.029452
      1.19705      1.26142      6.89305         0.005302     -0.006189      0.002061
      1.14169      1.20489      0.75465        -0.010544      0.005970     -0.012470
      6.49937      8.84078      2.91411         0.000365      0.006917     -0.007449
      6.42658      4.24437      9.32748        -0.010489      0.006992      0.000423
      7.76553      5.03994      4.81818        -0.018990     -0.007517      0.009267
     10.45434      6.58275      9.33567        -0.017769     -0.021222      0.027571
     14.39647      7.27671      4.85624        -0.002580     -0.001669     -0.014675
     11.79073      5.75098      7.01461        -0.019476     -0.012036      0.001180
      6.48393      5.83174      6.99647         0.009831     -0.018234     -0.001646
      3.64730      2.58151      4.95659         0.007911      0.001033     -0.004605
     10.45552      5.07562      4.86650         0.020684     -0.005965      0.011947
      3.79509      5.82481      7.13736         0.009287      0.005868     -0.002645
     13.07897      7.95618      0.95883        -0.013277     -0.003304      0.041493
      5.21380      7.98656      0.86284         0.016166      0.008680      0.018785
      3.83131      5.83197      0.85600         0.029606     -0.016153     -0.012137
      7.88243      2.06346      2.84612        -0.025269     -0.009163      0.019044
      9.16289      8.80794      2.87612         0.018958      0.004533      0.020376
      2.42730      3.53982      7.12413        -0.010935      0.008948     -0.002117
      2.32870      3.51838      0.86299         0.026286      0.011474     -0.035290
     10.44688      1.98709      2.84009        -0.015337     -0.000346     -0.010073
     13.08109      5.02410      4.92602         0.003088     -0.003220     -0.014860
      3.78628      1.07215      7.05333         0.007489     -0.003640      0.006650
      9.11917      5.80482      7.10816         0.001452     -0.004569     -0.017316
      3.77122      1.06783      0.90415        -0.009729      0.022321     -0.007349
      9.18715      5.77316      0.99286        -0.016881      0.015709     -0.022764
      5.17420      3.52548      0.87003         0.025932      0.010026      0.026099
     11.72362      8.75176      2.92245        -0.008386      0.001101      0.025732
     11.76482      7.32086      4.84913        -0.002190      0.000146      0.003305
     12.97800      6.50322      2.85234        -0.000004     -0.005992     -0.022818
      9.13171      4.24465      2.81404         0.002370      0.025774      0.010326
      7.83592      8.08618      6.98892         0.006614      0.000996      0.003504
      7.89763      8.01872      0.91379        -0.012971      0.016048      0.002862
     10.49038      6.60126      2.83869         0.007334     -0.016973      0.011587
      2.55599      0.24985      4.99986         0.003514     -0.003081     -0.001651
      7.83460      3.52101      0.79067        -0.024424      0.002616      0.001012
      5.12642      1.88462      2.93503        -0.015763      0.005477      0.008567
      5.21667      6.50564      2.92065         0.021297     -0.014861     -0.030610
      7.78415      0.46666      4.84655        -0.000246      0.000259     -0.008767
      9.14539      1.19477      6.95563        -0.001572      0.004533     -0.008748
     10.39158      8.05462      6.97409         0.010545      0.005324      0.003428
      9.15068      1.13559      0.78976        -0.024585      0.008379      0.004808
     10.46124      8.03092      0.81477        -0.016120      0.020202      0.016074
      5.11233      5.00599      4.92503        -0.003744      0.003317     -0.016213
     11.72365      2.74969      4.87429         0.003814      0.003429      0.004937
     14.43470      8.90066      2.85261        -0.002066     -0.005082     -0.003335
      9.16917      2.67766      4.92041         0.000181      0.004192     -0.005937
      6.43510      2.70246      4.85924        -0.008427     -0.002382     -0.004872
     11.76877      4.21925      2.83668        -0.022105     -0.001191     -0.009923
      2.46431      1.90348      2.84561        -0.014020      0.006889     -0.002517
     11.75684      5.74003      0.91295        -0.011127      0.014965     -0.018601
      6.52258      5.80409      0.95833         0.002535     -0.026982     -0.006066
      7.91412      6.57792      2.85270         0.012337     -0.018286      0.020711
      6.48211      4.16784      2.79146        -0.001896      0.008450      0.017184
     10.47487      3.50868      7.03731         0.011884      0.005090      0.009078
     10.44539      3.47942      0.90065        -0.002830     -0.016301     -0.036382
     10.47034      0.49197      4.87118        -0.001767      0.000449      0.006508
      9.13480      7.34896      4.95305         0.006293     -0.000357      0.001875
      6.54416      7.35864      4.94201         0.015050     -0.002725      0.005049
      5.08746      0.26747      4.89847        -0.002746      0.005592     -0.002914
      9.10681      5.77390     10.34581        -0.011109     -0.032990      0.013638
 -----------------------------------------------------------------------------------
    total drift:                                0.022823     -0.015012     -0.013346


--------------------------------------------------------------------------------------------------------



  FREE ENERGIE OF THE ION-ELECTRON SYSTEM (eV)
  ---------------------------------------------------
  free  energy   TOTEN  =      -510.29240038 eV

  energy  without entropy=     -510.31708945  energy(sigma->0) =     -510.30063007
 
 d Force = 0.1627530E-02[ 0.401E-03, 0.285E-02]  d Energy = 0.1614666E-02 0.129E-04
 d Force =-0.7643938E+01[-0.764E+01,-0.765E+01]  d Ewald  =-0.7643946E+01 0.810E-05


--------------------------------------------------------------------------------------------------------


    POTLOK:  cpu time    0.5134: real time    0.5151


--------------------------------------------------------------------------------------------------------


 Conjugate gradient step on ions:
 trial-energy change:   -0.001615  1 .order   -0.001628   -0.002854   -0.000401
  (g-gl).g = 0.200E-02      g.g   = 0.189E-02  gl.gl    = 0.316E-02
 g(Force)  = 0.189E-02   g(Stress)= 0.000E+00 ortho     =-0.953E-04
 gamma     =   0.63250
 trial     =   1.55760
 opt step  =   1.81217  (harmonic =   1.81217) maximal distance =0.01317538
 next E    =  -510.292446   (d E  =  -0.00166)


--------------------------------------------------------------------------------------------------------


  
 reached required accuracy - stopping structural energy minimisation
     LOOP+:  cpu time  680.2251: real time  683.9321
    4ORBIT:  cpu time    0.0000: real time    0.0000

 total amount of memory used by VASP MPI-rank0   231983. kBytes
=======================================================================

   base      :      30000. kBytes
   nonlr-proj:      34033. kBytes
   fftplans  :      16133. kBytes
   grid      :      49182. kBytes
   one-center:        653. kBytes
   wavefun   :     101982. kBytes
 
  
  
 General timing and accounting informations for this job:
 ========================================================
  
                  Total CPU time used (sec):    12854.074
                            User time (sec):    12450.904
                          System time (sec):      403.171
                         Elapsed time (sec):    12945.279
  
                   Maximum memory used (kb):      389656.
                   Average memory used (kb):           0.
  
                          Minor page faults:     13246756
                          Major page faults:          208
                 Voluntary context switches:         8304
