 vasp.5.4.4.18Apr17-6-g9f103f2a35 (build Nov 06 2019 15:09:28) complex          
  
 executed on             LinuxIFC date 2022.03.05  12:31:51
 running on   80 total cores
 each image running on   40 cores
 distrk:  each k-point on   40 cores,    1 groups
 distr:  one band on NCORES_PER_BAND=   4 cores,   10 groups


--------------------------------------------------------------------------------------------------------


 INCAR:
 POTCAR:    PAW_PBE Pt 04Feb2005                  
 POTCAR:    PAW_PBE Fe 06Sep2000                  
 POTCAR:    PAW_PBE Co 02Aug2007                  
 POTCAR:    PAW_PBE Cu 22Jun2005                  
 POTCAR:    PAW_PBE Ni 02Aug2007                  
 POTCAR:    PAW_PBE O 08Apr2002                   
 POTCAR:    PAW_PBE Pt 04Feb2005                  
   VRHFIN =Pt: s1d9                                                             
   LEXCH  = PE                                                                  
   EATOM  =   729.1176 eV,   53.5886 Ry                                         
                                                                                
   TITEL  = PAW_PBE Pt 04Feb2005                                                
   LULTRA =        F    use ultrasoft PP ?                                      
   IUNSCR =        1    unscreen: 0-lin 1-nonlin 2-no                           
   RPACOR =    2.330    partial core radius                                     
   POMASS =  195.080; ZVAL   =   10.000    mass and valenz                      
   RCORE  =    2.600    outmost cutoff radius                                   
   RWIGS  =    2.750; RWIGS  =    1.455    wigner-seitz radius (au A)           
   ENMAX  =  230.283; ENMIN  =  172.712 eV                                      
   ICORE  =        3    local potential                                         
   LCOR   =        T    correct aug charges                                     
   LPAW   =        T    paw PP                                                  
   EAUG   =  358.966                                                            
   DEXC   =    0.000                                                            
   RMAX   =    2.658    core radius for proj-oper                               
   RAUG   =    1.300    factor for augmentation sphere                          
   RDEP   =    2.761    radius for radial grids                                 
   RDEPT  =    2.203    core radius for aug-charge                              
                                                                                
   Atomic configuration                                                         
   16 entries                                                                   
     n  l   j            E        occ.                                          
     1  0  0.50    -78401.1885   2.0000                                         
     2  0  0.50    -13770.7750   2.0000                                         
     2  1  1.50    -11931.0468   6.0000                                         
     3  0  0.50     -3234.7234   2.0000                                         
     3  1  1.50     -2699.2216   6.0000                                         
     3  2  2.50     -2119.5714  10.0000                                         
     4  0  0.50      -695.1528   2.0000                                         
     4  1  1.50      -519.6034   6.0000                                         
     4  2  2.50      -306.6786  10.0000                                         
     4  3  3.50       -70.1041  14.0000                                         
     5  0  0.50      -101.7747   2.0000                                         
     5  1  1.50       -55.9873   6.0000                                         
     5  2  2.50        -6.1423   9.0000                                         
     6  0  0.50        -5.6573   1.0000                                         
     6  1  1.50        -6.8029   0.0000                                         
     5  3  2.50        -1.3606   0.0000                                         
   Description                                                                  
     l       E           TYP  RCUT    TYP  RCUT                                 
     2     -6.1423404     23  2.500                                             
     2     -7.5029230     23  2.500                                             
     0     -5.6573207     23  2.500                                             
     0      0.7416693     23  2.500                                             
     1     -2.7211652     23  2.600                                             
     1     20.4087390     23  2.600                                             
     3     -1.3605826     23  2.500                                             
  local pseudopotential read in
  partial core-charges read in
  partial kinetic energy density read in
  atomic valenz-charges read in
  non local Contribution for L=           2  read in
    real space projection operators read in
  non local Contribution for L=           2  read in
    real space projection operators read in
  non local Contribution for L=           0  read in
    real space projection operators read in
  non local Contribution for L=           0  read in
    real space projection operators read in
  non local Contribution for L=           1  read in
    real space projection operators read in
  non local Contribution for L=           1  read in
    real space projection operators read in
    PAW grid and wavefunctions read in
 
   number of l-projection  operators is LMAX  =           6
   number of lm-projection operators is LMMAX =          18
 
 POTCAR:    PAW_PBE Fe 06Sep2000                  
   VRHFIN =Fe:  d7 s1                                                           
   LEXCH  = PE                                                                  
   EATOM  =   594.3153 eV,   43.6809 Ry                                         
                                                                                
   TITEL  = PAW_PBE Fe 06Sep2000                                                
   LULTRA =        F    use ultrasoft PP ?                                      
   IUNSCR =        1    unscreen: 0-lin 1-nonlin 2-no                           
   RPACOR =    2.000    partial core radius                                     
   POMASS =   55.847; ZVAL   =    8.000    mass and valenz                      
   RCORE  =    2.300    outmost cutoff radius                                   
   RWIGS  =    2.460; RWIGS  =    1.302    wigner-seitz radius (au A)           
   ENMAX  =  267.882; ENMIN  =  200.911 eV                                      
   RCLOC  =    1.701    cutoff for local pot                                    
   LCOR   =        T    correct aug charges                                     
   LPAW   =        T    paw PP                                                  
   EAUG   =  511.368                                                            
   DEXC   =    0.000                                                            
   RMAX   =    2.356    core radius for proj-oper                               
   RAUG   =    1.300    factor for augmentation sphere                          
   RDEP   =    2.442    radius for radial grids                                 
   RDEPT  =    1.890    core radius for aug-charge                              
                                                                                
   Atomic configuration                                                         
    9 entries                                                                   
     n  l   j            E        occ.                                          
     1  0  0.50     -6993.8440   2.0000                                         
     2  0  0.50      -814.6047   2.0000                                         
     2  1  1.50      -693.3689   6.0000                                         
     3  0  0.50       -89.4732   2.0000                                         
     3  1  1.50       -55.6373   6.0000                                         
     3  2  2.50        -3.8151   7.0000                                         
     4  0  0.50        -4.2551   1.0000                                         
     4  1  1.50        -3.4015   0.0000                                         
     4  3  2.50        -1.3606   0.0000                                         
   Description                                                                  
     l       E           TYP  RCUT    TYP  RCUT                                 
     2     -3.8151135     23  2.300                                             
     2     -5.1756961     23  2.300                                             
     0     -4.2550963     23  2.300                                             
     0      7.2035603     23  2.300                                             
     1     -2.7211652     23  2.300                                             
     1     18.4316424     23  2.300                                             
  local pseudopotential read in
  partial core-charges read in
  partial kinetic energy density read in
  atomic valenz-charges read in
  non local Contribution for L=           2  read in
    real space projection operators read in
  non local Contribution for L=           2  read in
    real space projection operators read in
  non local Contribution for L=           0  read in
    real space projection operators read in
  non local Contribution for L=           0  read in
    real space projection operators read in
  non local Contribution for L=           1  read in
    real space projection operators read in
  non local Contribution for L=           1  read in
    real space projection operators read in
    PAW grid and wavefunctions read in
 
   number of l-projection  operators is LMAX  =           6
   number of lm-projection operators is LMMAX =          18
 
 POTCAR:    PAW_PBE Co 02Aug2007                  
   VRHFIN =Co: d8 s1                                                            
   LEXCH  = PE                                                                  
   EATOM  =   813.3670 eV,   59.7808 Ry                                         
                                                                                
   TITEL  = PAW_PBE Co 02Aug2007                                                
   LULTRA =        F    use ultrasoft PP ?                                      
   IUNSCR =        1    unscreen: 0-lin 1-nonlin 2-no                           
   RPACOR =    2.000    partial core radius                                     
   POMASS =   58.933; ZVAL   =    9.000    mass and valenz                      
   RCORE  =    2.300    outmost cutoff radius                                   
   RWIGS  =    2.460; RWIGS  =    1.302    wigner-seitz radius (au A)           
   ENMAX  =  267.968; ENMIN  =  200.976 eV                                      
   RCLOC  =    1.203    cutoff for local pot                                    
   LCOR   =        T    correct aug charges                                     
   LPAW   =        T    paw PP                                                  
   EAUG   =  477.818                                                            
   DEXC   =    0.000                                                            
   RMAX   =    2.360    core radius for proj-oper                               
   RAUG   =    1.300    factor for augmentation sphere                          
   RDEP   =    2.393    radius for radial grids                                 
   RDEPT  =    1.864    core radius for aug-charge                              
                                                                                
   Atomic configuration                                                         
    9 entries                                                                   
     n  l   j            E        occ.                                          
     1  0  0.50     -7587.6674   2.0000                                         
     2  0  0.50      -893.6084   2.0000                                         
     2  1  1.50      -764.5805   6.0000                                         
     3  0  0.50       -97.5973   2.0000                                         
     3  1  1.50       -60.9648   6.0000                                         
     3  2  2.50        -4.2382   8.0000                                         
     4  0  0.50        -4.3746   1.0000                                         
     4  1  1.50        -4.0817   0.0000                                         
     4  3  2.50        -1.3606   0.0000                                         
   Description                                                                  
     l       E           TYP  RCUT    TYP  RCUT                                 
     2     -4.2382362     23  2.300                                             
     2     -5.5988188     23  2.300                                             
     0     -4.3745797     23  2.300                                             
     0      5.7660125     23  2.300                                             
     1     -2.7211652     23  2.300                                             
     1     16.9860234     23  2.300                                             
  local pseudopotential read in
  partial core-charges read in
  partial kinetic energy density read in
  atomic valenz-charges read in
  non local Contribution for L=           2  read in
    real space projection operators read in
  non local Contribution for L=           2  read in
    real space projection operators read in
  non local Contribution for L=           0  read in
    real space projection operators read in
  non local Contribution for L=           0  read in
    real space projection operators read in
  non local Contribution for L=           1  read in
    real space projection operators read in
  non local Contribution for L=           1  read in
    real space projection operators read in
    PAW grid and wavefunctions read in
 
   number of l-projection  operators is LMAX  =           6
   number of lm-projection operators is LMMAX =          18
 
 POTCAR:    PAW_PBE Cu 22Jun2005                  
   VRHFIN =Cu: d10 p1                                                           
   LEXCH  = PE                                                                  
   EATOM  =  1390.9808 eV,  102.2342 Ry                                         
                                                                                
   TITEL  = PAW_PBE Cu 22Jun2005                                                
   LULTRA =        F    use ultrasoft PP ?                                      
   IUNSCR =        1    unscreen: 0-lin 1-nonlin 2-no                           
   RPACOR =    2.000    partial core radius                                     
   POMASS =   63.546; ZVAL   =   11.000    mass and valenz                      
   RCORE  =    2.300    outmost cutoff radius                                   
   RWIGS  =    2.200; RWIGS  =    1.164    wigner-seitz radius (au A)           
   ENMAX  =  295.446; ENMIN  =  221.585 eV                                      
   ICORE  =        3    local potential                                         
   LCOR   =        T    correct aug charges                                     
   LPAW   =        T    paw PP                                                  
   EAUG   =  586.980                                                            
   DEXC   =    0.000                                                            
   RMAX   =    2.344    core radius for proj-oper                               
   RAUG   =    1.300    factor for augmentation sphere                          
   RDEP   =    2.302    radius for radial grids                                 
   RDEPT  =    1.771    core radius for aug-charge                              
                                                                                
   Atomic configuration                                                         
    9 entries                                                                   
     n  l   j            E        occ.                                          
     1  0  0.50     -8850.2468   2.0000                                         
     2  0  0.50     -1062.3498   2.0000                                         
     2  1  1.50      -916.8226   6.0000                                         
     3  0  0.50      -114.6929   2.0000                                         
     3  1  1.50       -72.1325   6.0000                                         
     3  2  2.50        -5.0394  10.0000                                         
     4  0  0.50        -4.6097   1.0000                                         
     4  1  0.50        -4.0817   0.0000                                         
     4  3  2.50        -1.3606   0.0000                                         
   Description                                                                  
     l       E           TYP  RCUT    TYP  RCUT                                 
     2     -5.0393973     23  2.200                                             
     2     10.8846608     23  2.200                                             
     0     -4.6097109     23  2.200                                             
     0      8.2520465     23  2.200                                             
     1     -2.7211652     23  2.200                                             
     1     21.7055443     23  2.200                                             
     3      2.7211652     23  2.300                                             
  local pseudopotential read in
  partial core-charges read in
  partial kinetic energy density read in
  atomic valenz-charges read in
  non local Contribution for L=           2  read in
    real space projection operators read in
  non local Contribution for L=           2  read in
    real space projection operators read in
  non local Contribution for L=           0  read in
    real space projection operators read in
  non local Contribution for L=           0  read in
    real space projection operators read in
  non local Contribution for L=           1  read in
    real space projection operators read in
  non local Contribution for L=           1  read in
    real space projection operators read in
    PAW grid and wavefunctions read in
 
   number of l-projection  operators is LMAX  =           6
   number of lm-projection operators is LMMAX =          18
 
 POTCAR:    PAW_PBE Ni 02Aug2007                  
   VRHFIN =Ni:                                                                  
   LEXCH  = PE                                                                  
   EATOM  =  1077.6739 eV,   79.2068 Ry                                         
                                                                                
   TITEL  = PAW_PBE Ni 02Aug2007                                                
   LULTRA =        F    use ultrasoft PP ?                                      
   IUNSCR =        1    unscreen: 0-lin 1-nonlin 2-no                           
   RPACOR =    2.000    partial core radius                                     
   POMASS =   58.690; ZVAL   =   10.000    mass and valenz                      
   RCORE  =    2.300    outmost cutoff radius                                   
   RWIGS  =    2.430; RWIGS  =    1.286    wigner-seitz radius (au A)           
   ENMAX  =  269.532; ENMIN  =  202.149 eV                                      
   RCLOC  =    1.201    cutoff for local pot                                    
   LCOR   =        T    correct aug charges                                     
   LPAW   =        T    paw PP                                                  
   EAUG   =  544.565                                                            
   DEXC   =    0.000                                                            
   RMAX   =    2.357    core radius for proj-oper                               
   RAUG   =    1.300    factor for augmentation sphere                          
   RDEP   =    2.390    radius for radial grids                                 
   RDEPT  =    1.838    core radius for aug-charge                              
                                                                                
   Atomic configuration                                                         
    9 entries                                                                   
     n  l   j            E        occ.                                          
     1  0  0.50     -8206.4253   2.0000                                         
     2  0  0.50      -976.1748   2.0000                                         
     2  1  1.50      -839.0571   6.0000                                         
     3  0  0.50      -105.9991   2.0000                                         
     3  1  1.50       -66.4603   6.0000                                         
     3  2  2.50        -4.6458   9.0000                                         
     4  0  0.50        -4.4926   1.0000                                         
     4  1  1.50        -4.0817   0.0000                                         
     4  3  2.50        -1.3606   0.0000                                         
   Description                                                                  
     l       E           TYP  RCUT    TYP  RCUT                                 
     2     -4.6457903     23  2.300                                             
     2     -6.0063729     23  2.300                                             
     0     -4.4925590     23  2.300                                             
     0      5.0102601     23  2.300                                             
     1     -2.7211652     23  2.300                                             
     1     16.5183231     23  2.300                                             
  local pseudopotential read in
  partial core-charges read in
  partial kinetic energy density read in
  atomic valenz-charges read in
  non local Contribution for L=           2  read in
    real space projection operators read in
  non local Contribution for L=           2  read in
    real space projection operators read in
  non local Contribution for L=           0  read in
    real space projection operators read in
  non local Contribution for L=           0  read in
    real space projection operators read in
  non local Contribution for L=           1  read in
    real space projection operators read in
  non local Contribution for L=           1  read in
    real space projection operators read in
    PAW grid and wavefunctions read in
 
   number of l-projection  operators is LMAX  =           6
   number of lm-projection operators is LMMAX =          18
 
 POTCAR:    PAW_PBE O 08Apr2002                   
   VRHFIN =O: s2p4                                                              
   LEXCH  = PE                                                                  
   EATOM  =   432.3788 eV,   31.7789 Ry                                         
                                                                                
   TITEL  = PAW_PBE O 08Apr2002                                                 
   LULTRA =        F    use ultrasoft PP ?                                      
   IUNSCR =        1    unscreen: 0-lin 1-nonlin 2-no                           
   RPACOR =    1.200    partial core radius                                     
   POMASS =   16.000; ZVAL   =    6.000    mass and valenz                      
   RCORE  =    1.520    outmost cutoff radius                                   
   RWIGS  =    1.550; RWIGS  =    0.820    wigner-seitz radius (au A)           
   ENMAX  =  400.000; ENMIN  =  300.000 eV                                      
   ICORE  =        2    local potential                                         
   LCOR   =        T    correct aug charges                                     
   LPAW   =        T    paw PP                                                  
   EAUG   =  605.392                                                            
   DEXC   =    0.000                                                            
   RMAX   =    1.553    core radius for proj-oper                               
   RAUG   =    1.300    factor for augmentation sphere                          
   RDEP   =    1.550    radius for radial grids                                 
   RDEPT  =    1.329    core radius for aug-charge                              
                                                                                
   Atomic configuration                                                         
    4 entries                                                                   
     n  l   j            E        occ.                                          
     1  0  0.50      -514.6923   2.0000                                         
     2  0  0.50       -23.9615   2.0000                                         
     2  1  0.50        -9.0305   4.0000                                         
     3  2  1.50        -9.5241   0.0000                                         
   Description                                                                  
     l       E           TYP  RCUT    TYP  RCUT                                 
     0    -23.9615318     23  1.200                                             
     0     -9.5240782     23  1.200                                             
     1     -9.0304911     23  1.520                                             
     1      8.1634956     23  1.520                                             
     2     -9.5240782      7  1.500                                             
  local pseudopotential read in
  partial core-charges read in
  partial kinetic energy density read in
  kinetic energy density of atom read in
  atomic valenz-charges read in
  non local Contribution for L=           0  read in
    real space projection operators read in
  non local Contribution for L=           0  read in
    real space projection operators read in
  non local Contribution for L=           1  read in
    real space projection operators read in
  non local Contribution for L=           1  read in
    real space projection operators read in
    PAW grid and wavefunctions read in
 
   number of l-projection  operators is LMAX  =           4
   number of lm-projection operators is LMMAX =           8
 
 Optimization of the real space projectors (new method)

 maximal supplied QI-value         = 14.36
 optimisation between [QCUT,QGAM] = [ 11.92, 23.98] = [ 39.79,161.09] Ry 
 Optimized for a Real-space Cutoff    1.49 Angstroem

   l    n(q)    QCUT    max X(q) W(low)/X(q) W(high)/X(q)  e(spline) 
   2     10    11.920    66.195    0.79E-04    0.18E-03    0.24E-06
   2     10    11.920    64.643    0.81E-04    0.19E-03    0.24E-06
   0     11    11.920    95.520    0.28E-04    0.54E-04    0.18E-06
   0     11    11.920    63.403    0.27E-04    0.52E-04    0.17E-06
   1     10    11.920    19.961    0.18E-04    0.11E-03    0.23E-06
   1     10    11.920    13.289    0.25E-04    0.87E-04    0.19E-06
 Optimization of the real space projectors (new method)

 maximal supplied QI-value         = 16.25
 optimisation between [QCUT,QGAM] = [ 11.86, 23.89] = [ 39.41,159.82] Ry 
 Optimized for a Real-space Cutoff    1.49 Angstroem

   l    n(q)    QCUT    max X(q) W(low)/X(q) W(high)/X(q)  e(spline) 
   2     10    11.864    80.901    0.13E-03    0.23E-03    0.37E-06
   2     10    11.864    75.754    0.13E-03    0.23E-03    0.38E-06
   0     11    11.864    58.752    0.44E-04    0.11E-04    0.20E-06
   0     11    11.864    30.679    0.36E-04    0.10E-04    0.18E-06
   1     10    11.864    17.977    0.31E-04    0.45E-04    0.10E-06
   1     10    11.864    13.559    0.25E-04    0.37E-04    0.89E-07
 Optimization of the real space projectors (new method)

 maximal supplied QI-value         = 16.25
 optimisation between [QCUT,QGAM] = [ 11.86, 23.89] = [ 39.41,159.82] Ry 
 Optimized for a Real-space Cutoff    1.33 Angstroem

   l    n(q)    QCUT    max X(q) W(low)/X(q) W(high)/X(q)  e(spline) 
   2      9    11.864    65.824    0.22E-03    0.53E-03    0.26E-06
   2      9    11.864    61.429    0.22E-03    0.53E-03    0.26E-06
   0      9    11.864    56.174    0.21E-03    0.32E-04    0.15E-06
   0      9    11.864    31.263    0.19E-03    0.30E-04    0.14E-06
   1      9    11.864    19.828    0.63E-04    0.30E-03    0.16E-06
   1      9    11.864    15.139    0.49E-04    0.25E-03    0.13E-06
 Optimization of the real space projectors (new method)

 maximal supplied QI-value         = 16.25
 optimisation between [QCUT,QGAM] = [ 11.86, 23.89] = [ 39.41,159.82] Ry 
 Optimized for a Real-space Cutoff    1.49 Angstroem

   l    n(q)    QCUT    max X(q) W(low)/X(q) W(high)/X(q)  e(spline) 
   2     10    11.864     4.610    0.10E-03    0.20E-03    0.29E-06
   2     10    11.864     8.522    0.17E-03    0.33E-03    0.50E-06
   0     11    11.864    51.609    0.52E-04    0.55E-04    0.33E-06
   0     11    11.864    27.747    0.46E-04    0.52E-04    0.31E-06
   1     10    11.864    20.408    0.54E-04    0.25E-04    0.21E-06
   1     10    11.864    13.425    0.48E-04    0.22E-04    0.18E-06
 Optimization of the real space projectors (new method)

 maximal supplied QI-value         = 16.25
 optimisation between [QCUT,QGAM] = [ 11.86, 23.89] = [ 39.41,159.82] Ry 
 Optimized for a Real-space Cutoff    1.33 Angstroem

   l    n(q)    QCUT    max X(q) W(low)/X(q) W(high)/X(q)  e(spline) 
   2      9    11.864    60.317    0.21E-03    0.51E-03    0.25E-06
   2      9    11.864    55.921    0.21E-03    0.51E-03    0.26E-06
   0      9    11.864    51.690    0.22E-03    0.30E-04    0.17E-06
   0      9    11.864    30.015    0.20E-03    0.28E-04    0.15E-06
   1      9    11.864    18.849    0.76E-04    0.33E-03    0.17E-06
   1      9    11.864    14.624    0.60E-04    0.28E-03    0.15E-06
 Optimization of the real space projectors (new method)

 maximal supplied QI-value         = 24.76
 optimisation between [QCUT,QGAM] = [ 11.88, 24.01] = [ 39.54,161.47] Ry 
 Optimized for a Real-space Cutoff    1.18 Angstroem

   l    n(q)    QCUT    max X(q) W(low)/X(q) W(high)/X(q)  e(spline) 
   0      8    11.883    20.381    0.86E-04    0.11E-03    0.31E-06
   0      8    11.883    15.268    0.94E-04    0.12E-03    0.33E-06
   1      8    11.883     5.964    0.19E-03    0.18E-04    0.33E-06
   1      8    11.883     5.382    0.17E-03    0.20E-04    0.29E-06
  PAW_PBE Pt 04Feb2005                  :
 energy of atom  1       EATOM= -729.1176
 kinetic energy error for atom=    0.0021 (will be added to EATOM!!)
  PAW_PBE Fe 06Sep2000                  :
 energy of atom  2       EATOM= -594.3153
 kinetic energy error for atom=    0.0024 (will be added to EATOM!!)
  PAW_PBE Co 02Aug2007                  :
 energy of atom  3       EATOM= -813.3670
 kinetic energy error for atom=    0.0026 (will be added to EATOM!!)
  PAW_PBE Cu 22Jun2005                  :
 energy of atom  4       EATOM=-1390.9808
 kinetic energy error for atom=    0.0036 (will be added to EATOM!!)
  PAW_PBE Ni 02Aug2007                  :
 energy of atom  5       EATOM=-1077.6739
 kinetic energy error for atom=    0.0027 (will be added to EATOM!!)
  PAW_PBE O 08Apr2002                   :
 energy of atom  6       EATOM= -432.3788
 kinetic energy error for atom=    0.0194 (will be added to EATOM!!)
 
 
 POSCAR: Pt   Fe   Co   Cu   Ni   O              
  positions in direct lattice
  No initial velocities read in
 exchange correlation table for  LEXCH =        8
   RHO(1)=    0.500       N(1)  =     2000
   RHO(2)=  100.500       N(2)  =     4000

 VTST: version 3.2, (02/03/18)

 CHAIN: initializing optimizer
 
 OPT: Using VASP QUASI-newton optimizer
 CHAIN: Read ICHAIN            0
 CHAIN: Running the NEB
 NEB:          SPRING     -5.000000
 NEB:          LCLIMB      T
 NEB:     LTANGENTOLD      F
 NEB:           LDNEB      F
 NEB:        LDNEBORG      F
 NEB:        LNEBCELL      F
 NEB:          EFIRST      0.000000
 NEB:           ELAST      0.000000
 
 POSCAR: Pt   Fe   Co   Cu   Ni   O              
  positions in direct lattice
  No initial velocities read in
 
 POSCAR: Pt   Fe   Co   Cu   Ni   O              
  positions in direct lattice
  No initial velocities read in
 


--------------------------------------------------------------------------------------------------------


 ion  position               nearest neighbor table
   1  0.786  0.878  0.319-  19 2.62  49 2.64  61 2.64  29 2.66  33 2.66  28 2.66  60 2.68  59 2.69
                             2 2.73  11 2.75   4 2.80  12 2.82
   2  0.042  0.882  0.315-  79 2.54  77 2.59  60 2.62  28 2.64  30 2.65  52 2.66  33 2.68  22 2.69
                             1 2.73   6 2.76   4 2.81  16 2.90
   3  0.281  0.377  0.322-  39 2.56  33 2.61  64 2.64  31 2.66  19 2.68  43 2.69  30 2.73  68 2.75
                            13 2.75   5 2.77  18 2.82  25 2.83
   4  0.877  0.963  0.423-   6 2.61   9 2.62  16 2.63  11 2.64  17 2.66  12 2.67  60 2.78   1 2.80
                             2 2.81
   5  0.119  0.465  0.428-  12 2.58   7 2.61  16 2.63  13 2.64  10 2.65  25 2.69  33 2.72  39 2.75
                             3 2.77
   6  0.125  0.961  0.421-   8 2.61   4 2.61  14 2.64  16 2.64  10 2.65   9 2.65   2 2.76  52 2.77
                            22 2.85
   7  0.874  0.461  0.426-  15 2.61   5 2.61   9 2.62  10 2.63  12 2.64  27 2.65  39 2.69  75 2.77
                            29 2.79
   8  0.372  0.959  0.419-  43 2.59  14 2.59   6 2.61  27 2.64  10 2.65  52 2.66  13 2.70  11 2.71
                            61 2.71
   9  0.874  0.212  0.420-  17 2.60   4 2.62   7 2.62  10 2.64  15 2.64   6 2.65  75 2.68  60 2.72
                            22 2.80
  10  0.123  0.213  0.421-  13 2.62   7 2.63   9 2.64   6 2.65   5 2.65  39 2.65   8 2.65  43 2.72
                            22 2.76
  11  0.629  0.958  0.426-  81 1.94  12 2.61  27 2.64   4 2.64   8 2.71  17 2.71  13 2.74   1 2.75
                            19 2.88  61 2.89
  12  0.875  0.710  0.427-   5 2.58  11 2.61  16 2.63   7 2.64  27 2.66   4 2.67  33 2.69   1 2.82
                            29 2.84
  13  0.370  0.216  0.428-  81 1.93  10 2.62   5 2.64  25 2.66   8 2.70  17 2.71  11 2.74   3 2.75
                            43 2.85  19 2.91
  14  0.375  0.713  0.423-   8 2.59  27 2.61  25 2.61  15 2.64   6 2.64  16 2.66  44 2.70  52 2.75
                            30 2.77
  15  0.626  0.464  0.423-  27 2.60   7 2.61  17 2.62  14 2.64   9 2.64  25 2.65  44 2.69  75 2.73
                            18 2.75
  16  0.124  0.712  0.427-  25 2.61   5 2.63   4 2.63  12 2.63   6 2.64  14 2.66  33 2.69  30 2.84
                             2 2.90
  17  0.626  0.216  0.428-  81 2.49   9 2.60  15 2.62  25 2.66   4 2.66  13 2.71  11 2.71  18 2.81
                            60 2.87  19 3.01
  18  0.550  0.373  0.319-  60 2.57  67 2.58  75 2.60  44 2.65  68 2.68  26 2.70  19 2.72  30 2.72
                            15 2.75  17 2.81   3 2.82  25 2.87
  19  0.535  0.124  0.315-  80 2.55  43 2.57  68 2.57  59 2.59   1 2.62  61 2.63   3 2.68  18 2.72
                            60 2.74  11 2.88  13 2.91  17 3.01
  20  0.547  0.124  0.040-  37 2.55  57 2.56  48 2.58  62 2.64  63 2.68  47 2.68  45 2.68  56 2.70
                            34 2.71
  21  0.121  0.460  0.128-  40 2.52  36 2.53  47 2.53  42 2.60  69 2.61  64 2.62  70 2.64  50 2.64
                            58 2.67  31 2.70  57 2.71  74 2.72
  22  0.043  0.136  0.314-  65 2.51  55 2.53  77 2.56  43 2.58  39 2.58  75 2.61  60 2.69   2 2.69
                            52 2.73  10 2.76   9 2.80   6 2.85  31 3.39
  23  0.042  0.130  0.033-  70 2.58  40 2.60  41 2.61  45 2.62  62 2.64  76 2.64  24 2.69  35 2.73
                            53 2.78
  24  0.130  0.958  0.132-  79 2.51  77 2.54  35 2.57  53 2.57  55 2.58  70 2.62  38 2.64  58 2.64
                            73 2.65  23 2.69  66 2.70  41 2.72
  25  0.373  0.466  0.426-  16 2.61  14 2.61  15 2.65  13 2.66  17 2.66   5 2.69  30 2.82   3 2.83
                            18 2.87
  26  0.455  0.546  0.219-  73 2.50  74 2.54  51 2.56  79 2.61  64 2.63  30 2.64  68 2.67  78 2.67
                            32 2.68  18 2.70  67 2.72  44 2.74
  27  0.623  0.711  0.423-  15 2.60  14 2.61   8 2.64  11 2.64   7 2.65  12 2.66  44 2.69  61 2.75
                            29 2.77
  28  0.956  0.790  0.221-  58 2.57  66 2.57  50 2.58  42 2.59  49 2.61  64 2.63   2 2.64   1 2.66
                            59 2.70  33 2.72  79 2.76  77 2.77
  29  0.794  0.622  0.319-  39 2.53  42 2.55  75 2.57  32 2.61  44 2.65  33 2.65   1 2.66  61 2.68
                            49 2.68  27 2.77   7 2.79  12 2.84
  30  0.291  0.630  0.318-  79 2.56  64 2.59  52 2.62  44 2.63  26 2.64   2 2.65  33 2.65  18 2.72
                             3 2.73  14 2.77  25 2.82  16 2.84
  31  0.203  0.281  0.225-  70 2.52  55 2.56  65 2.57  43 2.59  57 2.60  39 2.65   3 2.66  80 2.70
                            21 2.70  42 2.71  68 2.75  64 2.79  22 3.39
  32  0.706  0.549  0.221-  54 2.53  69 2.56  51 2.58  49 2.59  42 2.60  29 2.61  78 2.62  65 2.63
                            75 2.68  26 2.68  44 2.69  67 2.70
  33  0.041  0.630  0.325-   3 2.61  39 2.63  29 2.65  30 2.65   1 2.66   2 2.68  12 2.69  16 2.69
                            64 2.70   5 2.72  28 2.72  42 2.72
  34  0.797  0.862  0.042-  50 2.38  66 2.51  48 2.53  36 2.55  71 2.56  63 2.61  20 2.71  35 2.76
                            62 2.76
  35  0.056  0.866  0.038-  58 2.54  72 2.55  36 2.56  24 2.57  66 2.62  53 2.65  23 2.73  62 2.73
                            34 2.76
  36  0.046  0.628  0.037-  21 2.53  34 2.55  35 2.56  58 2.58  50 2.61  47 2.63  72 2.64  40 2.69
                            71 2.72
  37  0.627  0.222  0.129-  51 2.51  74 2.51  67 2.52  56 2.53  41 2.55  20 2.55  68 2.56  59 2.56
                            62 2.59  66 2.66  57 2.73  48 2.89
  38  0.382  0.955  0.130-  53 2.47  80 2.48  45 2.49  78 2.53  48 2.54  73 2.55  63 2.55  54 2.56
                            55 2.59  57 2.62  24 2.64  70 2.67
  39  0.036  0.384  0.324-  29 2.53   3 2.56  22 2.58  75 2.59  33 2.63  42 2.65  10 2.65  31 2.65
                             7 2.69  65 2.74   5 2.75  43 2.81
  40  0.031  0.382  0.038-  69 2.44  21 2.52  71 2.53  76 2.56  70 2.57  23 2.60  36 2.69  45 2.78
                            47 2.78
  41  0.872  0.215  0.128-  76 2.45  65 2.52  77 2.53  67 2.54  37 2.55  69 2.57  62 2.57  51 2.59
                            23 2.61  70 2.65  66 2.66  24 2.72
  42  0.955  0.545  0.224-  29 2.55  50 2.56  28 2.59  21 2.60  32 2.60  69 2.61  49 2.63  65 2.64
                            39 2.65  64 2.65  31 2.71  33 2.72
  43  0.297  0.114  0.320-  55 2.51  52 2.53  61 2.55  19 2.57  22 2.58  31 2.59   8 2.59  80 2.64
                             3 2.69  10 2.72  39 2.81  13 2.85
  44  0.541  0.629  0.322-  61 2.56  52 2.58  30 2.63  78 2.63  29 2.65  75 2.65  18 2.65  32 2.69
                            27 2.69  15 2.69  14 2.70  26 2.74
  45  0.295  0.119  0.039-  70 2.49  38 2.49  57 2.57  53 2.60  23 2.62  63 2.64  20 2.68  47 2.75
                            40 2.78
  46  0.548  0.625  0.044-  51 2.38  73 2.39  54 2.41  71 2.56  53 2.56  63 2.58  76 2.59  56 2.62
                            72 2.64
  47  0.296  0.379  0.039-  74 2.41  21 2.53  57 2.61  72 2.61  56 2.62  36 2.63  20 2.68  45 2.75
                            40 2.78
  48  0.625  0.950  0.132-  49 2.40  80 2.48  54 2.48  34 2.53  38 2.54  59 2.55  50 2.56  63 2.57
                            20 2.58  57 2.65  66 2.68  37 2.89
  49  0.706  0.794  0.220-  48 2.40  50 2.48  54 2.49  80 2.53  32 2.59  28 2.61  78 2.61  61 2.63
                            42 2.63   1 2.64  29 2.68  59 2.69
  50  0.866  0.706  0.129-  34 2.38  71 2.42  54 2.48  49 2.48  42 2.56  48 2.56  69 2.58  28 2.58
                            36 2.61  21 2.64  66 2.76  58 2.85
  51  0.626  0.460  0.127-  46 2.38  76 2.45  37 2.51  56 2.52  26 2.56  32 2.58  41 2.59  73 2.60
                            69 2.62  74 2.62  67 2.63  54 2.69
  52  0.298  0.874  0.318-  55 2.44  78 2.52  79 2.53  61 2.53  43 2.53  44 2.58  30 2.62   8 2.66
                             2 2.66  22 2.73  14 2.75   6 2.77
  53  0.306  0.868  0.040-  73 2.42  38 2.47  63 2.55  46 2.56  24 2.57  45 2.60  72 2.61  35 2.65
                            23 2.78
  54  0.627  0.715  0.128-  46 2.41  71 2.46  50 2.48  48 2.48  63 2.48  49 2.49  32 2.53  38 2.56
                            73 2.56  78 2.62  69 2.68  51 2.69
  55  0.224  0.028  0.227-  52 2.44  78 2.45  79 2.49  43 2.51  22 2.53  80 2.53  31 2.56  24 2.58
                            38 2.59  77 2.72  70 2.72  65 2.86
  56  0.543  0.381  0.035-  74 2.50  51 2.52  37 2.53  72 2.59  76 2.60  46 2.62  47 2.62  20 2.70
                            62 2.70
  57  0.378  0.205  0.133-  68 2.46  80 2.54  20 2.56  45 2.57  31 2.60  47 2.61  38 2.62  74 2.62
                            70 2.64  48 2.65  21 2.71  37 2.73
  58  0.136  0.705  0.132-  72 2.47  64 2.52  35 2.54  79 2.57  28 2.57  36 2.58  74 2.64  24 2.64
                            73 2.67  21 2.67  66 2.76  50 2.85
  59  0.705  0.050  0.220-  66 2.52  48 2.55  37 2.56  68 2.58  67 2.58  19 2.59  60 2.62  77 2.66
                            80 2.67   1 2.69  49 2.69  28 2.70
  60  0.792  0.129  0.317-  67 2.54  18 2.57  77 2.58  59 2.62   2 2.62  75 2.65   1 2.68  22 2.69
                             9 2.72  19 2.74   4 2.78  17 2.87
  61  0.538  0.873  0.317-  78 2.48  52 2.53  80 2.54  43 2.55  44 2.56  49 2.63  19 2.63   1 2.64
                            29 2.68   8 2.71  27 2.75  11 2.89
  62  0.797  0.123  0.035-  66 2.54  41 2.57  37 2.59  23 2.64  20 2.64  76 2.66  56 2.70  35 2.73
                            34 2.76
  63  0.546  0.870  0.036-  54 2.48  53 2.55  38 2.55  48 2.57  46 2.58  34 2.61  71 2.61  45 2.64
                            20 2.68
  64  0.207  0.543  0.224-  58 2.52  30 2.59  21 2.62  26 2.63  28 2.63   3 2.64  68 2.65  42 2.65
                            74 2.68  33 2.70  79 2.72  31 2.79
  65  0.952  0.297  0.221-  22 2.51  41 2.52  69 2.52  67 2.54  77 2.55  31 2.57  70 2.60  75 2.61
                            32 2.63  42 2.64  39 2.74  55 2.86
  66  0.872  0.964  0.129-  34 2.51  59 2.52  62 2.54  28 2.57  77 2.58  35 2.62  37 2.66  41 2.66
                            48 2.68  24 2.70  50 2.76  58 2.76
  67  0.714  0.290  0.223-  37 2.52  77 2.53  60 2.54  65 2.54  41 2.54  18 2.58  59 2.58  75 2.62
                            51 2.63  32 2.70  68 2.70  26 2.72
  68  0.458  0.291  0.221-  57 2.46  74 2.54  37 2.56  19 2.57  59 2.58  64 2.65  26 2.67  18 2.68
                            67 2.70  80 2.73   3 2.75  31 2.75
  69  0.876  0.457  0.128-  40 2.44  71 2.45  76 2.46  65 2.52  32 2.56  41 2.57  50 2.58  21 2.61
                            42 2.61  51 2.62  70 2.65  54 2.68
  70  0.128  0.207  0.129-  45 2.49  31 2.52  40 2.57  23 2.58  65 2.60  24 2.62  57 2.64  21 2.64
                            69 2.65  41 2.65  38 2.67  55 2.72
  71  0.792  0.622  0.040-  50 2.42  69 2.45  54 2.46  40 2.53  46 2.56  34 2.56  76 2.59  63 2.61
                            36 2.72
  72  0.298  0.625  0.042-  74 2.44  58 2.47  73 2.49  35 2.55  56 2.59  53 2.61  47 2.61  36 2.64
                            46 2.64
  73  0.386  0.711  0.129-  46 2.39  53 2.42  72 2.49  26 2.50  78 2.55  38 2.55  54 2.56  51 2.60
                            79 2.63  24 2.65  58 2.67  74 2.76
  74  0.382  0.452  0.126-  47 2.41  72 2.44  56 2.50  37 2.51  68 2.54  26 2.54  51 2.62  57 2.62
                            58 2.64  64 2.68  21 2.72  73 2.76
  75  0.793  0.379  0.320-  29 2.57  39 2.59  18 2.60  22 2.61  65 2.61  67 2.62  60 2.65  44 2.65
                            32 2.68   9 2.68  15 2.73   7 2.77
  76  0.791  0.377  0.039-  51 2.45  41 2.45  69 2.46  40 2.56  71 2.59  46 2.59  56 2.60  23 2.64
                            62 2.66
  77  0.956  0.053  0.221-  67 2.53  41 2.53  24 2.54  65 2.55  22 2.56  66 2.58  60 2.58   2 2.59
                            59 2.66  79 2.71  55 2.72  28 2.77
  78  0.458  0.797  0.224-  55 2.45  61 2.48  80 2.49  52 2.52  38 2.53  73 2.55  79 2.58  49 2.61
                            54 2.62  32 2.62  44 2.63  26 2.67
  79  0.213  0.798  0.225-  55 2.49  24 2.51  52 2.53   2 2.54  30 2.56  58 2.57  78 2.58  26 2.61
                            73 2.63  77 2.71  64 2.72  28 2.76
  80  0.462  0.030  0.222-  38 2.48  48 2.48  78 2.49  55 2.53  49 2.53  61 2.54  57 2.54  19 2.55
                            43 2.64  59 2.67  31 2.70  68 2.73
  81  0.512  0.098  0.488-  13 1.93  11 1.94  17 2.49
 
  LATTYP: Found a hexagonal cell.
 ALAT       =    10.5600004196
 C/A-ratio  =     2.0833332505
  
  Lattice vectors:
  
 A1 = (   5.2800002098,  -9.1452286274,   0.0000000000)
 A2 = ( -10.5600004196,   0.0000000000,   0.0000000000)
 A3 = (   0.0000000000,   0.0000000000, -22.0000000000)


Analysis of symmetry for initial positions (statically):
=====================================================================
 Subroutine PRICEL returns:
 Original cell was already a primitive cell.
 

 Routine SETGRP: Setting up the symmetry group for a 
 hexagonal supercell.


 Subroutine GETGRP returns: Found  1 space group operations
 (whereof  1 operations were pure point group operations)
 out of a pool of 24 trial point group operations.


The static configuration has the point symmetry C_1 .


Analysis of symmetry for dynamics (positions and initial velocities):
=====================================================================
 Subroutine PRICEL returns:
 Original cell was already a primitive cell.
 

 Routine SETGRP: Setting up the symmetry group for a 
 hexagonal supercell.


 Subroutine GETGRP returns: Found  1 space group operations
 (whereof  1 operations were pure point group operations)
 out of a pool of 24 trial point group operations.


The dynamic configuration has the point symmetry C_1 .


Analysis of constrained symmetry for selective dynamics:
=====================================================================
 Subroutine PRICEL returns:
 Original cell was already a primitive cell.
 

 Routine SETGRP: Setting up the symmetry group for a 
 hexagonal supercell.


 Subroutine GETGRP returns: Found  1 space group operations
 (whereof  1 operations were pure point group operations)
 out of a pool of 24 trial point group operations.


The constrained configuration has the point symmetry C_1 .


Analysis of structural, dynamic, and magnetic symmetry:
=====================================================================
 Subroutine PRICEL returns:
 Original cell was already a primitive cell.
 

 Routine SETGRP: Setting up the symmetry group for a 
 hexagonal supercell.


 Subroutine GETGRP returns: Found  1 space group operations
 (whereof  1 operations were pure point group operations)
 out of a pool of 24 trial point group operations.


The magnetic configuration has the point symmetry C_1 .


 Subroutine INISYM returns: Found  1 space group operations
 (whereof  1 operations are pure point group operations),
 and found     1 'primitive' translations

 
 
 KPOINTS: mesh auto                               

Automatic generation of k-mesh.
Space group operators:
 irot       det(A)        alpha          n_x          n_y          n_z        tau_x        tau_y        tau_z
    1     1.000000     0.000001     1.000000     0.000000     0.000000     0.000000     0.000000     0.000000
 
 Subroutine IBZKPT returns following result:
 ===========================================
 
 Found      4 irreducible k-points:
 
 Following reciprocal coordinates:
            Coordinates               Weight
  0.000000  0.000000  0.000000      1.000000
  0.500000  0.000000  0.000000      1.000000
  0.000000  0.500000  0.000000      1.000000
  0.500000  0.500000  0.000000      1.000000
 
 Following cartesian coordinates:
            Coordinates               Weight
  0.000000  0.000000  0.000000      1.000000
  0.047348 -0.027337  0.000000      1.000000
  0.000000  0.054673  0.000000      1.000000
  0.047348  0.027337  0.000000      1.000000
 


--------------------------------------------------------------------------------------------------------




 Dimension of arrays:
   k-points           NKPTS =      4   k-points in BZ     NKDIM =      4   number of bands    NBANDS=    590
   number of dos      NEDOS =    301   number of ions     NIONS =     81
   non local maximal  LDIM  =      6   non local SUM 2l+1 LMDIM =     18
   total plane-waves  NPLWV = ******
   max r-space proj   IRMAX =   7802   max aug-charges    IRDMAX=  33988
   dimension x,y,z NGX =    84 NGY =   84 NGZ =  168
   dimension x,y,z NGXF=   168 NGYF=  168 NGZF=  336
   support grid    NGXF=   168 NGYF=  168 NGZF=  336
   ions per type =              32  13  10  13  12   1
   NGX,Y,Z   is equivalent  to a cutoff of  13.22, 13.22, 12.70 a.u.
   NGXF,Y,Z  is equivalent  to a cutoff of  26.45, 26.45, 25.39 a.u.

 SYSTEM =  Pt111                                   
 POSCAR =  Pt   Fe   Co   Cu   Ni   O              

 Startparameter for this run:
   NWRITE =      2    write-flag & timer
   PREC   = accura    normal or accurate (medium, high low for compatibility)
   ISTART =      0    job   : 0-new  1-cont  2-samecut
   ICHARG =      2    charge: 1-file 2-atom 10-const
   ISPIN  =      2    spin polarized calculation?
   LNONCOLLINEAR =      F non collinear calculations
   LSORBIT =      F    spin-orbit coupling
   INIWAV =      1    electr: 0-lowe 1-rand  2-diag
   LASPH  =      F    aspherical Exc in radial PAW
   METAGGA=      F    non-selfconsistent MetaGGA calc.

 Electronic Relaxation 1
   ENCUT  =  550.0 eV  40.42 Ry    6.36 a.u.  20.19 20.19 42.07*2*pi/ulx,y,z
   ENINI  =  550.0     initial cutoff
   ENAUG  =  605.4 eV  augmentation charge cutoff
   NELM   =    200;   NELMIN=  2; NELMDL= -5     # of ELM steps 
   EDIFF  = 0.1E-04   stopping-criterion for ELM
   LREAL  =      T    real-space projection
   NLSPLINE    = F    spline interpolate recip. space projectors
   LCOMPAT=      F    compatible to vasp.4.4
   GGA_COMPAT  = T    GGA compatible to vasp.4.4-vasp.4.6
   LMAXPAW     = -100 max onsite density
   LMAXMIX     =    2 max onsite mixed and CHGCAR
   VOSKOWN=      0    Vosko Wilk Nusair interpolation
   ROPT   =   -0.00025  -0.00025  -0.00025  -0.00025
   ROPT   =   -0.00025  -0.00025
 Ionic relaxation
   EDIFFG = -.2E-01   stopping-criterion for IOM
   NSW    =    300    number of steps for IOM
   NBLOCK =      1;   KBLOCK =    300    inner block; outer block 
   IBRION =      1    ionic relax: 0-MD 1-quasi-New 2-CG
   NFREE  =      0    steps in history (QN), initial steepest desc. (CG)
   ISIF   =      2    stress and relaxation
   IWAVPR =     11    prediction:  0-non 1-charg 2-wave 3-comb
   ISYM   =      2    0-nonsym 1-usesym 2-fastsym
   LCORR  =      T    Harris-Foulkes like correction to forces

   POTIM  = 0.5000    time-step for ionic-motion
   TEIN   =    0.0    initial temperature
   TEBEG  =    0.0;   TEEND  =   0.0 temperature during run
   SMASS  =  -3.00    Nose mass-parameter (am)
   estimated Nose-frequenzy (Omega)   =  0.10E-29 period in steps =****** mass=  -0.255E-26a.u.
   SCALEE = 1.0000    scale energy and forces
   NPACO  =    256;   APACO  = 16.0  distance and # of slots for P.C.
   PSTRESS=    0.0 pullay stress

  Mass of Ions in am
   POMASS = 195.08 55.85 58.93 63.55 58.69 16.00
  Ionic Valenz
   ZVAL   =  10.00  8.00  9.00 11.00 10.00  6.00
  Atomic Wigner-Seitz radii
   RWIGS  =  -1.00 -1.00 -1.00 -1.00 -1.00 -1.00
  virtual crystal weights 
   VCA    =   1.00  1.00  1.00  1.00  1.00  1.00
   NELECT =     783.0000    total number of electrons
   NUPDOWN=      -1.0000    fix difference up-down

 DOS related values:
   EMIN   =  10.00;   EMAX   =-10.00  energy-range for DOS
   EFERMI =   0.00
   ISMEAR =     1;   SIGMA  =   0.10  broadening in eV -4-tet -1-fermi 0-gaus

 Electronic relaxation 2 (details)
   IALGO  =     68    algorithm
   LDIAG  =      T    sub-space diagonalisation (order eigenvalues)
   LSUBROT=      F    optimize rotation matrix (better conditioning)
   TURBO    =      0    0=normal 1=particle mesh
   IRESTART =      0    0=no restart 2=restart with 2 vectors
   NREBOOT  =      0    no. of reboots
   NMIN     =      0    reboot dimension
   EREF     =   0.00    reference energy to select bands
   IMIX   =      4    mixing-type and parameters
     AMIX     =   0.40;   BMIX     =  1.00
     AMIX_MAG =   1.60;   BMIX_MAG =  1.00
     AMIN     =   0.10
     WC   =   100.;   INIMIX=   1;  MIXPRE=   1;  MAXMIX= -45

 Intra band minimization:
   WEIMIN = 0.0010     energy-eigenvalue tresh-hold
   EBREAK =  0.42E-08  absolut break condition
   DEPER  =   0.30     relativ break condition  

   TIME   =   0.40     timestep for ELM

  volume/ion in A,a.u.               =      26.23       177.01
  Fermi-wavevector in a.u.,A,eV,Ry     =   1.173730  2.218029 18.743972  1.377643
  Thomas-Fermi vector in A             =   2.310139
 
 Write flags
   LWAVE        =      F    write WAVECAR
   LDOWNSAMPLE  =      F    k-point downsampling of WAVECAR
   LCHARG       =      F    write CHGCAR
   LVTOT        =      F    write LOCPOT, total local potential
   LVHAR        =      F    write LOCPOT, Hartree potential only
   LELF         =      F    write electronic localiz. function (ELF)
   LORBIT       =      0    0 simple, 1 ext, 2 COOP (PROOUT), +10 PAW based schemes


 Dipole corrections
   LMONO  =      F    monopole corrections only (constant potential shift)
   LDIPOL =      F    correct potential (dipole corrections)
   IDIPOL =      0    1-x, 2-y, 3-z, 4-all directions 
   EPSILON=  1.0000000 bulk dielectric constant

 Exchange correlation treatment:
   GGA     =    --    GGA type
   LEXCH   =     8    internal setting for exchange type
   VOSKOWN=      0    Vosko Wilk Nusair interpolation
   LHFCALC =     F    Hartree Fock is set to
   LHFONE  =     F    Hartree Fock one center treatment
   AEXX    =    0.0000 exact exchange contribution

 Linear response parameters
   LEPSILON=     F    determine dielectric tensor
   LRPA    =     F    only Hartree local field effects (RPA)
   LNABLA  =     F    use nabla operator in PAW spheres
   LVEL    =     F    velocity operator in full k-point grid
   LINTERFAST=   F  fast interpolation
   KINTER  =     0    interpolate to denser k-point grid
   CSHIFT  =0.1000    complex shift for real part using Kramers Kronig
   OMEGAMAX=  -1.0    maximum frequency
   DEG_THRESHOLD= 0.2000000E-02 threshold for treating states as degnerate
   RTIME   =   -0.100 relaxation time in fs
  (WPLASMAI=    0.000 imaginary part of plasma frequency in eV, 0.658/RTIME)
   DFIELD  = 0.0000000 0.0000000 0.0000000 field for delta impulse in time
 
 Orbital magnetization related:
   ORBITALMAG=     F  switch on orbital magnetization
   LCHIMAG   =     F  perturbation theory with respect to B field
   DQ        =  0.001000  dq finite difference perturbation B field
   LLRAUG    =     F  two centre corrections for induced B field



--------------------------------------------------------------------------------------------------------


 quasi-Newton-method for relaxation of ions
   using selective dynamics as specified on POSCAR
 charge density and potential will be updated during run
 spin polarized calculation
 RMM-DIIS sequential band-by-band and
  variant of blocked Davidson during initial phase
 perform sub-space diagonalisation
    before iterative eigenvector-optimisation
 modified Broyden-mixing scheme, WC =      100.0
 initial mixing is a Kerker type mixing with AMIX =  0.4000 and BMIX =      1.0000
 Hartree-type preconditioning will be used
 using additional bands          198
 real space projection scheme for non local part
 use partial core corrections
 calculate Harris-corrections to forces 
   (improved forces if not selfconsistent)
 use gradient corrections 
 use of overlap-Matrix (Vanderbilt PP)
 Methfessel and Paxton  Order N= 1 SIGMA  =   0.10


--------------------------------------------------------------------------------------------------------


  energy-cutoff  :      550.00
  volume of cell :     2124.62
      direct lattice vectors                 reciprocal lattice vectors
    10.560000420  0.000000000  0.000000000     0.094696966 -0.054673319  0.000000000
     5.280000210  9.145228627  0.000000000     0.000000000  0.109346638  0.000000000
     0.000000000  0.000000000 22.000000000     0.000000000  0.000000000  0.045454545

  length of vectors
    10.560000420 10.560000420 22.000000000     0.109346638  0.109346638  0.045454545


 
 k-points in units of 2pi/SCALE and weight: mesh auto                               
   0.00000000  0.00000000  0.00000000       0.250
   0.04734848 -0.02733666  0.00000000       0.250
   0.00000000  0.05467332  0.00000000       0.250
   0.04734848  0.02733666  0.00000000       0.250
 
 k-points in reciprocal lattice and weights: mesh auto                               
   0.00000000  0.00000000  0.00000000       0.250
   0.50000000  0.00000000  0.00000000       0.250
   0.00000000  0.50000000  0.00000000       0.250
   0.50000000  0.50000000  0.00000000       0.250
 
 position of ions in fractional coordinates (direct lattice) 
   0.78582725  0.87779336  0.31915059
   0.04194937  0.88189587  0.31543858
   0.28114027  0.37667910  0.32197846
   0.87713495  0.96255223  0.42304937
   0.11926010  0.46517564  0.42810892
   0.12455640  0.96145358  0.42098417
   0.87408790  0.46051913  0.42601017
   0.37241399  0.95945626  0.41899499
   0.87382704  0.21240350  0.41990784
   0.12348579  0.21259586  0.42087626
   0.62938214  0.95785763  0.42598791
   0.87539431  0.71031237  0.42659913
   0.36977135  0.21623070  0.42765446
   0.37529515  0.71258468  0.42305019
   0.62574136  0.46366590  0.42285378
   0.12401226  0.71163249  0.42679864
   0.62643304  0.21589021  0.42820115
   0.54958046  0.37330944  0.31864945
   0.53523101  0.12360342  0.31473280
   0.54700026  0.12353325  0.03994180
   0.12080895  0.46017830  0.12803950
   0.04270030  0.13639036  0.31376062
   0.04244149  0.13021000  0.03298030
   0.13048322  0.95798537  0.13183245
   0.37325017  0.46617210  0.42628723
   0.45454095  0.54571928  0.21885182
   0.62318340  0.71137980  0.42251464
   0.95571501  0.79013093  0.22104486
   0.79436077  0.62199541  0.31859185
   0.29119969  0.62957268  0.31781666
   0.20263023  0.28057175  0.22546492
   0.70645161  0.54939058  0.22075077
   0.04062833  0.62988448  0.32534594
   0.79731809  0.86162656  0.04207609
   0.05609859  0.86571859  0.03774080
   0.04641287  0.62819901  0.03699114
   0.62737558  0.22224168  0.12875060
   0.38211413  0.95500403  0.12988305
   0.03551089  0.38381697  0.32368284
   0.03114053  0.38167600  0.03750461
   0.87224044  0.21539432  0.12829500
   0.95471211  0.54518808  0.22389055
   0.29706376  0.11417220  0.32040611
   0.54055000  0.62888386  0.32150707
   0.29525378  0.11938697  0.03940923
   0.54825113  0.62531765  0.04365578
   0.29553136  0.37948250  0.03889216
   0.62548736  0.94995762  0.13208615
   0.70634189  0.79434825  0.22010408
   0.86572308  0.70559157  0.12880862
   0.62619676  0.46010837  0.12710353
   0.29797984  0.87423252  0.31775211
   0.30581838  0.86812735  0.04029659
   0.62671135  0.71465279  0.12827184
   0.22389857  0.02823957  0.22731031
   0.54269301  0.38102257  0.03461701
   0.37824999  0.20530955  0.13259126
   0.13618402  0.70497383  0.13178299
   0.70486941  0.05028396  0.22036332
   0.79225449  0.12873942  0.31726983
   0.53826670  0.87261131  0.31678958
   0.79655062  0.12311547  0.03453465
   0.54614634  0.87048754  0.03589640
   0.20722235  0.54282065  0.22417055
   0.95151324  0.29672189  0.22129229
   0.87185770  0.96385702  0.12897658
   0.71421099  0.29004436  0.22334568
   0.45764413  0.29147175  0.22083053
   0.87581008  0.45650690  0.12794668
   0.12769165  0.20692390  0.12876336
   0.79229095  0.62176839  0.04024823
   0.29784859  0.62540744  0.04208964
   0.38567508  0.71146547  0.12891873
   0.38207648  0.45160905  0.12649526
   0.79261440  0.37921021  0.31971077
   0.79092480  0.37725959  0.03945628
   0.95559961  0.05293444  0.22143250
   0.45755740  0.79715593  0.22440887
   0.21315004  0.79768722  0.22457904
   0.46239859  0.03021630  0.22200270
   0.51243249  0.09802941  0.48794782
 
 position of ions in cartesian coordinates  (Angst):
  12.93308521  8.02762101  7.02131305
   5.09939575  8.06513938  6.93964878
   4.95770707  3.44481646  7.08352602
  14.34482143  8.80276019  9.30708606
   3.71551419  4.25413760  9.41839618
   6.39179074  8.79271277  9.26165175
  11.66190965  4.21155271  9.37222383
   8.99862116  8.77444688  9.21788988
  10.34910444  1.94247861  9.23797258
   2.42651618  1.94423772  9.25927767
  11.70376417  8.75982699  9.37173403
  12.99461373  6.49596903  9.38518094
   5.04648372  1.97747918  9.40839814
   7.72556426  6.51674985  9.30710410
   9.05598510  4.24033066  9.30278325
   5.06698923  6.50804182  9.38957005
   7.75503358  1.97436535  9.42042522
   7.77464381  3.41400019  7.01028784
   6.30466583  1.13038157  6.92412168
   6.42857854  1.12973983  0.87871960
   3.70548407  4.20843578  2.81686897
   1.17105631  1.24732104  6.90273357
   1.13569097  1.19080020  0.72556650
   6.43606578  8.76099519  2.90031393
   6.40291076  4.26325047  9.37831909
   7.68135056  4.99072754  4.81474005
  10.33690253  6.50573096  9.29532200
  14.26424239  7.22592798  4.86298700
  11.67258601  5.68829027  7.00902079
   6.39921270  5.75758612  6.99196654
   3.62119418  2.56589278  4.96022829
  10.36091172  5.02430245  4.85651690
   3.75482541  5.76043759  7.15761059
  12.96906778  7.87977186  0.92567400
   5.16339550  7.91719447  0.83029765
   3.80701088  5.74502359  0.81380505
   7.79852245  2.03245096  2.83251312
   9.07754686  8.73373018  2.85742705
   2.40154873  3.51009396  7.12102240
   2.34409331  3.49051425  0.82510140
  10.34814148  1.96983035  2.82248993
  12.96035349  4.98586960  4.92559202
   3.73982269  1.04413089  7.04893445
   9.02871515  5.75128671  7.07315546
   3.74824325  1.09182115  0.86700304
   9.09120953  5.71867289  0.96042722
   5.12447898  3.47045423  0.85562744
  11.62092318  8.68757958  2.90589533
  11.65312961  7.26449633  4.84228978
  12.86755974  6.45279623  2.83378953
   9.04201027  4.20779619  2.79627770
   7.76261516  7.99505627  6.99054632
   7.81315482  7.93922313  0.88652503
  10.39143898  6.53566319  2.82198042
   2.51347389  0.25825733  5.00082675
   7.74263770  3.48453850  0.76157429
   5.07835445  1.87760273  2.91700770
   5.16036530  6.44714688  2.89922570
   7.70892058  0.45985829  4.84799308
   9.04595185  1.17735139  6.97993628
  10.29148454  7.98022996  6.96937071
   9.06162455  1.12591908  0.75976228
  10.36347996  7.96080760  0.78972076
   5.05436124  4.96421897  4.93175206
  11.61467189  2.71358951  4.86843040
  14.29598293  8.81469279  2.83748465
   9.07350258  2.65252196  4.91360499
   6.37169315  2.66557579  4.85827162
  11.65891135  4.17485993  2.81482702
   2.44098212  1.89236634  2.83279397
  11.64953004  5.68621407  0.88546096
   6.44743266  5.71949403  0.92597203
   7.82926683  6.50651440  2.83621200
   6.41922371  4.13006800  2.78289578
  10.37223834  3.46796407  7.03363685
  10.34409694  3.45012521  0.86803825
  10.37062613  0.48409754  4.87151493
   9.04078979  7.29017323  4.93699507
   6.46265315  7.29503196  4.94073890
   5.04247138  0.27633499  4.88405930
   5.92888267  0.89650137 10.73485206
 


--------------------------------------------------------------------------------------------------------


 k-point  1 :   0.0000 0.0000 0.0000  plane waves:   62167
 k-point  2 :   0.5000 0.0000 0.0000  plane waves:   62242
 k-point  3 :   0.0000 0.5000 0.0000  plane waves:   62242
 k-point  4 :   0.5000 0.5000 0.0000  plane waves:   62242

 maximum and minimum number of plane-waves per node :     15586    15521

 maximum number of plane-waves:     62242
 maximum index in each direction: 
   IXMAX=   20   IYMAX=   20   IZMAX=   42
   IXMIN=  -20   IYMIN=  -20   IZMIN=  -42


 real space projection operators:
  total allocation   :      77909.77 KBytes
  max/ min on nodes  :      19488.33      19462.62


 parallel 3D FFT for wavefunctions:
    minimum data exchange during FFTs selected (reduces bandwidth)
 parallel 3D FFT for charge:
    minimum data exchange during FFTs selected (reduces bandwidth)


 total amount of memory used by VASP MPI-rank0   259172. kBytes
=======================================================================

   base      :      30000. kBytes
   nonlr-proj:      34718. kBytes
   fftplans  :      17962. kBytes
   grid      :      55536. kBytes
   one-center:        653. kBytes
   wavefun   :     120303. kBytes
 
     INWAV:  cpu time    0.0000: real time    0.0000
 Broyden mixing: mesh for mixing (old mesh)
   NGX = 41   NGY = 41   NGZ = 85
  (NGX  =168   NGY  =168   NGZ  =336)
  gives a total of 142885 points

 initial charge density was supplied:
 charge density of overlapping atoms calculated
 number of electron     783.0000000 magnetization     231.0000000
 keeping initial charge density in first step


--------------------------------------------------------------------------------------------------------


 Maximum index for non-local projection operator         1902
 Maximum index for augmentation-charges         2095 (set IRDMAX)


--------------------------------------------------------------------------------------------------------


 First call to EWALD:  gamma=   0.138
 Maximum number of real-space cells 4x 4x 2
 Maximum number of reciprocal cells 2x 2x 4

    FEWALD:  cpu time    0.0032: real time    0.0032


--------------------------------------- Iteration      1(   1)  ---------------------------------------


    POTLOK:  cpu time    0.4285: real time    0.4628
    SETDIJ:  cpu time    0.0318: real time    0.0320
     EDDAV:  cpu time   65.4707: real time   65.6524
       DOS:  cpu time    0.0018: real time    0.0048
    --------------------------------------------
      LOOP:  cpu time   65.9327: real time   66.1521

 eigenvalue-minimisations  :  9440
 total energy-change (2. order) : 0.8022269E+04  (-0.3316627E+05)
 number of electron     783.0000000 magnetization     231.0000000
 augmentation part      783.0000000 magnetization     231.0000000

 Free energy of the ion-electron system (eV)
  ---------------------------------------------------
  alpha Z        PSCENC =      2260.99135963
  Ewald energy   TEWEN  =    223343.17285089
  -Hartree energ DENC   =   -296035.77349507
  -exchange      EXHF   =         0.00000000
  -V(xc)+E(xc)   XCENC  =      1413.14138134
  PAW double counting   =     64481.21551665   -66384.91400299
  entropy T*S    EENTRO =         0.00610169
  eigenvalues    EBANDS =      8305.90285766
  atomic energy  EATOM  =     70638.52643764
  Solvation  Ediel_sol  =         0.00000000
  ---------------------------------------------------
  free energy    TOTEN  =      8022.26900744 eV

  energy without entropy =     8022.26290575  energy(sigma->0) =     8022.26697354


--------------------------------------------------------------------------------------------------------




--------------------------------------- Iteration      1(   2)  ---------------------------------------


     EDDAV:  cpu time   65.0012: real time   65.1549
       DOS:  cpu time    0.0018: real time    0.0038
    --------------------------------------------
      LOOP:  cpu time   65.0030: real time   65.1588

 eigenvalue-minimisations  :  9440
 total energy-change (2. order) :-0.7127016E+04  (-0.6371203E+04)
 number of electron     783.0000000 magnetization     231.0000000
 augmentation part      783.0000000 magnetization     231.0000000

 Free energy of the ion-electron system (eV)
  ---------------------------------------------------
  alpha Z        PSCENC =      2260.99135963
  Ewald energy   TEWEN  =    223343.17285089
  -Hartree energ DENC   =   -296035.77349507
  -exchange      EXHF   =         0.00000000
  -V(xc)+E(xc)   XCENC  =      1413.14138134
  PAW double counting   =     64481.21551665   -66384.91400299
  entropy T*S    EENTRO =         0.00152895
  eigenvalues    EBANDS =      1178.89172017
  atomic energy  EATOM  =     70638.52643764
  Solvation  Ediel_sol  =         0.00000000
  ---------------------------------------------------
  free energy    TOTEN  =       895.25329721 eV

  energy without entropy =      895.25176826  energy(sigma->0) =      895.25278756


--------------------------------------------------------------------------------------------------------




--------------------------------------- Iteration      1(   3)  ---------------------------------------


     EDDAV:  cpu time   65.0432: real time   65.1973
       DOS:  cpu time    0.0018: real time    0.0038
    --------------------------------------------
      LOOP:  cpu time   65.0450: real time   65.2011

 eigenvalue-minimisations  :  9440
 total energy-change (2. order) :-0.1260925E+04  (-0.1025971E+04)
 number of electron     783.0000000 magnetization     231.0000000
 augmentation part      783.0000000 magnetization     231.0000000

 Free energy of the ion-electron system (eV)
  ---------------------------------------------------
  alpha Z        PSCENC =      2260.99135963
  Ewald energy   TEWEN  =    223343.17285089
  -Hartree energ DENC   =   -296035.77349507
  -exchange      EXHF   =         0.00000000
  -V(xc)+E(xc)   XCENC  =      1413.14138134
  PAW double counting   =     64481.21551665   -66384.91400299
  entropy T*S    EENTRO =        -0.01530716
  eigenvalues    EBANDS =       -82.01649514
  atomic energy  EATOM  =     70638.52643764
  Solvation  Ediel_sol  =         0.00000000
  ---------------------------------------------------
  free energy    TOTEN  =      -365.67175421 eV

  energy without entropy =     -365.65644705  energy(sigma->0) =     -365.66665182


--------------------------------------------------------------------------------------------------------




--------------------------------------- Iteration      1(   4)  ---------------------------------------


     EDDAV:  cpu time   77.2771: real time   77.4604
       DOS:  cpu time    0.0019: real time    0.0080
    --------------------------------------------
      LOOP:  cpu time   77.2790: real time   77.4683

 eigenvalue-minimisations  : 11780
 total energy-change (2. order) :-0.1291127E+03  (-0.1177104E+03)
 number of electron     783.0000000 magnetization     231.0000000
 augmentation part      783.0000000 magnetization     231.0000000

 Free energy of the ion-electron system (eV)
  ---------------------------------------------------
  alpha Z        PSCENC =      2260.99135963
  Ewald energy   TEWEN  =    223343.17285089
  -Hartree energ DENC   =   -296035.77349507
  -exchange      EXHF   =         0.00000000
  -V(xc)+E(xc)   XCENC  =      1413.14138134
  PAW double counting   =     64481.21551665   -66384.91400299
  entropy T*S    EENTRO =        -0.00348618
  eigenvalues    EBANDS =      -211.14101297
  atomic energy  EATOM  =     70638.52643764
  Solvation  Ediel_sol  =         0.00000000
  ---------------------------------------------------
  free energy    TOTEN  =      -494.78445106 eV

  energy without entropy =     -494.78096488  energy(sigma->0) =     -494.78328900


--------------------------------------------------------------------------------------------------------




--------------------------------------- Iteration      1(   5)  ---------------------------------------


     EDDAV:  cpu time   74.5328: real time   74.7095
       DOS:  cpu time    0.0022: real time    0.0043
    CHARGE:  cpu time    4.1326: real time    4.1426
    MIXING:  cpu time    0.0087: real time    0.0092
    --------------------------------------------
      LOOP:  cpu time   78.6763: real time   78.8655

 eigenvalue-minimisations  : 11260
 total energy-change (2. order) :-0.5235895E+01  (-0.5188430E+01)
 number of electron     783.0000022 magnetization     216.3430629
 augmentation part      335.6444317 magnetization     184.6616914

 Broyden mixing:
  rms(total) = 0.12051E+02    rms(broyden)= 0.12051E+02
  rms(prec ) = 0.12351E+02
  weight for this iteration     100.00

 Free energy of the ion-electron system (eV)
  ---------------------------------------------------
  alpha Z        PSCENC =      2260.99135963
  Ewald energy   TEWEN  =    223343.17285089
  -Hartree energ DENC   =   -296035.77349507
  -exchange      EXHF   =         0.00000000
  -V(xc)+E(xc)   XCENC  =      1413.14138134
  PAW double counting   =     64481.21551665   -66384.91400299
  entropy T*S    EENTRO =        -0.00357424
  eigenvalues    EBANDS =      -216.37682037
  atomic energy  EATOM  =     70638.52643764
  Solvation  Ediel_sol  =         0.00000000
  ---------------------------------------------------
  free energy    TOTEN  =      -500.02034653 eV

  energy without entropy =     -500.01677229  energy(sigma->0) =     -500.01915511


--------------------------------------------------------------------------------------------------------




--------------------------------------- Iteration      1(   6)  ---------------------------------------


    POTLOK:  cpu time    0.4143: real time    0.4185
    SETDIJ:  cpu time    0.0392: real time    0.0393
    EDDIAG:  cpu time   11.3204: real time   11.3475
  RMM-DIIS:  cpu time   40.1199: real time   40.2187
    ORTHCH:  cpu time    1.3269: real time    1.3319
       DOS:  cpu time    0.0020: real time    0.0047
    CHARGE:  cpu time    4.0249: real time    4.0345
    MIXING:  cpu time    0.0095: real time    0.0098
    --------------------------------------------
      LOOP:  cpu time   57.2571: real time   57.4049

 eigenvalue-minimisations  :  9551
 total energy-change (2. order) :-0.1283616E+03  (-0.8965878E+02)
 number of electron     783.0000029 magnetization     211.9455863
 augmentation part      406.3471721 magnetization     179.4123602

 Broyden mixing:
  rms(total) = 0.18985E+02    rms(broyden)= 0.18985E+02
  rms(prec ) = 0.24478E+02
  weight for this iteration     100.00

 eigenvalues of (default mixing * dielectric matrix)
  average eigenvalue GAMMA=   0.2459
  0.2459

 Free energy of the ion-electron system (eV)
  ---------------------------------------------------
  alpha Z        PSCENC =      2260.99135963
  Ewald energy   TEWEN  =    223343.17285089
  -Hartree energ DENC   =   -294422.85606524
  -exchange      EXHF   =         0.00000000
  -V(xc)+E(xc)   XCENC  =      1368.91831555
  PAW double counting   =     69796.23213744   -71496.87714766
  entropy T*S    EENTRO =         0.00592878
  eigenvalues    EBANDS =     -2116.49575699
  atomic energy  EATOM  =     70638.52643764
  Solvation  Ediel_sol  =         0.00000000
  ---------------------------------------------------
  free energy    TOTEN  =      -628.38193997 eV

  energy without entropy =     -628.38786875  energy(sigma->0) =     -628.38391623


--------------------------------------------------------------------------------------------------------




--------------------------------------- Iteration      1(   7)  ---------------------------------------


    POTLOK:  cpu time    0.4146: real time    0.4177
    SETDIJ:  cpu time    0.0392: real time    0.0393
    EDDIAG:  cpu time   11.4022: real time   11.4293
  RMM-DIIS:  cpu time   39.8089: real time   39.9064
    ORTHCH:  cpu time    1.3037: real time    1.3087
       DOS:  cpu time    0.0020: real time    0.0044
    CHARGE:  cpu time    4.0951: real time    4.1049
    MIXING:  cpu time    0.0088: real time    0.0088
    --------------------------------------------
      LOOP:  cpu time   57.0747: real time   57.2195

 eigenvalue-minimisations  :  9467
 total energy-change (2. order) : 0.5521027E+02  (-0.1769923E+02)
 number of electron     783.0000023 magnetization     207.4104250
 augmentation part      362.6820604 magnetization     164.7669040

 Broyden mixing:
  rms(total) = 0.16855E+02    rms(broyden)= 0.16855E+02
  rms(prec ) = 0.22953E+02
  weight for this iteration     100.00

 eigenvalues of (default mixing * dielectric matrix)
  average eigenvalue GAMMA=   0.2709
  0.3849  0.1568

 Free energy of the ion-electron system (eV)
  ---------------------------------------------------
  alpha Z        PSCENC =      2260.99135963
  Ewald energy   TEWEN  =    223343.17285089
  -Hartree energ DENC   =   -295137.75452900
  -exchange      EXHF   =         0.00000000
  -V(xc)+E(xc)   XCENC  =      1389.92263022
  PAW double counting   =     70950.83370519   -72820.70014342
  entropy T*S    EENTRO =         0.00075466
  eigenvalues    EBANDS =     -1198.16473951
  atomic energy  EATOM  =     70638.52643764
  Solvation  Ediel_sol  =         0.00000000
  ---------------------------------------------------
  free energy    TOTEN  =      -573.17167370 eV

  energy without entropy =     -573.17242836  energy(sigma->0) =     -573.17192525


--------------------------------------------------------------------------------------------------------




--------------------------------------- Iteration      1(   8)  ---------------------------------------


    POTLOK:  cpu time    0.4149: real time    0.4177
    SETDIJ:  cpu time    0.0399: real time    0.0400
    EDDIAG:  cpu time   11.3846: real time   11.4118
  RMM-DIIS:  cpu time   39.8073: real time   39.9050
    ORTHCH:  cpu time    1.3031: real time    1.3079
       DOS:  cpu time    0.0020: real time    0.0048
    CHARGE:  cpu time    4.0209: real time    4.0304
    MIXING:  cpu time    0.0109: real time    0.0109
    --------------------------------------------
      LOOP:  cpu time   56.9837: real time   57.1286

 eigenvalue-minimisations  :  9463
 total energy-change (2. order) : 0.1008013E+03  (-0.8869149E+01)
 number of electron     783.0000026 magnetization     200.5109055
 augmentation part      369.5003814 magnetization     161.7271337

 Broyden mixing:
  rms(total) = 0.15918E+02    rms(broyden)= 0.15918E+02
  rms(prec ) = 0.18508E+02
  weight for this iteration     100.00

 eigenvalues of (default mixing * dielectric matrix)
  average eigenvalue GAMMA=   0.3028
  0.5754  0.2502  0.0828

 Free energy of the ion-electron system (eV)
  ---------------------------------------------------
  alpha Z        PSCENC =      2260.99135963
  Ewald energy   TEWEN  =    223343.17285089
  -Hartree energ DENC   =   -295433.78047371
  -exchange      EXHF   =         0.00000000
  -V(xc)+E(xc)   XCENC  =      1394.28030233
  PAW double counting   =     72172.65681366   -74107.58675420
  entropy T*S    EENTRO =         0.02450673
  eigenvalues    EBANDS =      -740.65541379
  atomic energy  EATOM  =     70638.52643764
  Solvation  Ediel_sol  =         0.00000000
  ---------------------------------------------------
  free energy    TOTEN  =      -472.37037081 eV

  energy without entropy =     -472.39487754  energy(sigma->0) =     -472.37853972


--------------------------------------------------------------------------------------------------------




--------------------------------------- Iteration      1(   9)  ---------------------------------------


    POTLOK:  cpu time    0.4170: real time    0.4201
    SETDIJ:  cpu time    0.0399: real time    0.0400
    EDDIAG:  cpu time   11.4314: real time   11.4587
  RMM-DIIS:  cpu time   40.2347: real time   40.3339
    ORTHCH:  cpu time    1.3000: real time    1.3049
       DOS:  cpu time    0.0019: real time    0.0019
    CHARGE:  cpu time    4.0841: real time    4.0938
[...]
   0.307E+02 -.138E+02 0.248E+04   -.306E+02 0.125E+02 -.247E+04   -.466E-01 0.139E+01 -.234E+01   -.135E-01 -.398E-01 -.224E-01
   0.227E+02 -.399E+01 0.248E+04   -.229E+02 0.455E+01 -.247E+04   0.199E+00 -.549E+00 -.293E+01   0.596E-01 -.489E-01 -.252E-01
   0.735E+01 0.518E+02 0.130E+04   -.643E+01 -.511E+02 -.130E+04   -.926E+00 -.727E+00 -.107E+00   -.399E-01 0.105E-01 -.213E-01
   0.335E+02 -.545E+02 0.129E+04   -.334E+02 0.542E+02 -.129E+04   -.112E+00 0.242E+00 -.408E+00   -.265E-01 0.865E-02 -.573E-01
   -.552E+02 -.252E+02 -.121E+04   0.553E+02 0.254E+02 0.121E+04   -.931E-01 -.266E+00 0.846E+00   -.153E-01 -.121E-01 0.927E-01
   -.936E+02 0.204E+02 0.248E+04   0.932E+02 -.201E+02 -.248E+04   0.260E+00 -.237E+00 -.263E+01   0.105E+00 -.114E-01 -.473E-01
   -.332E+02 0.464E+02 0.131E+04   0.324E+02 -.459E+02 -.131E+04   0.799E+00 -.541E+00 -.403E+00   0.293E-01 -.567E-01 0.329E-02
   -.471E+02 0.101E+01 -.265E+02   0.470E+02 -.632E+00 0.265E+02   0.107E+00 -.412E+00 -.131E+00   0.270E-01 -.507E-02 0.144E-01
   0.162E+02 -.867E+02 -.121E+04   -.162E+02 0.865E+02 0.121E+04   0.494E-02 0.179E+00 0.114E+01   0.854E-02 0.438E-02 0.117E+00
   0.156E+02 0.327E+02 -.121E+04   -.157E+02 -.327E+02 0.121E+04   0.105E+00 -.355E-01 0.466E+00   -.175E-01 -.197E-02 0.557E-01
   0.145E+02 -.468E+02 0.246E+04   -.152E+02 0.460E+02 -.245E+04   0.678E+00 0.676E+00 -.273E+01   0.230E-01 0.872E-01 -.531E-01
   0.456E+01 -.195E+02 0.276E+04   -.459E+01 0.197E+02 -.276E+04   0.760E-01 -.205E+00 -.234E+01   -.357E-01 0.180E-01 -.501E-01
   0.119E+03 0.289E+02 0.280E+04   -.120E+03 -.282E+02 -.279E+04   0.437E+00 -.707E+00 -.236E+01   -.292E-01 0.138E-01 -.371E-01
   -.376E+02 -.277E+02 0.144E+04   0.371E+02 0.266E+02 -.144E+04   0.452E+00 0.110E+01 -.443E+00   0.133E-01 -.156E-02 -.464E-01
   -.665E+02 0.659E+02 0.422E+02   0.666E+02 -.657E+02 -.431E+02   -.764E-01 -.208E+00 0.877E+00   0.274E-02 -.433E-02 0.510E-01
   -.895E+02 0.188E+02 0.142E+04   0.890E+02 -.183E+02 -.142E+04   0.503E+00 -.502E+00 -.111E+00   0.735E-01 -.138E-01 -.661E-01
   -.201E+02 0.981E+01 0.140E+04   0.204E+02 -.101E+02 -.140E+04   -.136E+00 0.277E+00 -.992E-01   -.525E-01 0.302E-01 0.113E-01
   0.530E+02 0.948E+01 -.137E+04   -.527E+02 -.965E+01 0.137E+04   -.259E+00 0.262E+00 0.149E+01   -.417E-01 -.386E-01 0.840E-01
   0.531E+02 -.806E+02 0.277E+04   -.528E+02 0.804E+02 -.277E+04   -.327E+00 0.202E+00 -.244E+01   -.434E-01 0.212E-01 -.349E-01
   -.143E+02 0.210E+01 0.139E+04   0.144E+02 -.189E+01 -.139E+04   -.107E+00 -.246E+00 -.431E+00   -.123E-01 0.241E-02 -.878E-02
   0.207E+02 -.675E+02 0.632E+01   -.199E+02 0.670E+02 -.615E+01   -.742E+00 0.612E+00 -.336E+00   -.656E-01 -.518E-01 0.394E-01
   0.312E+02 0.339E+02 0.345E+04   -.311E+02 -.332E+02 -.344E+04   0.102E+00 -.844E+00 -.357E+01   -.166E+00 0.873E-02 -.866E-01
   0.624E+02 0.677E+01 0.176E+04   -.625E+02 -.756E+01 -.176E+04   0.159E+00 0.684E+00 -.147E+00   -.398E-01 0.128E+00 -.145E+00
   0.103E+03 -.307E+02 0.173E+04   -.103E+03 0.307E+02 -.173E+04   -.260E+00 0.292E-01 0.246E+00   0.272E-01 -.223E-01 -.427E-01
   0.133E+02 0.753E+02 0.105E+03   -.139E+02 -.752E+02 -.106E+03   0.484E+00 -.158E+00 0.847E+00   0.750E-01 0.772E-02 0.989E-01
   0.602E+01 0.548E+02 -.167E+04   -.588E+01 -.544E+02 0.167E+04   -.179E+00 -.452E+00 0.145E+01   0.244E-01 0.160E-02 0.928E-01
   -.415E+02 0.342E+02 -.164E+04   0.409E+02 -.337E+02 0.163E+04   0.766E+00 -.459E+00 0.220E+01   -.309E-02 -.140E-01 0.134E+00
   -.714E+01 0.997E+02 0.340E+04   0.724E+01 -.100E+03 -.340E+04   -.157E+00 0.426E+00 -.283E+01   0.982E-02 -.561E-01 -.855E-01
   -.167E+02 -.780E+02 0.342E+04   0.157E+02 0.776E+02 -.342E+04   0.953E+00 0.366E+00 -.269E+01   0.780E-03 0.502E-01 -.867E-01
   0.109E+03 0.156E+02 -.567E+02   -.109E+03 -.153E+02 0.568E+02   0.114E-02 -.499E+00 -.138E+00   0.799E-01 0.329E-01 -.136E-01
   -.114E+03 -.423E+02 0.661E+02   0.114E+03 0.421E+02 -.662E+02   0.352E+00 0.233E+00 0.625E-01   -.422E-01 -.329E-01 0.753E-01
   -.129E+02 0.540E+02 0.182E+04   0.124E+02 -.534E+02 -.182E+04   0.407E+00 -.544E+00 -.683E+00   0.840E-01 -.640E-01 -.179E-01
   0.928E+01 -.757E+02 0.731E+02   -.891E+01 0.746E+02 -.740E+02   -.387E+00 0.126E+01 0.651E+00   0.832E-02 -.260E-01 0.130E+00
   0.597E+02 -.428E+02 0.221E+02   -.591E+02 0.424E+02 -.226E+02   -.646E+00 0.351E+00 0.529E+00   -.857E-02 0.652E-01 0.477E-01
   -.741E+02 0.986E+00 0.157E+04   0.736E+02 -.854E+00 -.157E+04   0.403E+00 -.625E-01 -.767E-01   0.704E-01 -.727E-02 -.520E-01
   -.129E+02 0.188E+02 0.163E+04   0.132E+02 -.190E+02 -.163E+04   -.369E+00 0.201E+00 -.452E+00   0.469E-01 0.266E-01 -.106E+00
   -.101E+03 -.427E+01 0.309E+04   0.101E+03 0.434E+01 -.309E+04   -.533E+00 -.292E-01 -.133E+01   0.788E-01 -.201E-02 -.626E-01
   0.706E+02 -.523E+02 0.309E+04   -.708E+02 0.529E+02 -.309E+04   0.336E+00 -.496E+00 -.864E+00   -.116E+00 -.587E-01 -.160E-01
   0.158E+02 -.396E+02 0.156E+04   -.153E+02 0.394E+02 -.156E+04   -.419E+00 0.250E+00 -.552E-02   -.974E-01 -.390E-02 0.361E-01
   0.521E+02 0.225E+01 0.160E+04   -.515E+02 -.229E+01 -.160E+04   -.483E+00 0.444E-01 -.108E+00   -.118E+00 0.368E-01 -.864E-01
   -.391E+02 -.701E+02 -.152E+04   0.391E+02 0.702E+02 0.152E+04   0.861E-01 -.696E-01 0.869E+00   -.137E-01 -.299E-01 0.906E-01
   -.540E+02 0.296E+02 0.307E+04   0.544E+02 -.290E+02 -.307E+04   -.386E+00 -.560E+00 -.194E+01   0.444E-01 -.258E-01 -.935E-01
   -.438E+02 0.743E+02 0.970E+02   0.442E+02 -.740E+02 -.972E+02   -.375E+00 -.343E+00 0.790E-01   -.208E-01 -.493E-01 0.603E-01
   0.772E+00 0.633E+02 0.240E+02   -.779E+00 -.625E+02 -.243E+02   0.830E-01 -.803E+00 -.581E-02   -.661E-01 -.663E-01 0.470E-01
   0.495E+02 0.752E+01 -.906E+01   -.491E+02 -.684E+01 0.893E+01   -.389E+00 -.660E+00 -.256E-02   -.392E-01 -.459E-01 0.263E-01
   0.212E+02 -.510E+02 0.617E+02   -.215E+02 0.505E+02 -.620E+02   0.274E+00 0.456E+00 0.148E+00   0.215E-01 0.152E-01 0.576E-01
   -.543E+01 -.198E+01 -.199E+04   0.912E+01 0.340E+01 0.202E+04   -.364E+01 -.141E+01 -.303E+02   -.506E-01 -.239E-01 -.193E-01
 -----------------------------------------------------------------------------------------------
   0.194E+01 0.460E+00 0.208E+02   0.647E-12 0.591E-12 -.455E-12   -.200E+01 -.526E+00 -.220E+02   0.771E-01 0.515E-01 0.119E+01
 
 
 POSITION                                       TOTAL-FORCE (eV/Angst)
 -----------------------------------------------------------------------------------
     12.93606      8.03235      7.03647         0.003098      0.000306      0.001141
      5.10192      8.06913      6.94291         0.001646      0.001307      0.000476
      4.95188      3.44219      7.09672         0.001625     -0.000371      0.001012
     14.36246      8.81140      9.32066         0.006705      0.004628      0.001146
      3.72620      4.25952      9.42770         0.005589      0.004161     -0.002667
      6.40987      8.80532      9.27837         0.005404      0.003087     -0.001883
     11.66813      4.22005      9.37117         0.010291      0.003041      0.001425
      9.01293      8.77696      9.16696         0.003557     -0.001029     -0.004288
     10.36648      1.95047      9.25903         0.008168      0.005357      0.000560
      2.44975      1.94851      9.25210         0.003010      0.003021      0.004997
     11.71179      8.77334      9.43291         0.009645     -0.000939     -0.002180
     13.00635      6.50627      9.39129         0.010887      0.000933     -0.004521
      5.07062      1.98737      9.45833         0.005950      0.003584     -0.001587
      7.73379      6.52477      9.32126         0.007182      0.001176     -0.000444
      9.05933      4.24514      9.30567         0.004985      0.003937     -0.001499
      5.08288      6.52086      9.39297         0.005186      0.005380      0.001477
      7.75916      1.96917      9.27815         0.004389      0.004623     -0.006307
      7.77010      3.42429      6.98527        -0.000102     -0.000177     -0.000027
      6.29452      1.12520      6.92911         0.001559     -0.000554     -0.000497
      6.42858      1.12974      0.87872        -0.024807     -0.011951     -0.001590
      3.70548      4.20844      2.81687         0.008306      0.038281     -0.009494
      1.17030      1.24992      6.90591         0.003112      0.002392      0.001874
      1.13569      1.19080      0.72557        -0.000536      0.024222     -0.003532
      6.43607      8.76100      2.90031        -0.007972     -0.027406     -0.006442
      6.41922      4.27069      9.38750         0.007520      0.001978      0.004220
      7.68135      4.99073      4.81474        -0.015769     -0.091473      0.045662
     10.34350      6.51789      9.28922         0.005754      0.001920      0.003036
     14.26424      7.22593      4.86299        -0.043154     -0.011760      0.018364
     11.67317      5.69218      7.01061         0.001923      0.001031     -0.000303
      6.39691      5.75986      6.99517         0.003083     -0.000121      0.000752
      3.62119      2.56589      4.96023         0.168037      0.148973      0.095454
     10.36091      5.02430      4.85652        -0.023634     -0.016266     -0.082875
      3.75595      5.76633      7.16589         0.004665      0.000546      0.001340
     12.96907      7.87977      0.92567        -0.005773      0.014904      0.005037
      5.16340      7.91719      0.83030         0.003994      0.024196      0.023238
      3.80701      5.74502      0.81381         0.004219     -0.010543     -0.013484
      7.79852      2.03245      2.83251        -0.020817     -0.008004     -0.000320
      9.07755      8.73373      2.85743         0.003949      0.010786      0.006615
      2.39810      3.51705      7.11957         0.002170      0.003196      0.001423
      2.34409      3.49051      0.82510         0.009438      0.008251     -0.023274
     10.34814      1.96983      2.82249        -0.024547      0.007006      0.006312
     12.96035      4.98587      4.92559         0.040462     -0.009780     -0.037495
      3.74115      1.05183      7.03354         0.000902      0.003981     -0.000361
      9.02669      5.75468      7.07243         0.004007     -0.002122      0.000398
      3.74824      1.09182      0.86700        -0.006316      0.003326     -0.008131
      9.09121      5.71867      0.96043        -0.007230      0.019377     -0.017885
      5.12448      3.47045      0.85563        -0.005734      0.028891     -0.005581
     11.62092      8.68758      2.90590         0.002144     -0.003465      0.010341
     11.65313      7.26450      4.84229         0.017908      0.020030      0.012052
     12.86756      6.45280      2.83379         0.020192     -0.009455      0.019162
      9.04201      4.20780      2.79628         0.011184      0.019652     -0.021666
      7.76008      7.99023      6.98083         0.002776      0.003434     -0.002152
      7.81315      7.93922      0.88653        -0.007138      0.007012      0.014451
     10.39144      6.53566      2.82198         0.011324     -0.015655      0.017182
      2.51347      0.25826      5.00083         0.014877     -0.010469     -0.030294
      7.74264      3.48454      0.76157         0.000951     -0.009149      0.004681
      5.07835      1.87760      2.91701         0.007061     -0.016731     -0.014952
      5.16037      6.44715      2.89923        -0.000039      0.005057     -0.038179
      7.70892      0.45986      4.84799        -0.005318     -0.050627      0.098632
      9.05000      1.18130      6.97478        -0.000050     -0.001185      0.007832
     10.29875      7.97946      6.95901         0.002135     -0.001179      0.000557
      9.06162      1.12592      0.75976        -0.015403     -0.006677     -0.007463
     10.36348      7.96081      0.78972        -0.014194     -0.001232      0.017514
      5.05436      4.96422      4.93175        -0.016534     -0.143409      0.055877
     11.61467      2.71359      4.86843        -0.010026      0.015871     -0.018841
     14.29598      8.81469      2.83748        -0.017344     -0.001341     -0.006606
      9.07350      2.65252      4.91360        -0.005552     -0.032477     -0.002274
      6.37169      2.66558      4.85827        -0.047177      0.013720      0.084827
     11.65891      4.17486      2.81483        -0.018177     -0.000042     -0.021873
      2.44098      1.89237      2.83279        -0.010838      0.022040      0.000115
     11.64953      5.68621      0.88546         0.006198      0.031789      0.000183
      6.44743      5.71949      0.92597        -0.001578      0.013209      0.012316
      7.82927      6.50651      2.83621        -0.017969      0.024984     -0.034795
      6.41922      4.13007      2.78290        -0.023231     -0.000017      0.002879
     10.37311      3.47114      7.04034         0.001385      0.001903     -0.006203
     10.34410      3.45013      0.86804         0.000244     -0.023075     -0.023316
     10.37063      0.48410      4.87151        -0.022040     -0.015068     -0.017645
      9.04079      7.29017      4.93700        -0.014240     -0.022047     -0.049844
      6.46265      7.29503      4.94074        -0.011138      0.002235     -0.034234
      5.04247      0.27633      4.88406        -0.016391     -0.002245     -0.022452
      6.03203      0.96900     10.86991        -0.008028     -0.010688      0.004893
 -----------------------------------------------------------------------------------
    total drift:                                0.010778     -0.014538     -0.004375


--------------------------------------------------------------------------------------------------------



  FREE ENERGIE OF THE ION-ELECTRON SYSTEM (eV)
  ---------------------------------------------------
  free  energy   TOTEN  =      -512.71761034 eV

  energy  without entropy=     -512.74828502  energy(sigma->0) =     -512.72783523
 
 d Force = 0.8913002E-04[ 0.550E-04, 0.123E-03]  d Energy = 0.1222882E-04 0.769E-04
 d Force = 0.1594499E+02[ 0.159E+02, 0.159E+02]  d Ewald  = 0.1594498E+02 0.172E-05


--------------------------------------------------------------------------------------------------------


    POTLOK:  cpu time    0.4470: real time    0.4517


--------------------------------------------------------------------------------------------------------


 NEB: the previous image is higher in energy: F
 NEB: the next image is higher in energy    : F
 NEB: image is at an extrema
 NEB: diff energy (min, max):     0.095395  512.717610

 NEB: Tangent
 ----------------------------------------------
      0.01353      0.01721      0.04362
      0.00057      0.00869      0.00559
     -0.01598     -0.00811      0.03430
      0.02511      0.01478      0.05087
      0.02547      0.00422      0.02993
      0.02967      0.01345      0.01961
      0.01073      0.01522      0.04347
      0.01811     -0.00710     -0.04499
      0.04172      0.00814      0.07710
      0.02510      0.01282     -0.00055
      0.04238      0.03186      0.11934
      0.02802      0.00890      0.01818
      0.06875      0.02010      0.07266
      0.00878     -0.00041      0.02877
     -0.00498     -0.01322      0.00937
      0.04132      0.01780     -0.00569
      0.00765     -0.04223     -0.48840
     -0.01794      0.04029     -0.09940
     -0.03049     -0.01483      0.00465
      0.00000      0.00000      0.00000
      0.00000      0.00000      0.00000
     -0.00504      0.00675      0.00741
      0.00000      0.00000      0.00000
      0.00000      0.00000      0.00000
      0.04069     -0.02198      0.03384
      0.00000      0.00000      0.00000
      0.01005     -0.00728     -0.00421
      0.00000      0.00000      0.00000
      0.00248      0.00782      0.01222
     -0.00648      0.00507      0.00959
      0.00000      0.00000      0.00000
      0.00000      0.00000      0.00000
      0.00001      0.00827      0.02441
      0.00000      0.00000      0.00000
      0.00000      0.00000      0.00000
      0.00000      0.00000      0.00000
      0.00000      0.00000      0.00000
      0.00000      0.00000      0.00000
     -0.00889      0.00875      0.01520
      0.00000      0.00000      0.00000
      0.00000      0.00000      0.00000
      0.00000      0.00000      0.00000
     -0.00798      0.00458     -0.02218
     -0.00108      0.01577      0.00267
      0.00000      0.00000      0.00000
      0.00000      0.00000      0.00000
      0.00000      0.00000      0.00000
      0.00000      0.00000      0.00000
      0.00000      0.00000      0.00000
      0.00000      0.00000      0.00000
      0.00000      0.00000      0.00000
     -0.00070     -0.00576      0.00251
      0.00000      0.00000      0.00000
      0.00000      0.00000      0.00000
      0.00000      0.00000      0.00000
      0.00000      0.00000      0.00000
      0.00000      0.00000      0.00000
      0.00000      0.00000      0.00000
      0.00000      0.00000      0.00000
      0.01810      0.01422     -0.02362
      0.01089     -0.00047     -0.01063
      0.00000      0.00000      0.00000
      0.00000      0.00000      0.00000
      0.00000      0.00000      0.00000
      0.00000      0.00000      0.00000
      0.00000      0.00000      0.00000
      0.00000      0.00000      0.00000
      0.00000      0.00000      0.00000
      0.00000      0.00000      0.00000
      0.00000      0.00000      0.00000
      0.00000      0.00000      0.00000
      0.00000      0.00000      0.00000
      0.00000      0.00000      0.00000
      0.00000      0.00000      0.00000
     -0.00293      0.00450      0.03152
      0.00000      0.00000      0.00000
      0.00000      0.00000      0.00000
      0.00000      0.00000      0.00000
      0.00000      0.00000      0.00000
      0.00000      0.00000      0.00000
     -0.69423     -0.37368      0.24758

 NEB: forces: par spring, perp REAL, dneb     0.656301    0.036148    0.000000
 NEB: distance to prev, next image, angle between     0.449326    0.580586  145.388011
 NEB: projections on to tangent (spring, REAL)     0.656301    0.016409

 stress matrix after NEB project (eV)
    -29.57979     -0.08134      0.87046
     -0.08134    -30.02315     -0.36619
      0.87046     -0.36619     -0.84786
  FORCES: max atom, RMS     0.015187    0.004411
  FORCE total and by dimension    0.039698    0.014755
  Stress total and by dimension   42.176639   30.023148
 Quasi-Newton relaxation of ions (Broydens 2nd method)
  g(Force)  = 0.139E-03   g(Stress)= 0.000E+00

 retain information from N=  2 steps
 eigenvalues of (default step * inverse Hessian matrix)
  average eigenvalue of G=   5.2531
 eigenvalue spectrum of G is  5.2531  5.2531


--------------------------------------------------------------------------------------------------------


  
 reached required accuracy - stopping structural energy minimisation
     LOOP+:  cpu time  538.7221: real time  540.1038
    4ORBIT:  cpu time    0.0000: real time    0.0000

 total amount of memory used by VASP MPI-rank0   259172. kBytes
=======================================================================

   base      :      30000. kBytes
   nonlr-proj:      34718. kBytes
   fftplans  :      17962. kBytes
   grid      :      55536. kBytes
   one-center:        653. kBytes
   wavefun   :     120303. kBytes
 
  
  
 General timing and accounting informations for this job:
 ========================================================
  
                  Total CPU time used (sec):    17158.500
                            User time (sec):    16756.431
                          System time (sec):      402.070
                         Elapsed time (sec):    17214.375
  
                   Maximum memory used (kb):      419904.
                   Average memory used (kb):           0.
  
                          Minor page faults:      3041064
                          Major page faults:            0
                 Voluntary context switches:        22819
