 vasp.5.4.4.18Apr17-6-g9f103f2a35 (build Oct 25 2019 11:13:22) complex          
  
 executed on             LinuxIFC date 2022.02.22  05:52:47
 running on   48 total cores
 distrk:  each k-point on   48 cores,    1 groups
 distr:  one band on NCORES_PER_BAND=   4 cores,   12 groups


--------------------------------------------------------------------------------------------------------


 INCAR:
 POTCAR:    PAW_PBE Pt 04Feb2005                  
 POTCAR:    PAW_PBE Fe 06Sep2000                  
 POTCAR:    PAW_PBE Co 02Aug2007                  
 POTCAR:    PAW_PBE Cu 22Jun2005                  
 POTCAR:    PAW_PBE Ni 02Aug2007                  
 POTCAR:    PAW_PBE O 08Apr2002                   
 POTCAR:    PAW_PBE Pt 04Feb2005                  
   VRHFIN =Pt: s1d9                                                             
   LEXCH  = PE                                                                  
   EATOM  =   729.1176 eV,   53.5886 Ry                                         
                                                                                
   TITEL  = PAW_PBE Pt 04Feb2005                                                
   LULTRA =        F    use ultrasoft PP ?                                      
   IUNSCR =        1    unscreen: 0-lin 1-nonlin 2-no                           
   RPACOR =    2.330    partial core radius                                     
   POMASS =  195.080; ZVAL   =   10.000    mass and valenz                      
   RCORE  =    2.600    outmost cutoff radius                                   
   RWIGS  =    2.750; RWIGS  =    1.455    wigner-seitz radius (au A)           
   ENMAX  =  230.283; ENMIN  =  172.712 eV                                      
   ICORE  =        3    local potential                                         
   LCOR   =        T    correct aug charges                                     
   LPAW   =        T    paw PP                                                  
   EAUG   =  358.966                                                            
   DEXC   =    0.000                                                            
   RMAX   =    2.658    core radius for proj-oper                               
   RAUG   =    1.300    factor for augmentation sphere                          
   RDEP   =    2.761    radius for radial grids                                 
   RDEPT  =    2.203    core radius for aug-charge                              
                                                                                
   Atomic configuration                                                         
   16 entries                                                                   
     n  l   j            E        occ.                                          
     1  0  0.50    -78401.1885   2.0000                                         
     2  0  0.50    -13770.7750   2.0000                                         
     2  1  1.50    -11931.0468   6.0000                                         
     3  0  0.50     -3234.7234   2.0000                                         
     3  1  1.50     -2699.2216   6.0000                                         
     3  2  2.50     -2119.5714  10.0000                                         
     4  0  0.50      -695.1528   2.0000                                         
     4  1  1.50      -519.6034   6.0000                                         
     4  2  2.50      -306.6786  10.0000                                         
     4  3  3.50       -70.1041  14.0000                                         
     5  0  0.50      -101.7747   2.0000                                         
     5  1  1.50       -55.9873   6.0000                                         
     5  2  2.50        -6.1423   9.0000                                         
     6  0  0.50        -5.6573   1.0000                                         
     6  1  1.50        -6.8029   0.0000                                         
     5  3  2.50        -1.3606   0.0000                                         
   Description                                                                  
     l       E           TYP  RCUT    TYP  RCUT                                 
     2     -6.1423404     23  2.500                                             
     2     -7.5029230     23  2.500                                             
     0     -5.6573207     23  2.500                                             
     0      0.7416693     23  2.500                                             
     1     -2.7211652     23  2.600                                             
     1     20.4087390     23  2.600                                             
     3     -1.3605826     23  2.500                                             
  local pseudopotential read in
  partial core-charges read in
  partial kinetic energy density read in
  atomic valenz-charges read in
  non local Contribution for L=           2  read in
    real space projection operators read in
  non local Contribution for L=           2  read in
    real space projection operators read in
  non local Contribution for L=           0  read in
    real space projection operators read in
  non local Contribution for L=           0  read in
    real space projection operators read in
  non local Contribution for L=           1  read in
    real space projection operators read in
  non local Contribution for L=           1  read in
    real space projection operators read in
    PAW grid and wavefunctions read in
 
   number of l-projection  operators is LMAX  =           6
   number of lm-projection operators is LMMAX =          18
 
 POTCAR:    PAW_PBE Fe 06Sep2000                  
   VRHFIN =Fe:  d7 s1                                                           
   LEXCH  = PE                                                                  
   EATOM  =   594.3153 eV,   43.6809 Ry                                         
                                                                                
   TITEL  = PAW_PBE Fe 06Sep2000                                                
   LULTRA =        F    use ultrasoft PP ?                                      
   IUNSCR =        1    unscreen: 0-lin 1-nonlin 2-no                           
   RPACOR =    2.000    partial core radius                                     
   POMASS =   55.847; ZVAL   =    8.000    mass and valenz                      
   RCORE  =    2.300    outmost cutoff radius                                   
   RWIGS  =    2.460; RWIGS  =    1.302    wigner-seitz radius (au A)           
   ENMAX  =  267.882; ENMIN  =  200.911 eV                                      
   RCLOC  =    1.701    cutoff for local pot                                    
   LCOR   =        T    correct aug charges                                     
   LPAW   =        T    paw PP                                                  
   EAUG   =  511.368                                                            
   DEXC   =    0.000                                                            
   RMAX   =    2.356    core radius for proj-oper                               
   RAUG   =    1.300    factor for augmentation sphere                          
   RDEP   =    2.442    radius for radial grids                                 
   RDEPT  =    1.890    core radius for aug-charge                              
                                                                                
   Atomic configuration                                                         
    9 entries                                                                   
     n  l   j            E        occ.                                          
     1  0  0.50     -6993.8440   2.0000                                         
     2  0  0.50      -814.6047   2.0000                                         
     2  1  1.50      -693.3689   6.0000                                         
     3  0  0.50       -89.4732   2.0000                                         
     3  1  1.50       -55.6373   6.0000                                         
     3  2  2.50        -3.8151   7.0000                                         
     4  0  0.50        -4.2551   1.0000                                         
     4  1  1.50        -3.4015   0.0000                                         
     4  3  2.50        -1.3606   0.0000                                         
   Description                                                                  
     l       E           TYP  RCUT    TYP  RCUT                                 
     2     -3.8151135     23  2.300                                             
     2     -5.1756961     23  2.300                                             
     0     -4.2550963     23  2.300                                             
     0      7.2035603     23  2.300                                             
     1     -2.7211652     23  2.300                                             
     1     18.4316424     23  2.300                                             
  local pseudopotential read in
  partial core-charges read in
  partial kinetic energy density read in
  atomic valenz-charges read in
  non local Contribution for L=           2  read in
    real space projection operators read in
  non local Contribution for L=           2  read in
    real space projection operators read in
  non local Contribution for L=           0  read in
    real space projection operators read in
  non local Contribution for L=           0  read in
    real space projection operators read in
  non local Contribution for L=           1  read in
    real space projection operators read in
  non local Contribution for L=           1  read in
    real space projection operators read in
    PAW grid and wavefunctions read in
 
   number of l-projection  operators is LMAX  =           6
   number of lm-projection operators is LMMAX =          18
 
 POTCAR:    PAW_PBE Co 02Aug2007                  
   VRHFIN =Co: d8 s1                                                            
   LEXCH  = PE                                                                  
   EATOM  =   813.3670 eV,   59.7808 Ry                                         
                                                                                
   TITEL  = PAW_PBE Co 02Aug2007                                                
   LULTRA =        F    use ultrasoft PP ?                                      
   IUNSCR =        1    unscreen: 0-lin 1-nonlin 2-no                           
   RPACOR =    2.000    partial core radius                                     
   POMASS =   58.933; ZVAL   =    9.000    mass and valenz                      
   RCORE  =    2.300    outmost cutoff radius                                   
   RWIGS  =    2.460; RWIGS  =    1.302    wigner-seitz radius (au A)           
   ENMAX  =  267.968; ENMIN  =  200.976 eV                                      
   RCLOC  =    1.203    cutoff for local pot                                    
   LCOR   =        T    correct aug charges                                     
   LPAW   =        T    paw PP                                                  
   EAUG   =  477.818                                                            
   DEXC   =    0.000                                                            
   RMAX   =    2.360    core radius for proj-oper                               
   RAUG   =    1.300    factor for augmentation sphere                          
   RDEP   =    2.393    radius for radial grids                                 
   RDEPT  =    1.864    core radius for aug-charge                              
                                                                                
   Atomic configuration                                                         
    9 entries                                                                   
     n  l   j            E        occ.                                          
     1  0  0.50     -7587.6674   2.0000                                         
     2  0  0.50      -893.6084   2.0000                                         
     2  1  1.50      -764.5805   6.0000                                         
     3  0  0.50       -97.5973   2.0000                                         
     3  1  1.50       -60.9648   6.0000                                         
     3  2  2.50        -4.2382   8.0000                                         
     4  0  0.50        -4.3746   1.0000                                         
     4  1  1.50        -4.0817   0.0000                                         
     4  3  2.50        -1.3606   0.0000                                         
   Description                                                                  
     l       E           TYP  RCUT    TYP  RCUT                                 
     2     -4.2382362     23  2.300                                             
     2     -5.5988188     23  2.300                                             
     0     -4.3745797     23  2.300                                             
     0      5.7660125     23  2.300                                             
     1     -2.7211652     23  2.300                                             
     1     16.9860234     23  2.300                                             
  local pseudopotential read in
  partial core-charges read in
  partial kinetic energy density read in
  atomic valenz-charges read in
  non local Contribution for L=           2  read in
    real space projection operators read in
  non local Contribution for L=           2  read in
    real space projection operators read in
  non local Contribution for L=           0  read in
    real space projection operators read in
  non local Contribution for L=           0  read in
    real space projection operators read in
  non local Contribution for L=           1  read in
    real space projection operators read in
  non local Contribution for L=           1  read in
    real space projection operators read in
    PAW grid and wavefunctions read in
 
   number of l-projection  operators is LMAX  =           6
   number of lm-projection operators is LMMAX =          18
 
 POTCAR:    PAW_PBE Cu 22Jun2005                  
   VRHFIN =Cu: d10 p1                                                           
   LEXCH  = PE                                                                  
   EATOM  =  1390.9808 eV,  102.2342 Ry                                         
                                                                                
   TITEL  = PAW_PBE Cu 22Jun2005                                                
   LULTRA =        F    use ultrasoft PP ?                                      
   IUNSCR =        1    unscreen: 0-lin 1-nonlin 2-no                           
   RPACOR =    2.000    partial core radius                                     
   POMASS =   63.546; ZVAL   =   11.000    mass and valenz                      
   RCORE  =    2.300    outmost cutoff radius                                   
   RWIGS  =    2.200; RWIGS  =    1.164    wigner-seitz radius (au A)           
   ENMAX  =  295.446; ENMIN  =  221.585 eV                                      
   ICORE  =        3    local potential                                         
   LCOR   =        T    correct aug charges                                     
   LPAW   =        T    paw PP                                                  
   EAUG   =  586.980                                                            
   DEXC   =    0.000                                                            
   RMAX   =    2.344    core radius for proj-oper                               
   RAUG   =    1.300    factor for augmentation sphere                          
   RDEP   =    2.302    radius for radial grids                                 
   RDEPT  =    1.771    core radius for aug-charge                              
                                                                                
   Atomic configuration                                                         
    9 entries                                                                   
     n  l   j            E        occ.                                          
     1  0  0.50     -8850.2468   2.0000                                         
     2  0  0.50     -1062.3498   2.0000                                         
     2  1  1.50      -916.8226   6.0000                                         
     3  0  0.50      -114.6929   2.0000                                         
     3  1  1.50       -72.1325   6.0000                                         
     3  2  2.50        -5.0394  10.0000                                         
     4  0  0.50        -4.6097   1.0000                                         
     4  1  0.50        -4.0817   0.0000                                         
     4  3  2.50        -1.3606   0.0000                                         
   Description                                                                  
     l       E           TYP  RCUT    TYP  RCUT                                 
     2     -5.0393973     23  2.200                                             
     2     10.8846608     23  2.200                                             
     0     -4.6097109     23  2.200                                             
     0      8.2520465     23  2.200                                             
     1     -2.7211652     23  2.200                                             
     1     21.7055443     23  2.200                                             
     3      2.7211652     23  2.300                                             
  local pseudopotential read in
  partial core-charges read in
  partial kinetic energy density read in
  atomic valenz-charges read in
  non local Contribution for L=           2  read in
    real space projection operators read in
  non local Contribution for L=           2  read in
    real space projection operators read in
  non local Contribution for L=           0  read in
    real space projection operators read in
  non local Contribution for L=           0  read in
    real space projection operators read in
  non local Contribution for L=           1  read in
    real space projection operators read in
  non local Contribution for L=           1  read in
    real space projection operators read in
    PAW grid and wavefunctions read in
 
   number of l-projection  operators is LMAX  =           6
   number of lm-projection operators is LMMAX =          18
 
 POTCAR:    PAW_PBE Ni 02Aug2007                  
   VRHFIN =Ni:                                                                  
   LEXCH  = PE                                                                  
   EATOM  =  1077.6739 eV,   79.2068 Ry                                         
                                                                                
   TITEL  = PAW_PBE Ni 02Aug2007                                                
   LULTRA =        F    use ultrasoft PP ?                                      
   IUNSCR =        1    unscreen: 0-lin 1-nonlin 2-no                           
   RPACOR =    2.000    partial core radius                                     
   POMASS =   58.690; ZVAL   =   10.000    mass and valenz                      
   RCORE  =    2.300    outmost cutoff radius                                   
   RWIGS  =    2.430; RWIGS  =    1.286    wigner-seitz radius (au A)           
   ENMAX  =  269.532; ENMIN  =  202.149 eV                                      
   RCLOC  =    1.201    cutoff for local pot                                    
   LCOR   =        T    correct aug charges                                     
   LPAW   =        T    paw PP                                                  
   EAUG   =  544.565                                                            
   DEXC   =    0.000                                                            
   RMAX   =    2.357    core radius for proj-oper                               
   RAUG   =    1.300    factor for augmentation sphere                          
   RDEP   =    2.390    radius for radial grids                                 
   RDEPT  =    1.838    core radius for aug-charge                              
                                                                                
   Atomic configuration                                                         
    9 entries                                                                   
     n  l   j            E        occ.                                          
     1  0  0.50     -8206.4253   2.0000                                         
     2  0  0.50      -976.1748   2.0000                                         
     2  1  1.50      -839.0571   6.0000                                         
     3  0  0.50      -105.9991   2.0000                                         
     3  1  1.50       -66.4603   6.0000                                         
     3  2  2.50        -4.6458   9.0000                                         
     4  0  0.50        -4.4926   1.0000                                         
     4  1  1.50        -4.0817   0.0000                                         
     4  3  2.50        -1.3606   0.0000                                         
   Description                                                                  
     l       E           TYP  RCUT    TYP  RCUT                                 
     2     -4.6457903     23  2.300                                             
     2     -6.0063729     23  2.300                                             
     0     -4.4925590     23  2.300                                             
     0      5.0102601     23  2.300                                             
     1     -2.7211652     23  2.300                                             
     1     16.5183231     23  2.300                                             
  local pseudopotential read in
  partial core-charges read in
  partial kinetic energy density read in
  atomic valenz-charges read in
  non local Contribution for L=           2  read in
    real space projection operators read in
  non local Contribution for L=           2  read in
    real space projection operators read in
  non local Contribution for L=           0  read in
    real space projection operators read in
  non local Contribution for L=           0  read in
    real space projection operators read in
  non local Contribution for L=           1  read in
    real space projection operators read in
  non local Contribution for L=           1  read in
    real space projection operators read in
    PAW grid and wavefunctions read in
 
   number of l-projection  operators is LMAX  =           6
   number of lm-projection operators is LMMAX =          18
 
 POTCAR:    PAW_PBE O 08Apr2002                   
   VRHFIN =O: s2p4                                                              
   LEXCH  = PE                                                                  
   EATOM  =   432.3788 eV,   31.7789 Ry                                         
                                                                                
   TITEL  = PAW_PBE O 08Apr2002                                                 
   LULTRA =        F    use ultrasoft PP ?                                      
   IUNSCR =        1    unscreen: 0-lin 1-nonlin 2-no                           
   RPACOR =    1.200    partial core radius                                     
   POMASS =   16.000; ZVAL   =    6.000    mass and valenz                      
   RCORE  =    1.520    outmost cutoff radius                                   
   RWIGS  =    1.550; RWIGS  =    0.820    wigner-seitz radius (au A)           
   ENMAX  =  400.000; ENMIN  =  300.000 eV                                      
   ICORE  =        2    local potential                                         
   LCOR   =        T    correct aug charges                                     
   LPAW   =        T    paw PP                                                  
   EAUG   =  605.392                                                            
   DEXC   =    0.000                                                            
   RMAX   =    1.553    core radius for proj-oper                               
   RAUG   =    1.300    factor for augmentation sphere                          
   RDEP   =    1.550    radius for radial grids                                 
   RDEPT  =    1.329    core radius for aug-charge                              
                                                                                
   Atomic configuration                                                         
    4 entries                                                                   
     n  l   j            E        occ.                                          
     1  0  0.50      -514.6923   2.0000                                         
     2  0  0.50       -23.9615   2.0000                                         
     2  1  0.50        -9.0305   4.0000                                         
     3  2  1.50        -9.5241   0.0000                                         
   Description                                                                  
     l       E           TYP  RCUT    TYP  RCUT                                 
     0    -23.9615318     23  1.200                                             
     0     -9.5240782     23  1.200                                             
     1     -9.0304911     23  1.520                                             
     1      8.1634956     23  1.520                                             
     2     -9.5240782      7  1.500                                             
  local pseudopotential read in
  partial core-charges read in
  partial kinetic energy density read in
  kinetic energy density of atom read in
  atomic valenz-charges read in
  non local Contribution for L=           0  read in
    real space projection operators read in
  non local Contribution for L=           0  read in
    real space projection operators read in
  non local Contribution for L=           1  read in
    real space projection operators read in
  non local Contribution for L=           1  read in
    real space projection operators read in
    PAW grid and wavefunctions read in
 
   number of l-projection  operators is LMAX  =           4
   number of lm-projection operators is LMMAX =           8
 
 Optimization of the real space projectors (new method)

 maximal supplied QI-value         = 14.36
 optimisation between [QCUT,QGAM] = [ 11.92, 23.98] = [ 39.79,161.09] Ry 
 Optimized for a Real-space Cutoff    1.49 Angstroem

   l    n(q)    QCUT    max X(q) W(low)/X(q) W(high)/X(q)  e(spline) 
   2     10    11.920    66.195    0.79E-04    0.18E-03    0.24E-06
   2     10    11.920    64.643    0.81E-04    0.19E-03    0.24E-06
   0     11    11.920    95.520    0.28E-04    0.54E-04    0.18E-06
   0     11    11.920    63.403    0.27E-04    0.52E-04    0.17E-06
   1     10    11.920    19.961    0.18E-04    0.11E-03    0.23E-06
   1     10    11.920    13.289    0.25E-04    0.87E-04    0.19E-06
 Optimization of the real space projectors (new method)

 maximal supplied QI-value         = 16.25
 optimisation between [QCUT,QGAM] = [ 11.86, 23.89] = [ 39.41,159.82] Ry 
 Optimized for a Real-space Cutoff    1.49 Angstroem

   l    n(q)    QCUT    max X(q) W(low)/X(q) W(high)/X(q)  e(spline) 
   2     10    11.864    80.901    0.13E-03    0.23E-03    0.37E-06
   2     10    11.864    75.754    0.13E-03    0.23E-03    0.38E-06
   0     11    11.864    58.752    0.44E-04    0.11E-04    0.20E-06
   0     11    11.864    30.679    0.36E-04    0.10E-04    0.18E-06
   1     10    11.864    17.977    0.31E-04    0.45E-04    0.10E-06
   1     10    11.864    13.559    0.25E-04    0.37E-04    0.89E-07
 Optimization of the real space projectors (new method)

 maximal supplied QI-value         = 16.25
 optimisation between [QCUT,QGAM] = [ 11.86, 23.89] = [ 39.41,159.82] Ry 
 Optimized for a Real-space Cutoff    1.33 Angstroem

   l    n(q)    QCUT    max X(q) W(low)/X(q) W(high)/X(q)  e(spline) 
   2      9    11.864    65.824    0.22E-03    0.53E-03    0.26E-06
   2      9    11.864    61.429    0.22E-03    0.53E-03    0.26E-06
   0      9    11.864    56.174    0.21E-03    0.32E-04    0.15E-06
   0      9    11.864    31.263    0.19E-03    0.30E-04    0.14E-06
   1      9    11.864    19.828    0.63E-04    0.30E-03    0.16E-06
   1      9    11.864    15.139    0.49E-04    0.25E-03    0.13E-06
 Optimization of the real space projectors (new method)

 maximal supplied QI-value         = 16.25
 optimisation between [QCUT,QGAM] = [ 11.86, 23.89] = [ 39.41,159.82] Ry 
 Optimized for a Real-space Cutoff    1.49 Angstroem

   l    n(q)    QCUT    max X(q) W(low)/X(q) W(high)/X(q)  e(spline) 
   2     10    11.864     4.610    0.10E-03    0.20E-03    0.29E-06
   2     10    11.864     8.522    0.17E-03    0.33E-03    0.50E-06
   0     11    11.864    51.609    0.52E-04    0.55E-04    0.33E-06
   0     11    11.864    27.747    0.46E-04    0.52E-04    0.31E-06
   1     10    11.864    20.408    0.54E-04    0.25E-04    0.21E-06
   1     10    11.864    13.425    0.48E-04    0.22E-04    0.18E-06
 Optimization of the real space projectors (new method)

 maximal supplied QI-value         = 16.25
 optimisation between [QCUT,QGAM] = [ 11.86, 23.89] = [ 39.41,159.82] Ry 
 Optimized for a Real-space Cutoff    1.33 Angstroem

   l    n(q)    QCUT    max X(q) W(low)/X(q) W(high)/X(q)  e(spline) 
   2      9    11.864    60.317    0.21E-03    0.51E-03    0.25E-06
   2      9    11.864    55.921    0.21E-03    0.51E-03    0.26E-06
   0      9    11.864    51.690    0.22E-03    0.30E-04    0.17E-06
   0      9    11.864    30.015    0.20E-03    0.28E-04    0.15E-06
   1      9    11.864    18.849    0.76E-04    0.33E-03    0.17E-06
   1      9    11.864    14.624    0.60E-04    0.28E-03    0.15E-06
 Optimization of the real space projectors (new method)

 maximal supplied QI-value         = 24.76
 optimisation between [QCUT,QGAM] = [ 11.88, 24.01] = [ 39.54,161.47] Ry 
 Optimized for a Real-space Cutoff    1.18 Angstroem

   l    n(q)    QCUT    max X(q) W(low)/X(q) W(high)/X(q)  e(spline) 
   0      8    11.883    20.381    0.86E-04    0.11E-03    0.31E-06
   0      8    11.883    15.268    0.94E-04    0.12E-03    0.33E-06
   1      8    11.883     5.964    0.19E-03    0.18E-04    0.33E-06
   1      8    11.883     5.382    0.17E-03    0.20E-04    0.29E-06
  PAW_PBE Pt 04Feb2005                  :
 energy of atom  1       EATOM= -729.1176
 kinetic energy error for atom=    0.0021 (will be added to EATOM!!)
  PAW_PBE Fe 06Sep2000                  :
 energy of atom  2       EATOM= -594.3153
 kinetic energy error for atom=    0.0024 (will be added to EATOM!!)
  PAW_PBE Co 02Aug2007                  :
 energy of atom  3       EATOM= -813.3670
 kinetic energy error for atom=    0.0026 (will be added to EATOM!!)
  PAW_PBE Cu 22Jun2005                  :
 energy of atom  4       EATOM=-1390.9808
 kinetic energy error for atom=    0.0036 (will be added to EATOM!!)
  PAW_PBE Ni 02Aug2007                  :
 energy of atom  5       EATOM=-1077.6739
 kinetic energy error for atom=    0.0027 (will be added to EATOM!!)
  PAW_PBE O 08Apr2002                   :
 energy of atom  6       EATOM= -432.3788
 kinetic energy error for atom=    0.0194 (will be added to EATOM!!)
 
 
 POSCAR: 10.56                                   
  positions in direct lattice
  velocities in cartesian coordinates
 exchange correlation table for  LEXCH =        8
   RHO(1)=    0.500       N(1)  =     2000
   RHO(2)=  100.500       N(2)  =     4000
 


--------------------------------------------------------------------------------------------------------


 ion  position               nearest neighbor table
   1  0.788  0.878  0.317-  28 2.61  49 2.62  19 2.64  33 2.65  59 2.65  61 2.66  29 2.67  60 2.68
                             2 2.72   4 2.77  11 2.78  12 2.84
   2  0.044  0.881  0.317-  79 2.56  30 2.62  77 2.62  60 2.63  52 2.65  28 2.67  33 2.67  22 2.68
                             1 2.72   4 2.82   6 2.89  16 3.13
   3  0.279  0.380  0.320-  39 2.56  64 2.57  33 2.59  31 2.63  30 2.70  19 2.70  43 2.72  68 2.72
                             5 2.78  13 2.80  18 2.82  25 2.83
   4  0.868  0.965  0.422-  17 2.58  11 2.60   9 2.65  12 2.67   6 2.70  16 2.76  60 2.77   1 2.77
                             2 2.82
   5  0.122  0.463  0.428-  16 2.61  12 2.62   7 2.63  10 2.63  25 2.66  13 2.67  33 2.71  39 2.74
                             3 2.78
   6  0.122  0.967  0.429-  10 2.61   9 2.64   8 2.65   4 2.70  14 2.73  16 2.75   2 2.89  22 2.93
                            52 2.94
   7  0.875  0.460  0.427-  81 2.09   9 2.61  15 2.62   5 2.63  10 2.63  12 2.63  27 2.65  39 2.69
                            75 2.78  29 2.79
   8  0.376  0.960  0.419-  43 2.58  11 2.62  13 2.62  14 2.62  27 2.63   6 2.65  10 2.66  52 2.70
                            61 2.70
   9  0.871  0.214  0.420-  81 2.20  15 2.59   7 2.61  17 2.63   6 2.64   4 2.65  75 2.66  10 2.68
                            60 2.72  22 2.80
  10  0.125  0.212  0.422-  81 2.23   6 2.61  13 2.61   5 2.63   7 2.63   8 2.66  39 2.66   9 2.68
                            43 2.73  22 2.77
  11  0.624  0.960  0.424-   4 2.60   8 2.62  27 2.63  13 2.63  12 2.64  17 2.65   1 2.78  19 2.83
                            61 2.84
  12  0.874  0.710  0.426-   5 2.62  27 2.63   7 2.63  11 2.64  16 2.66   4 2.67  33 2.67  29 2.80
                             1 2.84
  13  0.374  0.209  0.425-  10 2.61   8 2.62  11 2.63  25 2.65  17 2.65   5 2.67  43 2.77   3 2.80
                            19 2.83
  14  0.381  0.709  0.422-  27 2.58  15 2.61   8 2.62  44 2.65  25 2.67   6 2.73  16 2.74  30 2.74
                            52 2.75
  15  0.627  0.461  0.423-   9 2.59  14 2.61   7 2.62  27 2.63  17 2.65  25 2.66  44 2.70  75 2.72
                            18 2.76
  16  0.126  0.706  0.439-   5 2.61  25 2.64  12 2.66  14 2.74   6 2.75   4 2.76  33 2.90  30 3.04
                             2 3.13
  17  0.624  0.211  0.423-   4 2.58  25 2.62   9 2.63  13 2.65  15 2.65  11 2.65  18 2.77  60 2.80
                            19 2.87
  18  0.548  0.375  0.317-  67 2.56  60 2.59  75 2.61  44 2.64  68 2.65  26 2.67  30 2.71  19 2.73
                            15 2.76  17 2.77   3 2.82  25 2.86
  19  0.535  0.124  0.315-  80 2.55  43 2.57  68 2.57  59 2.60   1 2.64  61 2.64   3 2.70  18 2.73
                            60 2.76  13 2.83  11 2.83  17 2.87
  20  0.547  0.124  0.040-  37 2.55  57 2.56  48 2.58  62 2.64  63 2.68  47 2.68  45 2.68  56 2.70
                            34 2.71
  21  0.121  0.460  0.128-  40 2.52  36 2.53  47 2.53  42 2.60  69 2.61  64 2.62  70 2.64  50 2.64
                            58 2.67  31 2.70  57 2.71  74 2.72
  22  0.045  0.134  0.315-  55 2.54  65 2.55  43 2.57  77 2.59  39 2.59  75 2.61   2 2.68  60 2.68
                            52 2.71  10 2.77   9 2.80   6 2.93  31 3.42
  23  0.042  0.130  0.033-  70 2.58  40 2.60  41 2.61  45 2.62  62 2.64  76 2.64  24 2.69  35 2.73
                            53 2.78
  24  0.130  0.958  0.132-  79 2.51  77 2.54  35 2.57  53 2.57  55 2.58  70 2.62  38 2.64  58 2.64
                            73 2.65  23 2.69  66 2.70  41 2.72
  25  0.375  0.459  0.426-  17 2.62  16 2.64  13 2.65   5 2.66  15 2.66  14 2.67  30 2.82   3 2.83
                            18 2.86
  26  0.455  0.546  0.219-  73 2.50  74 2.54  51 2.56  79 2.61  64 2.63  18 2.67  68 2.67  78 2.67
                            30 2.67  32 2.68  67 2.72  44 2.75
  27  0.624  0.711  0.424-  14 2.58   8 2.63  15 2.63  11 2.63  12 2.63   7 2.65  44 2.71  61 2.79
                            29 2.79
  28  0.956  0.790  0.221-  58 2.57  66 2.57  50 2.58  42 2.59  49 2.61   1 2.61  64 2.63   2 2.67
                            59 2.70  33 2.73  79 2.76  77 2.77
  29  0.794  0.622  0.319-  39 2.54  42 2.56  75 2.58  32 2.61  44 2.64  33 2.65   1 2.67  61 2.67
                            49 2.69   7 2.79  27 2.79  12 2.80
  30  0.290  0.631  0.319-  79 2.58  52 2.61  64 2.61   2 2.62  33 2.64  44 2.64  26 2.67   3 2.70
                            18 2.71  14 2.74  25 2.82  16 3.04
  31  0.203  0.281  0.225-  70 2.52  55 2.56  65 2.57  43 2.60  57 2.60   3 2.63  39 2.66  80 2.70
                            21 2.70  42 2.71  68 2.75  64 2.79  22 3.42
  32  0.706  0.549  0.221-  54 2.53  69 2.56  51 2.58  49 2.59  42 2.60  29 2.61  78 2.62  65 2.63
                            26 2.68  44 2.69  75 2.69  67 2.70
  33  0.040  0.630  0.326-   3 2.59  30 2.64  39 2.64   1 2.65  29 2.65  12 2.67   2 2.67  64 2.71
                             5 2.71  28 2.73  42 2.74  16 2.90
  34  0.797  0.862  0.042-  50 2.38  66 2.51  48 2.53  36 2.55  71 2.56  63 2.61  20 2.71  35 2.76
                            62 2.76
  35  0.056  0.866  0.038-  58 2.54  72 2.55  36 2.56  24 2.57  66 2.62  53 2.65  23 2.73  62 2.73
                            34 2.76
  36  0.046  0.628  0.037-  21 2.53  34 2.55  35 2.56  58 2.58  50 2.61  47 2.63  72 2.64  40 2.69
                            71 2.72
  37  0.627  0.222  0.129-  51 2.51  74 2.51  67 2.52  56 2.53  41 2.55  20 2.55  68 2.56  59 2.56
                            62 2.59  66 2.66  57 2.73  48 2.89
  38  0.382  0.955  0.130-  53 2.47  80 2.48  45 2.49  78 2.53  48 2.54  73 2.55  63 2.55  54 2.56
                            55 2.59  57 2.62  24 2.64  70 2.67
  39  0.036  0.382  0.324-  29 2.54   3 2.56  75 2.58  22 2.59  33 2.64  10 2.66  31 2.66  42 2.67
                             7 2.69   5 2.74  65 2.75  43 2.79
  40  0.031  0.382  0.038-  69 2.44  21 2.52  71 2.53  76 2.56  70 2.57  23 2.60  36 2.69  45 2.78
                            47 2.78
  41  0.872  0.215  0.128-  76 2.45  65 2.52  77 2.53  67 2.54  37 2.55  69 2.57  62 2.57  51 2.59
                            23 2.61  70 2.65  66 2.66  24 2.72
  42  0.955  0.545  0.224-  29 2.56  50 2.56  28 2.59  21 2.60  32 2.60  69 2.61  49 2.63  65 2.64
                            64 2.65  39 2.67  31 2.71  33 2.74
  43  0.297  0.115  0.321-  55 2.53  52 2.54  61 2.56  19 2.57  22 2.57   8 2.58  31 2.60  80 2.66
                             3 2.72  10 2.73  13 2.77  39 2.79
  44  0.541  0.629  0.322-  61 2.56  52 2.58  78 2.64  29 2.64  18 2.64  30 2.64  14 2.65  75 2.66
                            32 2.69  15 2.70  27 2.71  26 2.75
  45  0.295  0.119  0.039-  70 2.49  38 2.49  57 2.57  53 2.60  23 2.62  63 2.64  20 2.68  47 2.75
                            40 2.78
  46  0.548  0.625  0.044-  51 2.38  73 2.39  54 2.41  71 2.56  53 2.56  63 2.58  76 2.59  56 2.62
                            72 2.64
  47  0.296  0.379  0.039-  74 2.41  21 2.53  57 2.61  72 2.61  56 2.62  36 2.63  20 2.68  45 2.75
                            40 2.78
  48  0.625  0.950  0.132-  49 2.40  80 2.48  54 2.48  34 2.53  38 2.54  59 2.55  50 2.56  63 2.57
                            20 2.58  57 2.65  66 2.68  37 2.89
  49  0.706  0.794  0.220-  48 2.40  50 2.48  54 2.49  80 2.53  32 2.59  28 2.61  78 2.61   1 2.62
                            61 2.62  42 2.63  29 2.69  59 2.69
  50  0.866  0.706  0.129-  34 2.38  71 2.42  54 2.48  49 2.48  42 2.56  48 2.56  69 2.58  28 2.58
                            36 2.61  21 2.64  66 2.76  58 2.85
  51  0.626  0.460  0.127-  46 2.38  76 2.45  37 2.51  56 2.52  26 2.56  32 2.58  41 2.59  73 2.60
                            69 2.62  74 2.62  67 2.63  54 2.69
  52  0.298  0.874  0.318-  55 2.44  78 2.52  79 2.52  61 2.54  43 2.54  44 2.58  30 2.61   2 2.65
                             8 2.70  22 2.71  14 2.75   6 2.94
  53  0.306  0.868  0.040-  73 2.42  38 2.47  63 2.55  46 2.56  24 2.57  45 2.60  72 2.61  35 2.65
                            23 2.78
  54  0.627  0.715  0.128-  46 2.41  71 2.46  50 2.48  48 2.48  63 2.48  49 2.49  32 2.53  38 2.56
                            73 2.56  78 2.62  69 2.68  51 2.69
  55  0.224  0.028  0.227-  52 2.44  78 2.45  79 2.49  43 2.53  80 2.53  22 2.54  31 2.56  24 2.58
                            38 2.59  77 2.72  70 2.72  65 2.86
  56  0.543  0.381  0.035-  74 2.50  51 2.52  37 2.53  72 2.59  76 2.60  46 2.62  47 2.62  20 2.70
                            62 2.70
  57  0.378  0.205  0.133-  68 2.46  80 2.54  20 2.56  45 2.57  31 2.60  47 2.61  38 2.62  74 2.62
                            70 2.64  48 2.65  21 2.71  37 2.73
  58  0.136  0.705  0.132-  72 2.47  64 2.52  35 2.54  79 2.57  28 2.57  36 2.58  74 2.64  24 2.64
                            73 2.67  21 2.67  66 2.76  50 2.85
  59  0.705  0.050  0.220-  66 2.52  48 2.55  37 2.56  68 2.58  67 2.58  19 2.60  60 2.61   1 2.65
                            77 2.66  80 2.67  49 2.69  28 2.70
  60  0.793  0.129  0.317-  67 2.53  77 2.57  18 2.59  59 2.61  75 2.63   2 2.63  22 2.68   1 2.68
                             9 2.72  19 2.76   4 2.77  17 2.80
  61  0.539  0.872  0.317-  78 2.49  80 2.54  52 2.54  44 2.56  43 2.56  49 2.62  19 2.64   1 2.66
                            29 2.67   8 2.70  27 2.79  11 2.84
  62  0.797  0.123  0.035-  66 2.54  41 2.57  37 2.59  23 2.64  20 2.64  76 2.66  56 2.70  35 2.73
                            34 2.76
  63  0.546  0.870  0.036-  54 2.48  53 2.55  38 2.55  48 2.57  46 2.58  34 2.61  71 2.61  45 2.64
                            20 2.68
  64  0.207  0.543  0.224-  58 2.52   3 2.57  30 2.61  21 2.62  26 2.63  28 2.63  68 2.65  42 2.65
                            74 2.68  33 2.71  79 2.72  31 2.79
  65  0.952  0.297  0.221-  41 2.52  69 2.52  67 2.54  22 2.55  77 2.55  31 2.57  70 2.60  75 2.61
                            32 2.63  42 2.64  39 2.75  55 2.86
  66  0.872  0.964  0.129-  34 2.51  59 2.52  62 2.54  28 2.57  77 2.58  35 2.62  37 2.66  41 2.66
                            48 2.68  24 2.70  50 2.76  58 2.76
  67  0.714  0.290  0.223-  37 2.52  60 2.53  77 2.53  65 2.54  41 2.54  18 2.56  59 2.58  75 2.62
                            51 2.63  32 2.70  68 2.70  26 2.72
  68  0.458  0.291  0.221-  57 2.46  74 2.54  37 2.56  19 2.57  59 2.58  64 2.65  18 2.65  26 2.67
                            67 2.70   3 2.72  80 2.73  31 2.75
  69  0.876  0.457  0.128-  40 2.44  71 2.45  76 2.46  65 2.52  32 2.56  41 2.57  50 2.58  21 2.61
                            42 2.61  51 2.62  70 2.65  54 2.68
  70  0.128  0.207  0.129-  45 2.49  31 2.52  40 2.57  23 2.58  65 2.60  24 2.62  57 2.64  21 2.64
                            69 2.65  41 2.65  38 2.67  55 2.72
  71  0.792  0.622  0.040-  50 2.42  69 2.45  54 2.46  40 2.53  46 2.56  34 2.56  76 2.59  63 2.61
                            36 2.72
  72  0.298  0.625  0.042-  74 2.44  58 2.47  73 2.49  35 2.55  56 2.59  53 2.61  47 2.61  36 2.64
                            46 2.64
  73  0.386  0.711  0.129-  46 2.39  53 2.42  72 2.49  26 2.50  78 2.55  38 2.55  54 2.56  51 2.60
                            79 2.63  24 2.65  58 2.67  74 2.76
  74  0.382  0.452  0.126-  47 2.41  72 2.44  56 2.50  37 2.51  68 2.54  26 2.54  51 2.62  57 2.62
                            58 2.64  64 2.68  21 2.72  73 2.76
  75  0.794  0.378  0.320-  29 2.58  39 2.58  18 2.61  65 2.61  22 2.61  67 2.62  60 2.63   9 2.66
                            44 2.66  32 2.69  15 2.72   7 2.78
  76  0.791  0.377  0.039-  51 2.45  41 2.45  69 2.46  40 2.56  71 2.59  46 2.59  56 2.60  23 2.64
                            62 2.66
  77  0.956  0.053  0.221-  67 2.53  41 2.53  24 2.54  65 2.55  60 2.57  66 2.58  22 2.59   2 2.62
                            59 2.66  79 2.71  55 2.72  28 2.77
  78  0.458  0.797  0.224-  55 2.45  61 2.49  80 2.49  52 2.52  38 2.53  73 2.55  79 2.58  49 2.61
                            54 2.62  32 2.62  44 2.64  26 2.67
  79  0.213  0.798  0.225-  55 2.49  24 2.51  52 2.52   2 2.56  58 2.57  78 2.58  30 2.58  26 2.61
                            73 2.63  77 2.71  64 2.72  28 2.76
  80  0.462  0.030  0.222-  38 2.48  48 2.48  78 2.49  55 2.53  49 2.53  61 2.54  57 2.54  19 2.55
                            43 2.66  59 2.67  31 2.70  68 2.73
  81  0.952  0.297  0.493-   7 2.09   9 2.20  10 2.23
 
  LATTYP: Found a hexagonal cell.
 ALAT       =    10.5600004196
 C/A-ratio  =     2.0833332505
  
  Lattice vectors:
  
 A1 = (   5.2800002098,  -9.1452286274,   0.0000000000)
 A2 = ( -10.5600004196,   0.0000000000,   0.0000000000)
 A3 = (   0.0000000000,   0.0000000000, -22.0000000000)


Analysis of symmetry for initial positions (statically):
=====================================================================
 Subroutine PRICEL returns:
 Original cell was already a primitive cell.
 

 Routine SETGRP: Setting up the symmetry group for a 
 hexagonal supercell.


 Subroutine GETGRP returns: Found  1 space group operations
 (whereof  1 operations were pure point group operations)
 out of a pool of 24 trial point group operations.


The static configuration has the point symmetry C_1 .


Analysis of symmetry for dynamics (positions and initial velocities):
=====================================================================
 Subroutine PRICEL returns:
 Original cell was already a primitive cell.
 

 Routine SETGRP: Setting up the symmetry group for a 
 hexagonal supercell.


 Subroutine GETGRP returns: Found  1 space group operations
 (whereof  1 operations were pure point group operations)
 out of a pool of 24 trial point group operations.


The dynamic configuration has the point symmetry C_1 .


Analysis of constrained symmetry for selective dynamics:
=====================================================================
 Subroutine PRICEL returns:
 Original cell was already a primitive cell.
 

 Routine SETGRP: Setting up the symmetry group for a 
 hexagonal supercell.


 Subroutine GETGRP returns: Found  1 space group operations
 (whereof  1 operations were pure point group operations)
 out of a pool of 24 trial point group operations.


The constrained configuration has the point symmetry C_1 .


Analysis of structural, dynamic, and magnetic symmetry:
=====================================================================
 Subroutine PRICEL returns:
 Original cell was already a primitive cell.
 

 Routine SETGRP: Setting up the symmetry group for a 
 hexagonal supercell.


 Subroutine GETGRP returns: Found  1 space group operations
 (whereof  1 operations were pure point group operations)
 out of a pool of 24 trial point group operations.


The magnetic configuration has the point symmetry C_1 .


 Subroutine INISYM returns: Found  1 space group operations
 (whereof  1 operations are pure point group operations),
 and found     1 'primitive' translations

 
 
 KPOINTS: mesh auto                               

Automatic generation of k-mesh.
Space group operators:
 irot       det(A)        alpha          n_x          n_y          n_z        tau_x        tau_y        tau_z
    1     1.000000     0.000001     1.000000     0.000000     0.000000     0.000000     0.000000     0.000000
 
 Subroutine IBZKPT returns following result:
 ===========================================
 
 Found      4 irreducible k-points:
 
 Following reciprocal coordinates:
            Coordinates               Weight
  0.000000  0.000000  0.000000      1.000000
  0.500000  0.000000  0.000000      1.000000
  0.000000  0.500000  0.000000      1.000000
  0.500000  0.500000  0.000000      1.000000
 
 Following cartesian coordinates:
            Coordinates               Weight
  0.000000  0.000000  0.000000      1.000000
  0.047348 -0.027337  0.000000      1.000000
  0.000000  0.054673  0.000000      1.000000
  0.047348  0.027337  0.000000      1.000000
 


--------------------------------------------------------------------------------------------------------




 Dimension of arrays:
   k-points           NKPTS =      4   k-points in BZ     NKDIM =      4   number of bands    NBANDS=    588
   number of dos      NEDOS =    301   number of ions     NIONS =     81
   non local maximal  LDIM  =      6   non local SUM 2l+1 LMDIM =     18
   total plane-waves  NPLWV = ******
   max r-space proj   IRMAX =   7802   max aug-charges    IRDMAX=  33988
   dimension x,y,z NGX =    84 NGY =   84 NGZ =  168
   dimension x,y,z NGXF=   168 NGYF=  168 NGZF=  336
   support grid    NGXF=   168 NGYF=  168 NGZF=  336
   ions per type =              32  13  10  13  12   1
   NGX,Y,Z   is equivalent  to a cutoff of  13.22, 13.22, 12.70 a.u.
   NGXF,Y,Z  is equivalent  to a cutoff of  26.45, 26.45, 25.39 a.u.

 SYSTEM =  Pt111                                   
 POSCAR =  10.56                                   

 Startparameter for this run:
   NWRITE =      2    write-flag & timer
   PREC   = accura    normal or accurate (medium, high low for compatibility)
   ISTART =      0    job   : 0-new  1-cont  2-samecut
   ICHARG =      2    charge: 1-file 2-atom 10-const
   ISPIN  =      2    spin polarized calculation?
   LNONCOLLINEAR =      F non collinear calculations
   LSORBIT =      F    spin-orbit coupling
   INIWAV =      1    electr: 0-lowe 1-rand  2-diag
   LASPH  =      F    aspherical Exc in radial PAW
   METAGGA=      F    non-selfconsistent MetaGGA calc.

 Electronic Relaxation 1
   ENCUT  =  550.0 eV  40.42 Ry    6.36 a.u.  20.19 20.19 42.07*2*pi/ulx,y,z
   ENINI  =  550.0     initial cutoff
   ENAUG  =  605.4 eV  augmentation charge cutoff
   NELM   =    200;   NELMIN=  2; NELMDL= -5     # of ELM steps 
   EDIFF  = 0.1E-04   stopping-criterion for ELM
   LREAL  =      T    real-space projection
   NLSPLINE    = F    spline interpolate recip. space projectors
   LCOMPAT=      F    compatible to vasp.4.4
   GGA_COMPAT  = T    GGA compatible to vasp.4.4-vasp.4.6
   LMAXPAW     = -100 max onsite density
   LMAXMIX     =    2 max onsite mixed and CHGCAR
   VOSKOWN=      0    Vosko Wilk Nusair interpolation
   ROPT   =   -0.00025  -0.00025  -0.00025  -0.00025
   ROPT   =   -0.00025  -0.00025
 Ionic relaxation
   EDIFFG = -.5E-01   stopping-criterion for IOM
   NSW    =    300    number of steps for IOM
   NBLOCK =      1;   KBLOCK =    300    inner block; outer block 
   IBRION =      2    ionic relax: 0-MD 1-quasi-New 2-CG
   NFREE  =      1    steps in history (QN), initial steepest desc. (CG)
   ISIF   =      2    stress and relaxation
   IWAVPR =     11    prediction:  0-non 1-charg 2-wave 3-comb
   ISYM   =      2    0-nonsym 1-usesym 2-fastsym
   LCORR  =      T    Harris-Foulkes like correction to forces

   POTIM  = 0.5000    time-step for ionic-motion
   TEIN   =    0.0    initial temperature
   TEBEG  =    0.0;   TEEND  =   0.0 temperature during run
   SMASS  =  -3.00    Nose mass-parameter (am)
   estimated Nose-frequenzy (Omega)   =  0.10E-29 period in steps =****** mass=  -0.255E-26a.u.
   SCALEE = 1.0000    scale energy and forces
   NPACO  =    256;   APACO  = 16.0  distance and # of slots for P.C.
   PSTRESS=    0.0 pullay stress

  Mass of Ions in am
   POMASS = 195.08 55.85 58.93 63.55 58.69 16.00
  Ionic Valenz
   ZVAL   =  10.00  8.00  9.00 11.00 10.00  6.00
  Atomic Wigner-Seitz radii
   RWIGS  =  -1.00 -1.00 -1.00 -1.00 -1.00 -1.00
  virtual crystal weights 
   VCA    =   1.00  1.00  1.00  1.00  1.00  1.00
   NELECT =     783.0000    total number of electrons
   NUPDOWN=      -1.0000    fix difference up-down

 DOS related values:
   EMIN   =  10.00;   EMAX   =-10.00  energy-range for DOS
   EFERMI =   0.00
   ISMEAR =     1;   SIGMA  =   0.10  broadening in eV -4-tet -1-fermi 0-gaus

 Electronic relaxation 2 (details)
   IALGO  =     68    algorithm
   LDIAG  =      T    sub-space diagonalisation (order eigenvalues)
   LSUBROT=      F    optimize rotation matrix (better conditioning)
   TURBO    =      0    0=normal 1=particle mesh
   IRESTART =      0    0=no restart 2=restart with 2 vectors
   NREBOOT  =      0    no. of reboots
   NMIN     =      0    reboot dimension
   EREF     =   0.00    reference energy to select bands
   IMIX   =      4    mixing-type and parameters
     AMIX     =   0.40;   BMIX     =  1.00
     AMIX_MAG =   1.60;   BMIX_MAG =  1.00
     AMIN     =   0.10
     WC   =   100.;   INIMIX=   1;  MIXPRE=   1;  MAXMIX= -45

 Intra band minimization:
   WEIMIN = 0.0010     energy-eigenvalue tresh-hold
   EBREAK =  0.43E-08  absolut break condition
   DEPER  =   0.30     relativ break condition  

   TIME   =   0.40     timestep for ELM

  volume/ion in A,a.u.               =      26.23       177.01
  Fermi-wavevector in a.u.,A,eV,Ry     =   1.173730  2.218029 18.743972  1.377643
  Thomas-Fermi vector in A             =   2.310139
 
 Write flags
   LWAVE        =      F    write WAVECAR
   LDOWNSAMPLE  =      F    k-point downsampling of WAVECAR
   LCHARG       =      F    write CHGCAR
   LVTOT        =      F    write LOCPOT, total local potential
   LVHAR        =      F    write LOCPOT, Hartree potential only
   LELF         =      F    write electronic localiz. function (ELF)
   LORBIT       =      0    0 simple, 1 ext, 2 COOP (PROOUT), +10 PAW based schemes


 Dipole corrections
   LMONO  =      F    monopole corrections only (constant potential shift)
   LDIPOL =      F    correct potential (dipole corrections)
   IDIPOL =      0    1-x, 2-y, 3-z, 4-all directions 
   EPSILON=  1.0000000 bulk dielectric constant

 Exchange correlation treatment:
   GGA     =    --    GGA type
   LEXCH   =     8    internal setting for exchange type
   VOSKOWN=      0    Vosko Wilk Nusair interpolation
   LHFCALC =     F    Hartree Fock is set to
   LHFONE  =     F    Hartree Fock one center treatment
   AEXX    =    0.0000 exact exchange contribution

 Linear response parameters
   LEPSILON=     F    determine dielectric tensor
   LRPA    =     F    only Hartree local field effects (RPA)
   LNABLA  =     F    use nabla operator in PAW spheres
   LVEL    =     F    velocity operator in full k-point grid
   LINTERFAST=   F  fast interpolation
   KINTER  =     0    interpolate to denser k-point grid
   CSHIFT  =0.1000    complex shift for real part using Kramers Kronig
   OMEGAMAX=  -1.0    maximum frequency
   DEG_THRESHOLD= 0.2000000E-02 threshold for treating states as degnerate
   RTIME   =   -0.100 relaxation time in fs
  (WPLASMAI=    0.000 imaginary part of plasma frequency in eV, 0.658/RTIME)
   DFIELD  = 0.0000000 0.0000000 0.0000000 field for delta impulse in time
 
 Orbital magnetization related:
   ORBITALMAG=     F  switch on orbital magnetization
   LCHIMAG   =     F  perturbation theory with respect to B field
   DQ        =  0.001000  dq finite difference perturbation B field
   LLRAUG    =     F  two centre corrections for induced B field



--------------------------------------------------------------------------------------------------------


 conjugate gradient relaxation of ions
   using selective dynamics as specified on POSCAR
 charge density and potential will be updated during run
 spin polarized calculation
 RMM-DIIS sequential band-by-band and
  variant of blocked Davidson during initial phase
 perform sub-space diagonalisation
    before iterative eigenvector-optimisation
 modified Broyden-mixing scheme, WC =      100.0
 initial mixing is a Kerker type mixing with AMIX =  0.4000 and BMIX =      1.0000
 Hartree-type preconditioning will be used
 using additional bands          196
 real space projection scheme for non local part
 use partial core corrections
 calculate Harris-corrections to forces 
   (improved forces if not selfconsistent)
 use gradient corrections 
 use of overlap-Matrix (Vanderbilt PP)
 Methfessel and Paxton  Order N= 1 SIGMA  =   0.10


--------------------------------------------------------------------------------------------------------


  energy-cutoff  :      550.00
  volume of cell :     2124.62
      direct lattice vectors                 reciprocal lattice vectors
    10.560000420  0.000000000  0.000000000     0.094696966 -0.054673319  0.000000000
     5.280000210  9.145228627  0.000000000     0.000000000  0.109346638  0.000000000
     0.000000000  0.000000000 22.000000000     0.000000000  0.000000000  0.045454545

  length of vectors
    10.560000420 10.560000420 22.000000000     0.109346638  0.109346638  0.045454545


 
 k-points in units of 2pi/SCALE and weight: mesh auto                               
   0.00000000  0.00000000  0.00000000       0.250
   0.04734848 -0.02733666  0.00000000       0.250
   0.00000000  0.05467332  0.00000000       0.250
   0.04734848  0.02733666  0.00000000       0.250
 
 k-points in reciprocal lattice and weights: mesh auto                               
   0.00000000  0.00000000  0.00000000       0.250
   0.50000000  0.00000000  0.00000000       0.250
   0.00000000  0.50000000  0.00000000       0.250
   0.50000000  0.50000000  0.00000000       0.250
 
 position of ions in fractional coordinates (direct lattice) 
   0.78773679  0.87799019  0.31719901
   0.04357865  0.88114986  0.31701644
   0.27929707  0.38039675  0.31958572
   0.86764197  0.96522899  0.42225032
   0.12222704  0.46250249  0.42775808
   0.12229735  0.96717328  0.42923775
   0.87502093  0.45950556  0.42660823
   0.37620917  0.96020040  0.41943327
   0.87116832  0.21429490  0.42011955
   0.12549024  0.21235495  0.42240787
   0.62398223  0.95992534  0.42389018
   0.87366193  0.70957544  0.42577187
   0.37443472  0.20914569  0.42482153
   0.38082965  0.70945445  0.42192508
   0.62662090  0.46086831  0.42252014
   0.12584588  0.70626459  0.43944777
   0.62407662  0.21121074  0.42278076
   0.54827524  0.37542909  0.31718415
   0.53464334  0.12423674  0.31482351
   0.54700026  0.12353325  0.03994180
   0.12080895  0.46017830  0.12803950
   0.04479742  0.13386286  0.31528327
   0.04244149  0.13021000  0.03298030
   0.13048322  0.95798537  0.13183245
   0.37540004  0.45922738  0.42556114
   0.45454095  0.54571928  0.21885182
   0.62384457  0.71101147  0.42439526
   0.95571501  0.79013093  0.22104486
   0.79422746  0.62159228  0.31901877
   0.28979360  0.63079403  0.31928832
   0.20263023  0.28057175  0.22546492
   0.70645161  0.54939058  0.22075077
   0.04028473  0.63046073  0.32604539
   0.79731809  0.86162656  0.04207609
   0.05609859  0.86571859  0.03774080
   0.04641287  0.62819901  0.03699114
   0.62737558  0.22224168  0.12875060
   0.38211413  0.95500403  0.12988305
   0.03609789  0.38226092  0.32443928
   0.03114053  0.38167600  0.03750461
   0.87224044  0.21539432  0.12829500
   0.95471211  0.54518808  0.22389055
   0.29680513  0.11497204  0.32119332
   0.54087691  0.62920736  0.32176132
   0.29525378  0.11938697  0.03940923
   0.54825113  0.62531765  0.04365578
   0.29553136  0.37948250  0.03889216
   0.62548736  0.94995762  0.13208615
   0.70634189  0.79434825  0.22010408
   0.86572308  0.70559157  0.12880862
   0.62619676  0.46010837  0.12710353
   0.29774396  0.87381959  0.31750218
   0.30581838  0.86812735  0.04029659
   0.62671135  0.71465279  0.12827184
   0.22389857  0.02823957  0.22731031
   0.54269301  0.38102257  0.03461701
   0.37824999  0.20530955  0.13259126
   0.13618402  0.70497383  0.13178299
   0.70486941  0.05028396  0.22036332
   0.79323468  0.12918491  0.31664418
   0.53868153  0.87241143  0.31679810
   0.79655062  0.12311547  0.03453465
   0.54614634  0.87048754  0.03589640
   0.20722235  0.54282065  0.22417055
   0.95151324  0.29672189  0.22129229
   0.87185770  0.96385702  0.12897658
   0.71421099  0.29004436  0.22334568
   0.45764413  0.29147175  0.22083053
   0.87581008  0.45650690  0.12794668
   0.12769165  0.20692390  0.12876336
   0.79229095  0.62176839  0.04024823
   0.29784859  0.62540744  0.04208964
   0.38567508  0.71146547  0.12891873
   0.38207648  0.45160905  0.12649526
   0.79397975  0.37763412  0.32012780
   0.79092480  0.37725959  0.03945628
   0.95559961  0.05293444  0.22143250
   0.45755740  0.79715593  0.22440887
   0.21315004  0.79768722  0.22457904
   0.46239859  0.03021630  0.22200270
   0.95189927  0.29692430  0.49329154
 
 position of ions in cartesian coordinates  (Angst):
  12.95428924  8.02942102  6.97837822
   5.11266199  8.05831695  6.97436170
   4.95787211  3.47881521  7.03088583
  14.25870879  8.82723980  9.28950707
   3.73273081  4.22969098  9.41067781
   6.39813515  8.84502073  9.44323051
  11.66641081  4.20228341  9.38538108
   9.04262737  8.78125221  9.22753203
  10.33101496  1.95977588  9.24263000
   2.44641124  1.94203460  9.29297319
  11.65765860  8.77873666  9.32558404
  12.97242880  6.48922967  9.36698108
   5.05832003  1.91268511  9.34607366
   7.76748094  6.48812319  9.28235170
   9.05050179  4.21474611  9.29544309
   5.05800976  6.45895116  9.66785090
   7.70544208  1.93157051  9.30117676
   7.77205247  3.43338488  6.97805127
   6.30180395  1.13617342  6.92611733
   6.42857854  1.12973983  0.87871960
   3.70548407  4.20843578  2.81686897
   1.17985666  1.22420645  6.93623196
   1.13569097  1.19080020  0.72556650
   6.43606578  8.76099519  2.90031393
   6.38894519  4.19973936  9.36234514
   7.68135056  4.99072754  4.81474005
  10.34193966  6.50236247  9.33669582
  14.26424239  7.22592798  4.86298700
  11.66904973  5.68460354  7.01841301
   6.39081320  5.76875564  7.02434307
   3.62119418  2.56589278  4.96022829
  10.36091172  5.02430245  4.85651690
   3.75423958  5.76570750  7.17299865
  12.96906778  7.87977186  0.92567400
   5.16339550  7.91719447  0.83029765
   3.80701088  5.74502359  0.81380505
   7.79852245  2.03245096  2.83251312
   9.07754686  8.73373018  2.85742705
   2.39953143  3.49586352  7.13766422
   2.34409331  3.49051425  0.82510140
  10.34814148  1.96983035  2.82248993
  12.96035349  4.98586960  4.92559202
   3.74131471  1.05144563  7.06625294
   9.03387534  5.75424514  7.07874902
   3.74824325  1.09182115  0.86700304
   9.09120953  5.71867289  0.96042722
   5.12447898  3.47045423  0.85562744
  11.62092318  8.68757958  2.90589533
  11.65312961  7.26449633  4.84228978
  12.86755974  6.45279623  2.83378953
   9.04201027  4.20779619  2.79627770
   7.75794393  7.99127992  6.98504796
   7.81315482  7.93922313  0.88652503
  10.39143898  6.53566319  2.82198042
   2.51347389  0.25825733  5.00082675
   7.74263770  3.48453850  0.76157429
   5.07835445  1.87760273  2.91700770
   5.16036530  6.44714688  2.89922570
   7.70892058  0.45985829  4.84799308
   9.05865487  1.18142550  6.96617185
  10.29480975  7.97840201  6.96955824
   9.06162455  1.12591908  0.75976228
  10.36347996  7.96080760  0.78972076
   5.05436124  4.96421897  4.93175206
  11.61467189  2.71358951  4.86843040
  14.29598293  8.81469279  2.83748465
   9.07350258  2.65252196  4.91360499
   6.37169315  2.66557579  4.85827162
  11.65891135  4.17485993  2.81482702
   2.44098212  1.89236634  2.83279397
  11.64953004  5.68621407  0.88546096
   6.44743266  5.71949403  0.92597203
   7.82926683  6.50651440  2.83621200
   6.41922371  4.13006800  2.78289578
  10.37833476  3.45355035  7.04281158
  10.34409694  3.45012521  0.86803825
  10.37062613  0.48409754  4.87151493
   9.04078979  7.29017323  4.93699507
   6.46265315  7.29503196  4.94073890
   5.04247138  0.27633499  4.88405930
  11.61981707  2.71544065 10.85241387
 


--------------------------------------------------------------------------------------------------------


 k-point  1 :   0.0000 0.0000 0.0000  plane waves:   62167
 k-point  2 :   0.5000 0.0000 0.0000  plane waves:   62242
 k-point  3 :   0.0000 0.5000 0.0000  plane waves:   62242
 k-point  4 :   0.5000 0.5000 0.0000  plane waves:   62242

 maximum and minimum number of plane-waves per node :     15586    15521

 maximum number of plane-waves:     62242
 maximum index in each direction: 
   IXMAX=   20   IYMAX=   20   IZMAX=   42
   IXMIN=  -20   IYMIN=  -20   IZMIN=  -42


 real space projection operators:
  total allocation   :      77904.84 KBytes
  max/ min on nodes  :      19498.88      19460.00


 parallel 3D FFT for wavefunctions:
    minimum data exchange during FFTs selected (reduces bandwidth)
 parallel 3D FFT for charge:
    minimum data exchange during FFTs selected (reduces bandwidth)


 total amount of memory used by VASP MPI-rank0   230658. kBytes
=======================================================================

   base      :      30000. kBytes
   nonlr-proj:      34744. kBytes
   fftplans  :      16129. kBytes
   grid      :      49182. kBytes
   one-center:        653. kBytes
   wavefun   :      99950. kBytes
 
     INWAV:  cpu time    0.0001: real time    0.0001
 Broyden mixing: mesh for mixing (old mesh)
   NGX = 41   NGY = 41   NGZ = 85
  (NGX  =168   NGY  =168   NGZ  =336)
  gives a total of 142885 points

 initial charge density was supplied:
 charge density of overlapping atoms calculated
 number of electron     783.0000000 magnetization     231.0000000
 keeping initial charge density in first step


--------------------------------------------------------------------------------------------------------


 Maximum index for non-local projection operator         1903
 Maximum index for augmentation-charges         1469 (set IRDMAX)


--------------------------------------------------------------------------------------------------------


 First call to EWALD:  gamma=   0.138
 Maximum number of real-space cells 4x 4x 2
 Maximum number of reciprocal cells 2x 2x 4

    FEWALD:  cpu time    0.0047: real time    0.0047


--------------------------------------- Iteration      1(   1)  ---------------------------------------


    POTLOK:  cpu time    0.3671: real time    0.3806
    SETDIJ:  cpu time    0.0352: real time    0.0409
     EDDAV:  cpu time   59.5473: real time   59.7523
       DOS:  cpu time    0.0037: real time    0.0680
    --------------------------------------------
      LOOP:  cpu time   59.9533: real time   60.2419

 eigenvalue-minimisations  :  9408
 total energy-change (2. order) : 0.8006924E+04  (-0.3322990E+05)
 number of electron     783.0000000 magnetization     231.0000000
 augmentation part      783.0000000 magnetization     231.0000000

 Free energy of the ion-electron system (eV)
  ---------------------------------------------------
  alpha Z        PSCENC =      2260.99135963
  Ewald energy   TEWEN  =    222370.34573628
  -Hartree energ DENC   =   -295072.45012797
  -exchange      EXHF   =         0.00000000
  -V(xc)+E(xc)   XCENC  =      1412.24722230
  PAW double counting   =     64481.21551665   -66384.91400299
  entropy T*S    EENTRO =        -0.01038032
  eigenvalues    EBANDS =      8300.97183214
  atomic energy  EATOM  =     70638.52643764
  Solvation  Ediel_sol  =         0.00000000
  ---------------------------------------------------
  free energy    TOTEN  =      8006.92359335 eV

  energy without entropy =     8006.93397367  energy(sigma->0) =     8006.92705345


--------------------------------------------------------------------------------------------------------




--------------------------------------- Iteration      1(   2)  ---------------------------------------


     EDDAV:  cpu time   59.6491: real time   59.8828
       DOS:  cpu time    0.0023: real time    0.0228
    --------------------------------------------
      LOOP:  cpu time   59.6514: real time   59.9055

 eigenvalue-minimisations  :  9408
 total energy-change (2. order) :-0.7112000E+04  (-0.6361898E+04)
 number of electron     783.0000000 magnetization     231.0000000
 augmentation part      783.0000000 magnetization     231.0000000

 Free energy of the ion-electron system (eV)
  ---------------------------------------------------
  alpha Z        PSCENC =      2260.99135963
  Ewald energy   TEWEN  =    222370.34573628
  -Hartree energ DENC   =   -295072.45012797
  -exchange      EXHF   =         0.00000000
  -V(xc)+E(xc)   XCENC  =      1412.24722230
  PAW double counting   =     64481.21551665   -66384.91400299
  entropy T*S    EENTRO =        -0.00218189
  eigenvalues    EBANDS =      1188.96358688
  atomic energy  EATOM  =     70638.52643764
  Solvation  Ediel_sol  =         0.00000000
  ---------------------------------------------------
  free energy    TOTEN  =       894.92354651 eV

  energy without entropy =      894.92572841  energy(sigma->0) =      894.92427381


--------------------------------------------------------------------------------------------------------




--------------------------------------- Iteration      1(   3)  ---------------------------------------


     EDDAV:  cpu time   59.8034: real time   59.9991
       DOS:  cpu time    0.0026: real time    0.0034
    --------------------------------------------
      LOOP:  cpu time   59.8060: real time   60.0024

 eigenvalue-minimisations  :  9408
 total energy-change (2. order) :-0.1258888E+04  (-0.1023815E+04)
 number of electron     783.0000000 magnetization     231.0000000
 augmentation part      783.0000000 magnetization     231.0000000

 Free energy of the ion-electron system (eV)
  ---------------------------------------------------
  alpha Z        PSCENC =      2260.99135963
  Ewald energy   TEWEN  =    222370.34573628
  -Hartree energ DENC   =   -295072.45012797
  -exchange      EXHF   =         0.00000000
  -V(xc)+E(xc)   XCENC  =      1412.24722230
  PAW double counting   =     64481.21551665   -66384.91400299
  entropy T*S    EENTRO =        -0.01750046
  eigenvalues    EBANDS =       -69.90895496
  atomic energy  EATOM  =     70638.52643764
  Solvation  Ediel_sol  =         0.00000000
  ---------------------------------------------------
  free energy    TOTEN  =      -363.96431389 eV

  energy without entropy =     -363.94681344  energy(sigma->0) =     -363.95848041


--------------------------------------------------------------------------------------------------------




--------------------------------------- Iteration      1(   4)  ---------------------------------------


     EDDAV:  cpu time   70.9275: real time   71.1893
       DOS:  cpu time    0.0026: real time    0.0281
    --------------------------------------------
      LOOP:  cpu time   70.9301: real time   71.2174

 eigenvalue-minimisations  : 11760
 total energy-change (2. order) :-0.1311999E+03  (-0.1189639E+03)
 number of electron     783.0000000 magnetization     231.0000000
 augmentation part      783.0000000 magnetization     231.0000000

 Free energy of the ion-electron system (eV)
  ---------------------------------------------------
  alpha Z        PSCENC =      2260.99135963
  Ewald energy   TEWEN  =    222370.34573628
  -Hartree energ DENC   =   -295072.45012797
  -exchange      EXHF   =         0.00000000
  -V(xc)+E(xc)   XCENC  =      1412.24722230
  PAW double counting   =     64481.21551665   -66384.91400299
  entropy T*S    EENTRO =         0.01489868
  eigenvalues    EBANDS =      -201.14121651
  atomic energy  EATOM  =     70638.52643764
  Solvation  Ediel_sol  =         0.00000000
  ---------------------------------------------------
  free energy    TOTEN  =      -495.16417630 eV

  energy without entropy =     -495.17907498  energy(sigma->0) =     -495.16914253


--------------------------------------------------------------------------------------------------------




--------------------------------------- Iteration      1(   5)  ---------------------------------------


     EDDAV:  cpu time   68.1579: real time   68.3786
       DOS:  cpu time    0.0044: real time    0.1335
    CHARGE:  cpu time    3.7744: real time    3.7926
    MIXING:  cpu time    0.0112: real time    0.0176
    --------------------------------------------
      LOOP:  cpu time   71.9478: real time   72.3223

 eigenvalue-minimisations  : 11184
 total energy-change (2. order) :-0.5363027E+01  (-0.5313699E+01)
 number of electron     783.0000036 magnetization     216.3820213
 augmentation part      335.4794156 magnetization     184.6344400

 Broyden mixing:
  rms(total) = 0.11953E+02    rms(broyden)= 0.11953E+02
  rms(prec ) = 0.12270E+02
  weight for this iteration     100.00

 Free energy of the ion-electron system (eV)
  ---------------------------------------------------
  alpha Z        PSCENC =      2260.99135963
  Ewald energy   TEWEN  =    222370.34573628
  -Hartree energ DENC   =   -295072.45012797
  -exchange      EXHF   =         0.00000000
  -V(xc)+E(xc)   XCENC  =      1412.24722230
  PAW double counting   =     64481.21551665   -66384.91400299
  entropy T*S    EENTRO =         0.01278378
  eigenvalues    EBANDS =      -206.50212868
  atomic energy  EATOM  =     70638.52643764
  Solvation  Ediel_sol  =         0.00000000
  ---------------------------------------------------
  free energy    TOTEN  =      -500.52720337 eV

  energy without entropy =     -500.53998715  energy(sigma->0) =     -500.53146463


--------------------------------------------------------------------------------------------------------




--------------------------------------- Iteration      1(   6)  ---------------------------------------


    POTLOK:  cpu time    0.3539: real time    0.3803
    SETDIJ:  cpu time    0.0321: real time    0.0323
    EDDIAG:  cpu time   10.5406: real time   10.5845
  RMM-DIIS:  cpu time   36.8592: real time   36.9959
    ORTHCH:  cpu time    1.1904: real time    1.1946
       DOS:  cpu time    0.0025: real time    0.0025
    CHARGE:  cpu time    3.6172: real time    3.6268
    MIXING:  cpu time    0.0114: real time    0.0153
    --------------------------------------------
      LOOP:  cpu time   52.6073: real time   52.8323

 eigenvalue-minimisations  :  9548
 total energy-change (2. order) :-0.1575939E+03  (-0.9244501E+02)
 number of electron     783.0000040 magnetization     212.1977945
 augmentation part      407.2282779 magnetization     179.6354856

 Broyden mixing:
  rms(total) = 0.19499E+02    rms(broyden)= 0.19499E+02
  rms(prec ) = 0.25482E+02
  weight for this iteration     100.00

 eigenvalues of (default mixing * dielectric matrix)
  average eigenvalue GAMMA=   0.2336
  0.2336

 Free energy of the ion-electron system (eV)
  ---------------------------------------------------
  alpha Z        PSCENC =      2260.99135963
  Ewald energy   TEWEN  =    222370.34573628
  -Hartree energ DENC   =   -293412.13410752
  -exchange      EXHF   =         0.00000000
  -V(xc)+E(xc)   XCENC  =      1367.44448651
  PAW double counting   =     69676.57810526   -71372.74854866
  entropy T*S    EENTRO =         0.00614747
  eigenvalues    EBANDS =     -2187.13070389
  atomic energy  EATOM  =     70638.52643764
  Solvation  Ediel_sol  =         0.00000000
  ---------------------------------------------------
  free energy    TOTEN  =      -658.12108728 eV

  energy without entropy =     -658.12723475  energy(sigma->0) =     -658.12313643


--------------------------------------------------------------------------------------------------------




--------------------------------------- Iteration      1(   7)  ---------------------------------------


    POTLOK:  cpu time    0.3468: real time    0.3488
    SETDIJ:  cpu time    0.0320: real time    0.0321
    EDDIAG:  cpu time   10.5544: real time   10.5832
  RMM-DIIS:  cpu time   36.5133: real time   36.6204
    ORTHCH:  cpu time    1.1934: real time    1.1966
       DOS:  cpu time    0.0025: real time    0.0025
    CHARGE:  cpu time    3.6531: real time    3.6628
    MIXING:  cpu time    0.0113: real time    0.0114
    --------------------------------------------
      LOOP:  cpu time   52.3068: real time   52.4578

 eigenvalue-minimisations  :  9436
 total energy-change (2. order) : 0.9563736E+02  (-0.1740986E+02)
 number of electron     783.0000039 magnetization     207.5775313
 augmentation part      364.5241464 magnetization     165.0690420

 Broyden mixing:
  rms(total) = 0.16330E+02    rms(broyden)= 0.16330E+02
  rms(prec ) = 0.22231E+02
  weight for this iteration     100.00

 eigenvalues of (default mixing * dielectric matrix)
  average eigenvalue GAMMA=   0.2697
  0.3820  0.1575

 Free energy of the ion-electron system (eV)
  ---------------------------------------------------
  alpha Z        PSCENC =      2260.99135963
  Ewald energy   TEWEN  =    222370.34573628
  -Hartree energ DENC   =   -294149.47597327
  -exchange      EXHF   =         0.00000000
  -V(xc)+E(xc)   XCENC  =      1387.01676816
  PAW double counting   =     70780.83537130   -72640.79216306
  entropy T*S    EENTRO =         0.00815392
  eigenvalues    EBANDS =     -1209.93941682
  atomic energy  EATOM  =     70638.52643764
  Solvation  Ediel_sol  =         0.00000000
  ---------------------------------------------------
  free energy    TOTEN  =      -562.48372621 eV

  energy without entropy =     -562.49188013  energy(sigma->0) =     -562.48644418


--------------------------------------------------------------------------------------------------------




--------------------------------------- Iteration      1(   8)  ---------------------------------------


    POTLOK:  cpu time    0.3602: real time    0.3769
    SETDIJ:  cpu time    0.0319: real time    0.0320
    EDDIAG:  cpu time   10.5306: real time   10.5593
  RMM-DIIS:  cpu time   36.5340: real time   36.6462
    ORTHCH:  cpu time    1.1938: real time    1.1978
       DOS:  cpu time    0.0026: real time    0.0026
    CHARGE:  cpu time    3.5766: real time    3.5865
    MIXING:  cpu time    0.0137: real time    0.0139
    --------------------------------------------
      LOOP:  cpu time   52.2435: real time   52.4151

 eigenvalue-minimisations  :  9431
 total energy-change (2. order) : 0.8297964E+02  (-0.9724257E+01)
 number of electron     783.0000039 magnetization     200.5818129
 augmentation part      370.6502327 magnetization     162.5712102

 Broyden mixing:
  rms(total) = 0.16056E+02    rms(broyden)= 0.16056E+02
  rms(prec ) = 0.18767E+02
  weight for this iteration     100.00

 eigenvalues of (default mixing * dielectric matrix)
  average eigenvalue GAMMA=   0.3029
  0.5767  0.2506  0.0815

 Free energy of the ion-electron system (eV)
  ---------------------------------------------------
  alpha Z        PSCENC =      2260.99135963
  Ewald energy   TEWEN  =    222370.34573628
  -Hartree energ DENC   =   -294445.14658151
  -exchange      EXHF   =         0.00000000
  -V(xc)+E(xc)   XCENC  =      1391.66542483
  PAW double counting   =     72015.91457356   -73944.57447309
  entropy T*S    EENTRO =         0.01838825
  eigenvalues    EBANDS =      -767.24495603
  atomic energy  EATOM  =     70638.52643764
  Solvation  Ediel_sol  =         0.00000000
  ---------------------------------------------------
  free energy    TOTEN  =      -479.50409043 eV

  energy without entropy =     -479.52247868  energy(sigma->0) =     -479.51021985


--------------------------------------------------------------------------------------------------------




--------------------------------------- Iteration      1(   9)  ---------------------------------------


    POTLOK:  cpu time    0.3481: real time    0.3499
    SETDIJ:  cpu time    0.0322: real time    0.0323
    EDDIAG:  cpu time   10.4982: real time   10.5271
  RMM-DIIS:  cpu time   36.6007: real time   36.7190
    ORTHCH:  cpu time    1.1910: real time    1.1942
       DOS:  cpu time    0.0024: real time    0.0024
    CHARGE:  cpu time    3.5879: real time    3.5975
    MIXING:  cpu time    0.0115: real time    0.0116
    --------------------------------------------
      LOOP:  cpu time   52.2721: real time   52.4340

 eigenvalue-minimisations  :  9448
 total energy-change (2. order) : 0.1016775E+03  (-0.1457416E+02)
 number of electron     783.0000035 magnetization     192.2979534
 augmentation part      372.2668518 magnetization     148.1854395

 Broyden mixing:
  rms(total) = 0.12701E+02    rms(broyden)= 0.12701E+02
  rms(prec ) = 0.14692E+02
  weight for this iteration     100.00

 eigenvalues of (default mixing * dielectric matrix)
  average eigenvalue GAMMA=   0.3639
  0.8681  0.3542  0.1445  0.0889

 Free energy of the ion-electron system (eV)
[...]
   0.103E+02 0.427E+02 -.290E+04   -.102E+02 -.429E+02 0.290E+04   -.848E-02 0.191E+00 0.609E+00   0.601E-02 0.108E-01 0.311E-02
   -.353E+02 -.920E+01 -.288E+04   0.356E+02 0.101E+02 0.288E+04   -.365E+00 -.813E+00 0.162E+01   -.272E-02 -.683E-02 0.929E-02
   -.229E+01 0.325E+02 -.286E+04   0.221E+01 -.335E+02 0.286E+04   0.106E+00 0.100E+01 0.104E+01   0.140E-02 0.153E-01 -.214E-01
   -.192E+02 -.117E+03 -.282E+04   0.194E+02 0.120E+03 0.281E+04   -.147E+00 -.234E+01 0.143E+01   -.268E-01 -.787E-02 -.126E-01
   -.891E+00 -.295E+01 -.290E+04   0.649E+00 0.285E+01 0.289E+04   0.240E+00 0.906E-01 0.168E+01   0.209E-02 0.601E-02 0.331E-02
   0.699E+02 0.638E+02 -.284E+04   -.723E+02 -.651E+02 0.284E+04   0.238E+01 0.123E+01 0.132E+01   0.168E-01 0.169E-01 -.259E-01
   -.984E+02 0.500E+02 -.281E+04   0.101E+03 -.512E+02 0.281E+04   -.295E+01 0.130E+01 0.216E+01   -.114E-01 -.221E-02 -.483E-02
   -.353E+01 -.429E+01 -.293E+04   0.391E+01 0.404E+01 0.293E+04   -.409E+00 0.179E+00 0.637E+00   -.134E-01 0.868E-02 -.673E-02
   -.142E+02 -.177E+02 -.291E+04   0.147E+02 0.177E+02 0.291E+04   -.433E+00 -.617E-02 0.988E+00   -.183E-01 0.287E-02 0.361E-02
   -.183E+02 -.158E+02 -.289E+04   0.183E+02 0.155E+02 0.289E+04   0.523E-01 0.258E+00 0.740E+00   0.302E-02 -.110E-01 -.133E-01
   0.231E+02 0.799E+01 -.292E+04   -.227E+02 -.795E+01 0.292E+04   -.493E+00 -.670E-01 0.122E+01   0.166E-01 0.204E-02 0.872E-02
   0.437E+02 -.292E+02 -.288E+04   -.442E+02 0.298E+02 0.288E+04   0.574E+00 -.590E+00 0.139E+01   0.169E-01 0.585E-02 -.199E-01
   -.563E+01 0.945E+00 -.292E+04   0.529E+01 -.139E+01 0.292E+04   0.329E+00 0.392E+00 0.992E+00   0.579E-02 0.710E-02 0.587E-01
   0.528E+02 -.409E+01 -.291E+04   -.530E+02 0.431E+01 0.291E+04   0.212E+00 -.253E+00 0.926E+00   -.855E-02 0.566E-02 -.570E-02
   0.750E+02 -.745E+02 -.150E+04   -.737E+02 0.748E+02 0.150E+04   -.127E+01 -.267E+00 0.174E+01   0.679E-02 -.182E-01 -.190E-01
   0.272E+02 -.385E+02 -.149E+04   -.284E+02 0.381E+02 0.149E+04   0.111E+01 0.420E+00 0.245E+01   0.896E-03 0.268E-02 -.234E-01
   0.333E+02 0.318E+02 0.304E+04   -.334E+02 -.319E+02 -.304E+04   0.120E+00 0.143E+00 -.237E+01   0.306E-02 -.503E-02 0.508E-03
   0.362E+02 -.881E+01 0.161E+04   -.370E+02 0.951E+01 -.161E+04   0.911E+00 -.651E+00 0.913E+00   -.214E-01 0.410E-02 -.146E-02
   -.719E+02 0.122E+02 -.147E+04   0.728E+02 -.114E+02 0.146E+04   -.917E+00 -.785E+00 0.281E+01   -.155E-01 0.840E-02 -.112E-01
   -.541E+02 0.511E+02 0.309E+04   0.548E+02 -.503E+02 -.309E+04   -.667E+00 -.847E+00 -.207E+01   -.341E-02 0.206E-02 0.403E-02
   0.132E+00 -.533E+02 0.161E+04   0.144E+00 0.528E+02 -.161E+04   -.344E+00 0.420E+00 -.764E+00   -.120E-01 0.976E-02 -.252E-01
   0.883E+01 0.852E+00 -.292E+04   -.902E+01 -.753E+00 0.292E+04   0.181E+00 -.104E+00 0.587E+00   0.926E-02 -.140E-01 -.847E-02
   -.228E+02 -.975E+01 0.312E+02   0.227E+02 0.100E+02 -.325E+02   -.257E-01 -.295E+00 0.123E+01   0.177E-01 -.195E-01 -.197E-01
   -.556E+01 -.971E+01 -.292E+04   0.487E+01 0.996E+01 0.292E+04   0.733E+00 -.205E+00 0.122E+01   0.338E-02 -.852E-02 0.409E-02
   0.203E+02 0.665E+02 0.258E+02   -.213E+02 -.677E+02 -.261E+02   0.107E+01 0.111E+01 0.201E+00   -.121E-01 0.776E-03 -.186E-01
   -.667E+02 -.358E+01 -.147E+04   0.670E+02 0.156E+01 0.147E+04   -.332E+00 0.210E+01 0.178E+01   -.768E-02 -.333E-03 -.252E-01
   0.296E+02 0.266E+02 -.153E+04   -.293E+02 -.258E+02 0.152E+04   -.295E+00 -.670E+00 0.244E+01   0.358E-02 -.769E-02 -.968E-02
   0.228E+02 -.638E+02 -.530E+02   -.237E+02 0.632E+02 0.533E+02   0.949E+00 0.502E+00 -.237E+00   0.284E-02 0.895E-02 -.209E-01
   -.272E+02 -.238E+02 0.240E+02   0.280E+02 0.245E+02 -.248E+02   -.754E+00 -.819E+00 0.966E+00   0.891E-02 -.216E-01 -.170E-01
   0.166E+02 0.968E+01 -.123E+04   -.167E+02 -.101E+02 0.123E+04   0.747E-01 0.493E+00 0.414E+00   -.623E-02 0.787E-02 -.239E-01
   -.598E+02 -.263E+01 0.244E+04   0.602E+02 0.133E+01 -.244E+04   -.400E+00 0.132E+01 -.271E+01   0.683E-02 0.696E-03 0.103E-02
   0.306E+02 -.141E+02 0.248E+04   -.305E+02 0.127E+02 -.247E+04   -.507E-01 0.144E+01 -.229E+01   -.334E-02 0.896E-02 0.125E-03
   0.230E+02 -.407E+01 0.248E+04   -.231E+02 0.463E+01 -.248E+04   0.161E+00 -.607E+00 -.283E+01   -.867E-02 0.550E-02 0.903E-03
   0.647E+01 0.523E+02 0.130E+04   -.563E+01 -.516E+02 -.130E+04   -.902E+00 -.712E+00 -.126E+00   0.160E-01 0.196E-02 -.211E-02
   0.336E+02 -.543E+02 0.129E+04   -.336E+02 0.540E+02 -.129E+04   -.987E-01 0.240E+00 -.425E+00   0.181E-02 0.908E-02 -.151E-01
   -.544E+02 -.258E+02 -.121E+04   0.546E+02 0.260E+02 0.121E+04   -.142E+00 -.281E+00 0.101E+01   -.154E-01 -.587E-03 -.177E-01
   -.932E+02 0.205E+02 0.248E+04   0.930E+02 -.202E+02 -.248E+04   0.245E+00 -.251E+00 -.263E+01   -.656E-02 -.262E-02 0.190E-02
   -.337E+02 0.463E+02 0.131E+04   0.329E+02 -.458E+02 -.131E+04   0.819E+00 -.517E+00 -.401E+00   -.668E-02 0.943E-02 -.731E-02
   -.411E+02 0.807E+00 -.306E+02   0.408E+02 -.388E+00 0.306E+02   0.212E+00 -.461E+00 0.822E-02   -.650E-02 0.177E-02 -.207E-01
   0.138E+02 -.765E+02 -.122E+04   -.144E+02 0.766E+02 0.122E+04   0.577E+00 -.571E-01 0.751E+00   0.105E-01 -.264E-02 -.665E-02
   0.145E+02 0.261E+02 -.121E+04   -.146E+02 -.262E+02 0.121E+04   0.128E+00 0.181E-01 0.413E+00   0.104E-01 -.115E-01 -.675E-02
   0.148E+02 -.465E+02 0.246E+04   -.153E+02 0.458E+02 -.245E+04   0.583E+00 0.758E+00 -.270E+01   -.588E-02 -.301E-02 -.200E-03
   0.428E+01 -.196E+02 0.276E+04   -.434E+01 0.199E+02 -.276E+04   0.689E-01 -.198E+00 -.233E+01   0.470E-02 -.129E-01 0.479E-02
   0.119E+03 0.290E+02 0.280E+04   -.120E+03 -.284E+02 -.279E+04   0.437E+00 -.664E+00 -.234E+01   -.110E-01 -.797E-02 -.447E-02
   -.368E+02 -.271E+02 0.144E+04   0.363E+02 0.261E+02 -.144E+04   0.450E+00 0.103E+01 -.285E+00   0.630E-02 0.845E-02 -.450E-02
   -.606E+02 0.723E+02 0.406E+02   0.607E+02 -.722E+02 -.415E+02   -.735E-01 -.847E-01 0.776E+00   0.116E-01 -.411E-02 -.739E-02
   -.883E+02 0.193E+02 0.142E+04   0.879E+02 -.188E+02 -.142E+04   0.497E+00 -.482E+00 -.139E+00   0.967E-02 -.693E-02 0.107E-03
   -.214E+02 0.950E+01 0.140E+04   0.216E+02 -.969E+01 -.140E+04   -.134E+00 0.266E+00 -.101E+00   0.124E-01 -.229E-01 0.148E-02
   0.427E+02 0.108E+02 -.137E+04   -.426E+02 -.110E+02 0.137E+04   -.256E+00 0.218E+00 0.152E+01   0.737E-03 0.557E-02 -.131E-02
   0.529E+02 -.807E+02 0.277E+04   -.526E+02 0.805E+02 -.277E+04   -.350E+00 0.196E+00 -.243E+01   -.511E-02 0.194E-01 -.340E-02
   -.144E+02 0.226E+01 0.139E+04   0.145E+02 -.206E+01 -.139E+04   -.864E-01 -.255E+00 -.444E+00   0.652E-02 -.852E-02 0.920E-04
   0.190E+02 -.701E+02 0.319E+01   -.182E+02 0.695E+02 -.293E+01   -.847E+00 0.687E+00 -.268E+00   0.176E-02 0.665E-02 -.133E-01
   0.307E+02 0.340E+02 0.345E+04   -.308E+02 -.332E+02 -.345E+04   0.930E-01 -.841E+00 -.359E+01   0.211E-01 -.168E-01 0.949E-02
   0.633E+02 0.877E+01 0.176E+04   -.635E+02 -.939E+01 -.176E+04   0.130E+00 0.654E+00 -.171E+00   -.171E-02 -.113E-01 -.412E-02
   0.103E+03 -.317E+02 0.173E+04   -.102E+03 0.317E+02 -.173E+04   -.198E+00 -.899E-02 0.171E-01   -.196E-01 0.146E-01 -.126E-01
   0.905E+01 0.707E+02 0.104E+03   -.964E+01 -.705E+02 -.105E+03   0.599E+00 -.319E+00 0.782E+00   0.268E-02 0.674E-02 -.125E-01
   0.208E+02 0.618E+02 -.168E+04   -.196E+02 -.609E+02 0.168E+04   -.123E+01 -.916E+00 0.698E+00   -.146E-02 0.104E-01 -.230E-01
   -.411E+02 0.332E+02 -.164E+04   0.401E+02 -.329E+02 0.163E+04   0.107E+01 -.253E+00 0.239E+01   0.781E-02 0.903E-02 -.141E-01
   -.742E+01 0.996E+02 0.340E+04   0.738E+01 -.100E+03 -.340E+04   -.134E-01 0.497E+00 -.281E+01   0.915E-02 0.171E-02 0.921E-02
   -.165E+02 -.779E+02 0.342E+04   0.157E+02 0.775E+02 -.342E+04   0.914E+00 0.350E+00 -.269E+01   0.561E-03 0.175E-01 -.572E-02
   0.109E+03 0.423E+01 -.469E+02   -.109E+03 -.402E+01 0.471E+02   0.488E-01 -.271E+00 -.300E+00   -.189E-01 -.479E-02 -.174E-01
   -.116E+03 -.421E+02 0.646E+02   0.115E+03 0.419E+02 -.646E+02   0.355E+00 0.191E+00 0.124E+00   -.174E-01 0.152E-01 -.215E-01
   -.133E+02 0.532E+02 0.182E+04   0.129E+02 -.527E+02 -.182E+04   0.415E+00 -.558E+00 -.619E+00   0.326E-02 0.642E-02 -.947E-02
   0.625E+01 -.714E+02 0.749E+02   -.595E+01 0.703E+02 -.757E+02   -.278E+00 0.121E+01 0.623E+00   0.703E-02 0.206E-02 -.208E-01
   0.553E+02 -.366E+02 0.309E+02   -.547E+02 0.361E+02 -.312E+02   -.631E+00 0.427E+00 0.309E+00   0.963E-02 -.157E-01 -.456E-02
   -.736E+02 0.817E+00 0.156E+04   0.732E+02 -.657E+00 -.156E+04   0.409E+00 -.108E+00 -.122E+00   -.550E-02 -.933E-02 -.634E-03
   -.121E+02 0.193E+02 0.163E+04   0.124E+02 -.195E+02 -.163E+04   -.362E+00 0.233E+00 -.445E+00   -.772E-02 0.717E-02 -.191E-01
   -.101E+03 -.417E+01 0.309E+04   0.101E+03 0.437E+01 -.309E+04   -.520E+00 -.145E+00 -.132E+01   0.146E-01 -.106E-01 -.955E-03
   0.702E+02 -.525E+02 0.309E+04   -.705E+02 0.531E+02 -.309E+04   0.355E+00 -.600E+00 -.825E+00   -.815E-02 0.127E-01 -.581E-02
   0.147E+02 -.404E+02 0.156E+04   -.143E+02 0.402E+02 -.156E+04   -.406E+00 0.208E+00 -.198E-01   0.277E-02 0.899E-03 -.475E-02
   0.512E+02 0.191E+01 0.161E+04   -.508E+02 -.189E+01 -.161E+04   -.478E+00 0.542E-01 -.104E+00   0.142E-01 -.119E-01 0.440E-03
   -.396E+02 -.751E+02 -.151E+04   0.395E+02 0.752E+02 0.151E+04   0.927E-01 -.113E+00 0.100E+01   -.841E-02 -.585E-02 -.128E-01
   -.541E+02 0.295E+02 0.307E+04   0.545E+02 -.289E+02 -.307E+04   -.371E+00 -.599E+00 -.191E+01   0.126E-02 -.121E-01 0.166E-01
   -.449E+02 0.709E+02 0.952E+02   0.453E+02 -.707E+02 -.953E+02   -.329E+00 -.214E+00 0.158E+00   -.160E-01 0.125E-01 -.181E-01
   -.469E+00 0.625E+02 0.220E+02   0.412E+00 -.618E+02 -.222E+02   0.879E-01 -.850E+00 -.163E-01   0.118E-01 -.158E-02 -.136E-01
   0.467E+02 0.637E+01 -.816E+01   -.464E+02 -.579E+01 0.804E+01   -.355E+00 -.619E+00 0.117E-01   -.109E-01 0.309E-02 -.165E-01
   0.257E+02 -.489E+02 0.572E+02   -.261E+02 0.485E+02 -.574E+02   0.339E+00 0.459E+00 0.162E+00   0.154E-01 0.700E-02 -.106E-01
   -.290E+01 0.882E+01 -.201E+04   0.331E+01 -.103E+02 0.204E+04   -.401E+00 0.149E+01 -.314E+02   -.850E-03 -.354E-04 -.310E-03
 -----------------------------------------------------------------------------------------------
   -.137E+01 -.238E+01 0.238E+02   -.784E-12 0.396E-12 0.286E-10   0.137E+01 0.232E+01 -.232E+02   0.429E-02 0.212E-01 -.620E+00
 
 
 POSITION                                       TOTAL-FORCE (eV/Angst)
 -----------------------------------------------------------------------------------
     12.94357      8.01480      6.97595         0.010203     -0.014741     -0.011030
      5.10824      8.07090      6.93803        -0.008132     -0.005061      0.020614
      4.96584      3.47892      7.02263         0.005342     -0.000046     -0.004486
     14.29987      8.78106      9.30000         0.015941     -0.021576     -0.008430
      3.76746      4.24368      9.40252        -0.019241      0.015070     -0.011522
      6.38997      8.75172      9.25109         0.004818      0.012355      0.033942
     11.65762      4.25939      9.40080         0.006328     -0.004728      0.012334
      9.02978      8.77059      9.21635        -0.019522     -0.022414      0.000905
     10.28553      1.89876      9.36753         0.005434     -0.006231      0.019482
      2.48824      1.89670      9.39219        -0.001657      0.004338     -0.002175
     11.66846      8.78373      9.30195        -0.001709     -0.018961      0.011013
     12.98758      6.51325      9.39738         0.013394      0.009271     -0.027869
      5.07018      1.90536      9.31079         0.009673      0.000787      0.020056
      7.72264      6.51294      9.34546        -0.015752     -0.017732     -0.022447
      8.99626      4.23755      9.27530         0.012078      0.023585      0.013148
      5.06390      6.50276      9.41929         0.003952     -0.030667     -0.025007
      7.69582      1.92235      9.26585        -0.010593      0.001071      0.002658
      7.77211      3.42966      6.96706         0.003400      0.006120     -0.011470
      6.30718      1.13145      6.91819         0.002262      0.003063     -0.008938
      6.42858      1.12974      0.87872        -0.020151      0.006330     -0.000696
      3.70548      4.20844      2.81687         0.002300      0.002738     -0.033813
      1.17869      1.25690      6.93707         0.006419      0.003458      0.034136
      1.13569      1.19080      0.72557        -0.008091      0.017208     -0.013446
      6.43607      8.76100      2.90031        -0.030928      0.004367      0.006735
      6.38520      4.22061      9.39775         0.004268     -0.007840     -0.005902
      7.68135      4.99073      4.81474         0.012336      0.014147     -0.057399
     10.31905      6.52209      9.31054         0.000208      0.007532     -0.000419
     14.26424      7.22593      4.86299         0.011971     -0.045186     -0.100375
     11.67366      5.65777      7.05697        -0.007371      0.007020     -0.023718
      6.41521      5.77231      7.00652        -0.012039      0.010768      0.017889
      3.62119      2.56589      4.96023        -0.045628     -0.029589     -0.007316
     10.36091      5.02430      4.85652         0.104099      0.014492      0.150491
      3.76268      5.76254      7.17365         0.004315     -0.007196     -0.022345
     12.96907      7.87977      0.92567         0.000661     -0.012733      0.000924
      5.16340      7.91719      0.83030         0.020362      0.012475      0.012384
      3.80701      5.74502      0.81381         0.014515     -0.007266     -0.017804
      7.79852      2.03245      2.83251        -0.027974     -0.008471      0.015379
      9.07755      8.73373      2.85743        -0.009067     -0.000245     -0.009387
      2.41569      3.48344      7.15474        -0.014063     -0.013180      0.004055
      2.34409      3.49051      0.82510         0.009842      0.015909     -0.025147
     10.34814      1.96983      2.82249        -0.005165      0.007582      0.020062
     12.96035      4.98587      4.92559        -0.032711     -0.014900      0.089215
      3.74392      1.06877      7.07445        -0.009115     -0.001378      0.004724
      9.03192      5.75568      7.07908        -0.004362     -0.003273      0.007795
      3.74824      1.09182      0.86700        -0.001346      0.004310     -0.021362
      9.09121      5.71867      0.96043        -0.007443      0.026875     -0.006900
      5.12448      3.47045      0.85563        -0.000524      0.021939     -0.018644
     11.62092      8.68758      2.90590        -0.022436     -0.042560      0.049391
     11.65313      7.26450      4.84229        -0.007082      0.076370     -0.079507
     12.86756      6.45280      2.83379         0.018338     -0.009168     -0.012200
      9.04201      4.20780      2.79628         0.013180      0.020019      0.014251
      7.76280      8.00883      6.98456        -0.000516     -0.001737      0.009550
      7.81315      7.93922      0.88653        -0.010179      0.013669      0.009652
     10.39144      6.53566      2.82198         0.020514     -0.043676      0.009104
      2.51347      0.25826      5.00083        -0.000944      0.082239      0.064661
      7.74264      3.48454      0.76157        -0.003602     -0.018600      0.004951
      5.07835      1.87760      2.91701        -0.011097     -0.010323     -0.005035
      5.16037      6.44715      2.89923        -0.012289      0.004928     -0.016046
      7.70892      0.45986      4.84799         0.034643     -0.012150      0.032613
      9.07601      1.19256      7.00710         0.010487      0.000079     -0.002890
     10.29381      7.97371      6.95907         0.002416     -0.004814     -0.002511
      9.06162      1.12592      0.75976        -0.020864     -0.013230     -0.002309
     10.36348      7.96081      0.78972        -0.020831      0.003752      0.015944
      5.05436      4.96422      4.93175        -0.000094      0.007954     -0.022800
     11.61467      2.71359      4.86843         0.014774     -0.035387      0.071444
     14.29598      8.81469      2.83748         0.010451      0.006739      0.010232
      9.07350      2.65252      4.91360         0.026450     -0.071814     -0.025340
      6.37169      2.66558      4.85827        -0.005584      0.000324     -0.047167
     11.65891      4.17486      2.81483        -0.008782     -0.018708     -0.031255
      2.44098      1.89237      2.83279        -0.003362      0.030245      0.029263
     11.64953      5.68621      0.88546         0.000686      0.042126     -0.004170
      6.44743      5.71949      0.92597        -0.004624      0.020295      0.008875
      7.82927      6.50651      2.83621        -0.018832     -0.011628     -0.014431
      6.41922      4.13007      2.78290        -0.014255      0.012161     -0.011229
     10.37136      3.44490      7.05121         0.002524     -0.010530      0.007086
     10.34410      3.45013      0.86804         0.001223     -0.013851     -0.022502
     10.37063      0.48410      4.87151        -0.010379      0.054274      0.051930
      9.04079      7.29017      4.93700         0.022904     -0.030502     -0.032016
      6.46265      7.29503      4.94074         0.036461     -0.006954     -0.050072
      5.04247      0.27633      4.88406        -0.014536      0.025215      0.005008
     11.62052      2.69750     10.70517         0.003701     -0.004154     -0.012372
 -----------------------------------------------------------------------------------
    total drift:                                0.007196     -0.040103     -0.033588


--------------------------------------------------------------------------------------------------------



  FREE ENERGIE OF THE ION-ELECTRON SYSTEM (eV)
  ---------------------------------------------------
  free  energy   TOTEN  =      -512.76790332 eV

  energy  without entropy=     -512.79187180  energy(sigma->0) =     -512.77589281
 
 d Force = 0.1533377E-02[ 0.657E-03, 0.241E-02]  d Energy = 0.1348394E-02 0.185E-03
 d Force =-0.2758561E+02[-0.276E+02,-0.276E+02]  d Ewald  =-0.2758563E+02 0.170E-04


--------------------------------------------------------------------------------------------------------


    POTLOK:  cpu time    0.3795: real time    0.3818


--------------------------------------------------------------------------------------------------------


 Conjugate gradient step on ions:
 trial-energy change:   -0.001348  1 .order   -0.001533   -0.002410   -0.000657
  (g-gl).g = 0.215E-02      g.g   = 0.178E-02  gl.gl    = 0.356E-02
 g(Force)  = 0.178E-02   g(Stress)= 0.000E+00 ortho     =-0.266E-03
 gamma     =   0.60417
 trial     =   1.48360
 opt step  =   2.03935  (harmonic =   2.03935) maximal distance =0.00553658
 next E    =  -512.768211   (d E  =  -0.00166)


--------------------------------------------------------------------------------------------------------


  
 reached required accuracy - stopping structural energy minimisation
     LOOP+:  cpu time  740.1686: real time  744.0759
    4ORBIT:  cpu time    0.0000: real time    0.0000

 total amount of memory used by VASP MPI-rank0   230658. kBytes
=======================================================================

   base      :      30000. kBytes
   nonlr-proj:      34744. kBytes
   fftplans  :      16129. kBytes
   grid      :      49182. kBytes
   one-center:        653. kBytes
   wavefun   :      99950. kBytes
 
  
  
 General timing and accounting informations for this job:
 ========================================================
  
                  Total CPU time used (sec):    18287.102
                            User time (sec):    17804.861
                          System time (sec):      482.241
                         Elapsed time (sec):    18384.789
  
                   Maximum memory used (kb):      412032.
                   Average memory used (kb):           0.
  
                          Minor page faults:      4519153
                          Major page faults:          420
                 Voluntary context switches:        12009
