 vasp.5.4.4.18Apr17-6-g9f103f2a35 (build Oct 25 2019 11:13:22) complex          
  
 executed on             LinuxIFC date 2022.02.13  02:24:58
 running on   48 total cores
 distrk:  each k-point on   48 cores,    1 groups
 distr:  one band on NCORES_PER_BAND=   1 cores,   48 groups


--------------------------------------------------------------------------------------------------------


 INCAR:
 POTCAR:    PAW_PBE Pt 04Feb2005                  
 POTCAR:    PAW_PBE Co 02Aug2007                  
 POTCAR:    PAW_PBE Ni 02Aug2007                  
 POTCAR:    PAW_PBE H 15Jun2001                   

 ----------------------------------------------------------------------------- 
|                                                                             |
|           W    W    AA    RRRRR   N    N  II  N    N   GGGG   !!!           |
|           W    W   A  A   R    R  NN   N  II  NN   N  G    G  !!!           |
|           W    W  A    A  R    R  N N  N  II  N N  N  G       !!!           |
|           W WW W  AAAAAA  RRRRR   N  N N  II  N  N N  G  GGG   !            |
|           WW  WW  A    A  R   R   N   NN  II  N   NN  G    G                |
|           W    W  A    A  R    R  N    N  II  N    N   GGGG   !!!           |
|                                                                             |
|      For optimal performance we recommend to set                            |
|        NCORE= 4 - approx SQRT( number of cores)                             |
|      NCORE specifies how many cores store one orbital (NPAR=cpu/NCORE).     |
|      This setting can  greatly improve the performance of VASP for DFT.     |
|      The default,   NCORE=1            might be grossly inefficient         |
|      on modern multi-core architectures or massively parallel machines.     |
|      Do your own testing !!!!                                               |
|      Unfortunately you need to use the default for GW and RPA calculations. |
|      (for HF NCORE is supported but not extensively tested yet)             |
|                                                                             |
 ----------------------------------------------------------------------------- 

 POTCAR:    PAW_PBE Pt 04Feb2005                  
   VRHFIN =Pt: s1d9                                                             
   LEXCH  = PE                                                                  
   EATOM  =   729.1176 eV,   53.5886 Ry                                         
                                                                                
   TITEL  = PAW_PBE Pt 04Feb2005                                                
   LULTRA =        F    use ultrasoft PP ?                                      
   IUNSCR =        1    unscreen: 0-lin 1-nonlin 2-no                           
   RPACOR =    2.330    partial core radius                                     
   POMASS =  195.080; ZVAL   =   10.000    mass and valenz                      
   RCORE  =    2.600    outmost cutoff radius                                   
   RWIGS  =    2.750; RWIGS  =    1.455    wigner-seitz radius (au A)           
   ENMAX  =  230.283; ENMIN  =  172.712 eV                                      
   ICORE  =        3    local potential                                         
   LCOR   =        T    correct aug charges                                     
   LPAW   =        T    paw PP                                                  
   EAUG   =  358.966                                                            
   DEXC   =    0.000                                                            
   RMAX   =    2.658    core radius for proj-oper                               
   RAUG   =    1.300    factor for augmentation sphere                          
   RDEP   =    2.761    radius for radial grids                                 
   RDEPT  =    2.203    core radius for aug-charge                              
                                                                                
   Atomic configuration                                                         
   16 entries                                                                   
     n  l   j            E        occ.                                          
     1  0  0.50    -78401.1885   2.0000                                         
     2  0  0.50    -13770.7750   2.0000                                         
     2  1  1.50    -11931.0468   6.0000                                         
     3  0  0.50     -3234.7234   2.0000                                         
     3  1  1.50     -2699.2216   6.0000                                         
     3  2  2.50     -2119.5714  10.0000                                         
     4  0  0.50      -695.1528   2.0000                                         
     4  1  1.50      -519.6034   6.0000                                         
     4  2  2.50      -306.6786  10.0000                                         
     4  3  3.50       -70.1041  14.0000                                         
     5  0  0.50      -101.7747   2.0000                                         
     5  1  1.50       -55.9873   6.0000                                         
     5  2  2.50        -6.1423   9.0000                                         
     6  0  0.50        -5.6573   1.0000                                         
     6  1  1.50        -6.8029   0.0000                                         
     5  3  2.50        -1.3606   0.0000                                         
   Description                                                                  
     l       E           TYP  RCUT    TYP  RCUT                                 
     2     -6.1423404     23  2.500                                             
     2     -7.5029230     23  2.500                                             
     0     -5.6573207     23  2.500                                             
     0      0.7416693     23  2.500                                             
     1     -2.7211652     23  2.600                                             
     1     20.4087390     23  2.600                                             
     3     -1.3605826     23  2.500                                             
  local pseudopotential read in
  partial core-charges read in
  partial kinetic energy density read in
  atomic valenz-charges read in
  non local Contribution for L=           2  read in
    real space projection operators read in
  non local Contribution for L=           2  read in
    real space projection operators read in
  non local Contribution for L=           0  read in
    real space projection operators read in
  non local Contribution for L=           0  read in
    real space projection operators read in
  non local Contribution for L=           1  read in
    real space projection operators read in
  non local Contribution for L=           1  read in
    real space projection operators read in
    PAW grid and wavefunctions read in
 
   number of l-projection  operators is LMAX  =           6
   number of lm-projection operators is LMMAX =          18
 
 POTCAR:    PAW_PBE Co 02Aug2007                  
   VRHFIN =Co: d8 s1                                                            
   LEXCH  = PE                                                                  
   EATOM  =   813.3670 eV,   59.7808 Ry                                         
                                                                                
   TITEL  = PAW_PBE Co 02Aug2007                                                
   LULTRA =        F    use ultrasoft PP ?                                      
   IUNSCR =        1    unscreen: 0-lin 1-nonlin 2-no                           
   RPACOR =    2.000    partial core radius                                     
   POMASS =   58.933; ZVAL   =    9.000    mass and valenz                      
   RCORE  =    2.300    outmost cutoff radius                                   
   RWIGS  =    2.460; RWIGS  =    1.302    wigner-seitz radius (au A)           
   ENMAX  =  267.968; ENMIN  =  200.976 eV                                      
   RCLOC  =    1.203    cutoff for local pot                                    
   LCOR   =        T    correct aug charges                                     
   LPAW   =        T    paw PP                                                  
   EAUG   =  477.818                                                            
   DEXC   =    0.000                                                            
   RMAX   =    2.360    core radius for proj-oper                               
   RAUG   =    1.300    factor for augmentation sphere                          
   RDEP   =    2.393    radius for radial grids                                 
   RDEPT  =    1.864    core radius for aug-charge                              
                                                                                
   Atomic configuration                                                         
    9 entries                                                                   
     n  l   j            E        occ.                                          
     1  0  0.50     -7587.6674   2.0000                                         
     2  0  0.50      -893.6084   2.0000                                         
     2  1  1.50      -764.5805   6.0000                                         
     3  0  0.50       -97.5973   2.0000                                         
     3  1  1.50       -60.9648   6.0000                                         
     3  2  2.50        -4.2382   8.0000                                         
     4  0  0.50        -4.3746   1.0000                                         
     4  1  1.50        -4.0817   0.0000                                         
     4  3  2.50        -1.3606   0.0000                                         
   Description                                                                  
     l       E           TYP  RCUT    TYP  RCUT                                 
     2     -4.2382362     23  2.300                                             
     2     -5.5988188     23  2.300                                             
     0     -4.3745797     23  2.300                                             
     0      5.7660125     23  2.300                                             
     1     -2.7211652     23  2.300                                             
     1     16.9860234     23  2.300                                             
  local pseudopotential read in
  partial core-charges read in
  partial kinetic energy density read in
  atomic valenz-charges read in
  non local Contribution for L=           2  read in
    real space projection operators read in
  non local Contribution for L=           2  read in
    real space projection operators read in
  non local Contribution for L=           0  read in
    real space projection operators read in
  non local Contribution for L=           0  read in
    real space projection operators read in
  non local Contribution for L=           1  read in
    real space projection operators read in
  non local Contribution for L=           1  read in
    real space projection operators read in
    PAW grid and wavefunctions read in
 
   number of l-projection  operators is LMAX  =           6
   number of lm-projection operators is LMMAX =          18
 
 POTCAR:    PAW_PBE Ni 02Aug2007                  
   VRHFIN =Ni:                                                                  
   LEXCH  = PE                                                                  
   EATOM  =  1077.6739 eV,   79.2068 Ry                                         
                                                                                
   TITEL  = PAW_PBE Ni 02Aug2007                                                
   LULTRA =        F    use ultrasoft PP ?                                      
   IUNSCR =        1    unscreen: 0-lin 1-nonlin 2-no                           
   RPACOR =    2.000    partial core radius                                     
   POMASS =   58.690; ZVAL   =   10.000    mass and valenz                      
   RCORE  =    2.300    outmost cutoff radius                                   
   RWIGS  =    2.430; RWIGS  =    1.286    wigner-seitz radius (au A)           
   ENMAX  =  269.532; ENMIN  =  202.149 eV                                      
   RCLOC  =    1.201    cutoff for local pot                                    
   LCOR   =        T    correct aug charges                                     
   LPAW   =        T    paw PP                                                  
   EAUG   =  544.565                                                            
   DEXC   =    0.000                                                            
   RMAX   =    2.357    core radius for proj-oper                               
   RAUG   =    1.300    factor for augmentation sphere                          
   RDEP   =    2.390    radius for radial grids                                 
   RDEPT  =    1.838    core radius for aug-charge                              
                                                                                
   Atomic configuration                                                         
    9 entries                                                                   
     n  l   j            E        occ.                                          
     1  0  0.50     -8206.4253   2.0000                                         
     2  0  0.50      -976.1748   2.0000                                         
     2  1  1.50      -839.0571   6.0000                                         
     3  0  0.50      -105.9991   2.0000                                         
     3  1  1.50       -66.4603   6.0000                                         
     3  2  2.50        -4.6458   9.0000                                         
     4  0  0.50        -4.4926   1.0000                                         
     4  1  1.50        -4.0817   0.0000                                         
     4  3  2.50        -1.3606   0.0000                                         
   Description                                                                  
     l       E           TYP  RCUT    TYP  RCUT                                 
     2     -4.6457903     23  2.300                                             
     2     -6.0063729     23  2.300                                             
     0     -4.4925590     23  2.300                                             
     0      5.0102601     23  2.300                                             
     1     -2.7211652     23  2.300                                             
     1     16.5183231     23  2.300                                             
  local pseudopotential read in
  partial core-charges read in
  partial kinetic energy density read in
  atomic valenz-charges read in
  non local Contribution for L=           2  read in
    real space projection operators read in
  non local Contribution for L=           2  read in
    real space projection operators read in
  non local Contribution for L=           0  read in
    real space projection operators read in
  non local Contribution for L=           0  read in
    real space projection operators read in
  non local Contribution for L=           1  read in
    real space projection operators read in
  non local Contribution for L=           1  read in
    real space projection operators read in
    PAW grid and wavefunctions read in
 
   number of l-projection  operators is LMAX  =           6
   number of lm-projection operators is LMMAX =          18
 
 POTCAR:    PAW_PBE H 15Jun2001                   
   VRHFIN =H: ultrasoft test                                                    
   LEXCH  = PE                                                                  
   EATOM  =    12.4884 eV,    0.9179 Ry                                         
                                                                                
   TITEL  = PAW_PBE H 15Jun2001                                                 
   LULTRA =        F    use ultrasoft PP ?                                      
   IUNSCR =        0    unscreen: 0-lin 1-nonlin 2-no                           
   RPACOR =    0.000    partial core radius                                     
   POMASS =    1.000; ZVAL   =    1.000    mass and valenz                      
   RCORE  =    1.100    outmost cutoff radius                                   
   RWIGS  =    0.700; RWIGS  =    0.370    wigner-seitz radius (au A)           
   ENMAX  =  250.000; ENMIN  =  200.000 eV                                      
   RCLOC  =    0.701    cutoff for local pot                                    
   LCOR   =        T    correct aug charges                                     
   LPAW   =        T    paw PP                                                  
   EAUG   =  400.000                                                            
   RMAX   =    1.123    core radius for proj-oper                               
   RAUG   =    1.200    factor for augmentation sphere                          
   RDEP   =    1.112    radius for radial grids                                 
   RDEPT  =    0.926    core radius for aug-charge                              
                                                                                
   Atomic configuration                                                         
    2 entries                                                                   
     n  l   j            E        occ.                                          
     1  0  0.50        -6.4927   1.0000                                         
     2  1  0.50        -3.4015   0.0000                                         
   Description                                                                  
     l       E           TYP  RCUT    TYP  RCUT                                 
     0     -6.4927494     23  1.100                                             
     0      6.8029130     23  1.100                                             
     1     -4.0817478     23  1.100                                             
  local pseudopotential read in
  atomic valenz-charges read in
  non local Contribution for L=           0  read in
    real space projection operators read in
  non local Contribution for L=           0  read in
    real space projection operators read in
  non local Contribution for L=           1  read in
    real space projection operators read in
    PAW grid and wavefunctions read in
 
   number of l-projection  operators is LMAX  =           3
   number of lm-projection operators is LMMAX =           5
 
 Optimization of the real space projectors (new method)

 maximal supplied QI-value         = 14.36
 optimisation between [QCUT,QGAM] = [ 11.92, 23.98] = [ 39.79,161.09] Ry 
 Optimized for a Real-space Cutoff    1.49 Angstroem

   l    n(q)    QCUT    max X(q) W(low)/X(q) W(high)/X(q)  e(spline) 
   2     10    11.920    66.195    0.79E-04    0.18E-03    0.24E-06
   2     10    11.920    64.643    0.81E-04    0.19E-03    0.24E-06
   0     11    11.920    95.520    0.28E-04    0.54E-04    0.18E-06
   0     11    11.920    63.403    0.27E-04    0.52E-04    0.17E-06
   1     10    11.920    19.961    0.18E-04    0.11E-03    0.23E-06
   1     10    11.920    13.289    0.25E-04    0.87E-04    0.19E-06
 Optimization of the real space projectors (new method)

 maximal supplied QI-value         = 16.25
 optimisation between [QCUT,QGAM] = [ 11.86, 23.89] = [ 39.41,159.82] Ry 
 Optimized for a Real-space Cutoff    1.33 Angstroem

   l    n(q)    QCUT    max X(q) W(low)/X(q) W(high)/X(q)  e(spline) 
   2      9    11.864    65.824    0.22E-03    0.53E-03    0.26E-06
   2      9    11.864    61.429    0.22E-03    0.53E-03    0.26E-06
   0      9    11.864    56.174    0.21E-03    0.32E-04    0.15E-06
   0      9    11.864    31.263    0.19E-03    0.30E-04    0.14E-06
   1      9    11.864    19.828    0.63E-04    0.30E-03    0.16E-06
   1      9    11.864    15.139    0.49E-04    0.25E-03    0.13E-06
 Optimization of the real space projectors (new method)

 maximal supplied QI-value         = 16.25
 optimisation between [QCUT,QGAM] = [ 11.86, 23.89] = [ 39.41,159.82] Ry 
 Optimized for a Real-space Cutoff    1.33 Angstroem

   l    n(q)    QCUT    max X(q) W(low)/X(q) W(high)/X(q)  e(spline) 
   2      9    11.864    60.317    0.21E-03    0.51E-03    0.25E-06
   2      9    11.864    55.921    0.21E-03    0.51E-03    0.26E-06
   0      9    11.864    51.690    0.22E-03    0.30E-04    0.17E-06
   0      9    11.864    30.015    0.20E-03    0.28E-04    0.15E-06
   1      9    11.864    18.849    0.76E-04    0.33E-03    0.17E-06
   1      9    11.864    14.624    0.60E-04    0.28E-03    0.15E-06
 Optimization of the real space projectors (new method)

 maximal supplied QI-value         = 34.20
 optimisation between [QCUT,QGAM] = [ 11.97, 23.94] = [ 40.13,160.53] Ry 
 Optimized for a Real-space Cutoff    1.18 Angstroem

   l    n(q)    QCUT    max X(q) W(low)/X(q) W(high)/X(q)  e(spline) 
   0      8    11.971    19.460    0.15E-03    0.31E-03    0.25E-06
   0      8    11.971    12.209    0.13E-03    0.29E-03    0.25E-06
   1      8    11.971     4.655    0.22E-03    0.24E-03    0.21E-06
  PAW_PBE Pt 04Feb2005                  :
 energy of atom  1       EATOM= -729.1176
 kinetic energy error for atom=    0.0021 (will be added to EATOM!!)
  PAW_PBE Co 02Aug2007                  :
 energy of atom  2       EATOM= -813.3670
 kinetic energy error for atom=    0.0026 (will be added to EATOM!!)
  PAW_PBE Ni 02Aug2007                  :
 energy of atom  3       EATOM=-1077.6739
 kinetic energy error for atom=    0.0027 (will be added to EATOM!!)
  PAW_PBE H 15Jun2001                   :
 energy of atom  4       EATOM=  -12.4884
 kinetic energy error for atom=    0.0008 (will be added to EATOM!!)
 
 
 POSCAR: 11.26                                   
  positions in cartesian coordinates
  No initial velocities read in
 exchange correlation table for  LEXCH =        8
   RHO(1)=    0.500       N(1)  =     2000
   RHO(2)=  100.500       N(2)  =     4000
 


--------------------------------------------------------------------------------------------------------


 ion  position               nearest neighbor table
   1  0.789  0.879  0.301-  49 2.48  59 2.56  60 2.64  28 2.70   4 2.73   2 2.74  29 2.74  19 2.79
                            12 2.85  11 2.85  61 2.87  33 2.94
   2  0.031  0.882  0.292-  79 2.49  77 2.54  60 2.71   1 2.74  28 2.76   4 2.81   6 2.88  16 2.88
                            30 2.93  33 3.02  22 3.15  52 3.25
   3  0.277  0.360  0.311-  64 2.55  68 2.62  31 2.62  39 2.67   5 2.71  33 2.72  30 2.75  13 2.76
                            25 2.78  19 2.80  43 2.80  18 2.88
   4  0.876  0.963  0.400-  60 2.71  17 2.72   1 2.73   9 2.75  16 2.76   6 2.78  12 2.79   2 2.81
                            11 2.84
   5  0.115  0.470  0.410-  39 2.62  33 2.68   3 2.71  12 2.71  10 2.74  16 2.76   7 2.77  25 2.83
                            13 3.01
   6  0.130  0.951  0.400-  81 1.92  52 2.62  16 2.74  22 2.74  14 2.77   4 2.78   8 2.82   2 2.88
                             9 2.96  10 3.02
   7  0.872  0.461  0.413-  75 2.56  39 2.58  27 2.76   5 2.77  29 2.79  10 2.83   9 2.83  12 2.87
                            15 2.87
   8  0.379  0.952  0.415-  43 2.55  52 2.55  61 2.68  27 2.76  13 2.78  11 2.81   6 2.82  14 2.88
                            10 2.89
   9  0.865  0.214  0.400-  81 1.87  75 2.62  22 2.70  17 2.72   4 2.75  15 2.75   7 2.83  60 2.86
                             6 2.96  10 3.02
  10  0.131  0.218  0.414-  81 1.82  22 2.69  13 2.70  43 2.70   5 2.74  39 2.78   7 2.83   8 2.89
                             6 3.02   9 3.02
  11  0.630  0.952  0.410-  61 2.64  12 2.72  19 2.73  27 2.77  13 2.78  17 2.80   8 2.81   4 2.84
                             1 2.85
  12  0.876  0.715  0.408-  29 2.67  16 2.70   5 2.71  11 2.72   4 2.79  33 2.80   1 2.85  27 2.86
                             7 2.87
  13  0.381  0.199  0.414-  10 2.70  43 2.70  19 2.72   3 2.76   8 2.78  11 2.78  25 2.79  17 2.81
                             5 3.01
  14  0.373  0.701  0.400-  52 2.52  44 2.55  15 2.74   6 2.77  16 2.80  25 2.80  30 2.86   8 2.88
                            27 2.89
  15  0.619  0.458  0.399-  75 2.54  44 2.60  14 2.74   9 2.75  25 2.77  17 2.83  27 2.85  18 2.86
                             7 2.87
  16  0.117  0.714  0.400-  30 2.66  12 2.70   6 2.74  33 2.75   4 2.76   5 2.76  14 2.80   2 2.88
                            25 2.94
  17  0.629  0.202  0.404-  18 2.68   9 2.72   4 2.72  19 2.80  60 2.80  11 2.80  25 2.81  13 2.81
                            15 2.83
  18  0.539  0.347  0.301-  67 2.45  26 2.60  68 2.66  60 2.67  17 2.68  19 2.70  25 2.81  15 2.86
                             3 2.88  30 2.94  75 3.20
  19  0.528  0.113  0.309-  59 2.47  80 2.51  68 2.57  43 2.61  61 2.64  18 2.70  13 2.72  11 2.73
                             1 2.79  17 2.80   3 2.80  60 2.91
  20  0.546  0.126  0.067-  48 2.50  57 2.52  47 2.52  62 2.53  37 2.60  56 2.66  34 2.70  63 2.89

  21  0.118  0.408  0.119-  47 2.44  40 2.48  36 2.49  69 2.60  57 2.64  42 2.67  64 2.70  70 2.72
                            31 2.74  50 3.30
  22  0.054  0.148  0.311-  77 2.43  65 2.52  55 2.52  43 2.58  39 2.64  10 2.69   9 2.70   6 2.74
                            75 2.89  52 3.05  31 3.06   2 3.15  60 3.23
  23  0.009  0.102  0.049-  40 2.49  62 2.55  70 2.57  41 2.59  45 2.66  76 2.69  24 2.70  35 2.74
                            53 3.07
  24  0.138  0.927  0.142-  79 2.46  35 2.50  77 2.54  58 2.54  53 2.56  55 2.59  38 2.59  73 2.64
                            70 2.65  23 2.70  66 2.83
  25  0.377  0.449  0.406-  30 2.75  15 2.77   3 2.78  13 2.79  14 2.80  18 2.81  17 2.81   5 2.83
                            16 2.94
  26  0.480  0.554  0.230-  74 2.50  44 2.51  73 2.52  51 2.59  18 2.60  79 2.60  30 2.62  78 2.62
                            32 2.66  67 2.70
  27  0.626  0.707  0.414-  44 2.49  61 2.69   7 2.76   8 2.76  11 2.77  29 2.81  15 2.85  12 2.86
                            14 2.89
  28  0.953  0.759  0.204-  58 2.53  50 2.61  66 2.61  42 2.62  36 2.63  33 2.65   1 2.70   2 2.76
                            64 2.80  49 2.88  34 3.22  59 3.23  35 3.30
  29  0.796  0.632  0.311-  39 2.60  49 2.60  32 2.61  75 2.62  42 2.63  33 2.64  44 2.66  12 2.67
                             1 2.74   7 2.79  61 2.81  27 2.81
  30  0.274  0.606  0.302-  79 2.43  33 2.60  64 2.61  26 2.62  16 2.66   3 2.75  25 2.75  14 2.86
                             2 2.93  18 2.94  52 3.31
  31  0.187  0.262  0.225-  70 2.52  57 2.57  65 2.58  55 2.59   3 2.62  39 2.63  43 2.63  42 2.72
                            80 2.73  21 2.74  68 2.76  64 2.79  22 3.06
  32  0.711  0.561  0.214-  69 2.53  51 2.56  54 2.61  29 2.61  49 2.62  26 2.66  65 2.66  50 2.66
                            42 2.68  75 2.70  78 2.71  67 2.73  44 2.75
  33  0.042  0.609  0.305-  42 2.46  64 2.51  39 2.51  30 2.60  29 2.64  28 2.65   5 2.68   3 2.72
                            16 2.75  12 2.80   1 2.94   2 3.02
  34  0.782  0.884  0.080-  48 2.38  35 2.38  50 2.53  66 2.54  36 2.55  62 2.67  20 2.70  28 3.22

  35  0.002  0.866  0.072-  36 2.37  34 2.38  66 2.43  24 2.50  58 2.60  23 2.74  62 2.75  28 3.30

  36  0.006  0.657  0.094-  50 2.33  35 2.37  58 2.38  21 2.49  34 2.55  28 2.63
  37  0.628  0.234  0.150-  41 2.41  56 2.42  59 2.43  67 2.44  62 2.45  68 2.50  51 2.50  74 2.51
                            20 2.60  66 2.60
  38  0.361  0.942  0.135-  53 2.40  45 2.41  63 2.42  57 2.43  48 2.45  55 2.45  54 2.46  78 2.48
                            80 2.54  73 2.59  24 2.59  70 2.83
  39  0.022  0.397  0.316-  42 2.46  33 2.51  75 2.57   7 2.58  65 2.58  29 2.60   5 2.62  31 2.63
                            22 2.64   3 2.67  10 2.78
  40  0.013  0.321  0.044-  69 2.32  76 2.45  21 2.48  23 2.49  70 2.51  45 2.63  71 2.93
  41  0.844  0.228  0.139-  67 2.35  76 2.37  77 2.38  37 2.41  62 2.44  51 2.48  69 2.48  66 2.49
                            65 2.58  23 2.59  70 2.61
  42  0.967  0.520  0.219-  39 2.46  33 2.46  50 2.48  64 2.48  65 2.50  28 2.62  29 2.63  69 2.65
                            21 2.67  32 2.68  31 2.72
  43  0.304  0.099  0.319-  52 2.44  80 2.46  55 2.52   8 2.55  22 2.58  61 2.58  19 2.61  31 2.63
                            13 2.70  10 2.70   3 2.80
  44  0.552  0.648  0.317-  61 2.46  78 2.48  27 2.49  26 2.51  14 2.55  52 2.56  15 2.60  29 2.66
                            75 2.74  32 2.75
  45  0.251  0.091  0.049-  38 2.41  57 2.45  53 2.48  70 2.50  63 2.54  40 2.63  23 2.66
  46  0.529  0.612  0.047-  54 2.37  73 2.44  51 2.45  71 2.47  72 2.53  53 2.63  56 2.72  76 2.87
                            63 3.07
  47  0.334  0.361  0.072-  74 2.29  56 2.44  21 2.44  57 2.50  72 2.50  20 2.52
  48  0.581  0.937  0.137-  49 2.29  63 2.35  34 2.38  54 2.38  80 2.38  38 2.45  59 2.46  20 2.50
                            57 2.63  50 2.74
  49  0.677  0.809  0.223-  48 2.29  50 2.34  61 2.45  78 2.47   1 2.48  59 2.54  80 2.57  29 2.60
                            32 2.62  54 2.79  28 2.88
  50  0.810  0.679  0.140-  36 2.33  49 2.34  54 2.38  71 2.39  42 2.48  69 2.52  34 2.53  28 2.61
                            32 2.66  48 2.74  21 3.30
  51  0.629  0.454  0.133-  56 2.40  76 2.44  46 2.45  41 2.48  37 2.50  67 2.53  32 2.56  26 2.59
                            74 2.59  69 2.66  73 2.78  54 2.83
  52  0.321  0.873  0.317-  55 2.36  79 2.41  61 2.43  43 2.44  78 2.45  14 2.52   8 2.55  44 2.56
                             6 2.62  22 3.05   2 3.25  30 3.31
  53  0.299  0.850  0.050-  73 2.39  38 2.40  45 2.48  24 2.56  63 2.58  46 2.63  72 2.82  23 3.07

  54  0.581  0.726  0.124-  46 2.37  50 2.38  48 2.38  73 2.40  71 2.42  63 2.42  38 2.46  78 2.50
                            32 2.61  49 2.79  51 2.83
  55  0.229  0.013  0.230-  52 2.36  80 2.44  79 2.44  38 2.45  43 2.52  22 2.52  78 2.56  24 2.59
                            31 2.59  77 2.61  70 2.62
  56  0.549  0.361  0.055-  51 2.40  37 2.42  47 2.44  74 2.52  76 2.56  62 2.60  72 2.61  20 2.66
                            46 2.72
  57  0.344  0.167  0.132-  38 2.43  45 2.45  80 2.47  47 2.50  20 2.52  68 2.55  31 2.57  48 2.63
                            21 2.64  70 2.71
  58  0.176  0.684  0.148-  36 2.38  72 2.39  64 2.41  73 2.43  28 2.53  79 2.53  24 2.54  74 2.56
                            35 2.60
  59  0.661  0.042  0.213-  66 2.38  37 2.43  48 2.46  19 2.47  49 2.54  68 2.55   1 2.56  80 2.59
                            60 2.68  28 3.23
  60  0.784  0.117  0.297-  67 2.46  77 2.53   1 2.64  18 2.67  59 2.68   2 2.71   4 2.71  17 2.80
                             9 2.86  19 2.91  22 3.23
  61  0.538  0.873  0.316-  52 2.43  49 2.45  44 2.46  78 2.48  80 2.52  43 2.58  19 2.64  11 2.64
                             8 2.68  27 2.69  29 2.81   1 2.87
  62  0.773  0.123  0.060-  66 2.43  41 2.44  37 2.45  20 2.53  23 2.55  56 2.60  76 2.63  34 2.67
                            35 2.75
  63  0.500  0.898  0.045-  48 2.35  54 2.42  38 2.42  45 2.54  53 2.58  20 2.89  46 3.07
  64  0.196  0.505  0.214-  58 2.41  42 2.48  33 2.51  74 2.52   3 2.55  30 2.61  68 2.66  21 2.70
                            31 2.79  28 2.80
  65  0.935  0.315  0.226-  69 2.40  75 2.41  67 2.41  77 2.43  42 2.50  22 2.52  70 2.53  41 2.58
                            39 2.58  31 2.58  32 2.66
  66  0.858  0.002  0.156-  77 2.38  59 2.38  62 2.43  35 2.43  41 2.49  34 2.54  37 2.60  28 2.61
                            24 2.83
  67  0.721  0.315  0.230-  41 2.35  75 2.41  65 2.41  37 2.44  18 2.45  60 2.46  51 2.53  26 2.70
                            77 2.70  32 2.73
  68  0.430  0.266  0.214-  74 2.43  37 2.50  57 2.55  59 2.55  19 2.57   3 2.62  80 2.64  64 2.66
                            18 2.66  31 2.76
  69  0.877  0.430  0.129-  40 2.32  71 2.34  65 2.40  41 2.48  76 2.49  50 2.52  32 2.53  21 2.60
                            42 2.65  70 2.65  51 2.66
  70  0.096  0.181  0.140-  45 2.50  40 2.51  31 2.52  65 2.53  23 2.57  41 2.61  55 2.62  24 2.65
                            69 2.65  57 2.71  21 2.72  77 2.83  38 2.83
  71  0.760  0.589  0.052-  69 2.34  50 2.39  54 2.42  46 2.47  76 2.56  40 2.93
  72  0.315  0.592  0.059-  58 2.39  74 2.39  73 2.42  47 2.50  46 2.53  56 2.61  53 2.82
  73  0.382  0.701  0.136-  53 2.39  54 2.40  72 2.42  58 2.43  46 2.44  79 2.49  26 2.52  38 2.59
                            78 2.60  24 2.64  74 2.69  51 2.78
  74  0.400  0.454  0.149-  47 2.29  72 2.39  68 2.43  26 2.50  37 2.51  56 2.52  64 2.52  58 2.56
                            51 2.59  73 2.69
  75  0.792  0.400  0.314-  65 2.41  67 2.41  15 2.54   7 2.56  39 2.57  29 2.62   9 2.62  32 2.70
                            44 2.74  22 2.89  18 3.20
  76  0.781  0.351  0.046-  41 2.37  51 2.44  40 2.45  69 2.49  71 2.56  56 2.56  62 2.63  23 2.69
                            46 2.87
  77  0.970  0.084  0.222-  41 2.38  66 2.38  65 2.43  22 2.43  60 2.53  24 2.54   2 2.54  55 2.61
                            67 2.70  70 2.83
  78  0.465  0.795  0.225-  52 2.45  49 2.47  44 2.48  61 2.48  79 2.48  38 2.48  80 2.48  54 2.50
                            55 2.56  73 2.60  26 2.62  32 2.71
  79  0.249  0.786  0.233-  52 2.41  30 2.43  55 2.44  24 2.46  78 2.48  73 2.49   2 2.49  58 2.53
                            26 2.60
  80  0.439  0.028  0.225-  48 2.38  55 2.44  43 2.46  57 2.47  78 2.48  19 2.51  61 2.52  38 2.54
                            49 2.57  59 2.59  68 2.64  31 2.73
  81  0.039  0.131  0.437-  10 1.82   9 1.87   6 1.92
 
  LATTYP: Found a hexagonal cell.
 ALAT       =    11.2227001190
 C/A-ratio  =     1.9603125600
  
  Lattice vectors:
  
 A1 = (   5.6113500595,  -9.7191434021,   0.0000000000)
 A2 = ( -11.2227001190,   0.0000000000,   0.0000000000)
 A3 = (   0.0000000000,   0.0000000000, -22.0000000000)


Analysis of symmetry for initial positions (statically):
=====================================================================
 Subroutine PRICEL returns:
 Original cell was already a primitive cell.
 

 Routine SETGRP: Setting up the symmetry group for a 
 hexagonal supercell.


 Subroutine GETGRP returns: Found  1 space group operations
 (whereof  1 operations were pure point group operations)
 out of a pool of 24 trial point group operations.


The static configuration has the point symmetry C_1 .


Analysis of symmetry for dynamics (positions and initial velocities):
=====================================================================
 Subroutine PRICEL returns:
 Original cell was already a primitive cell.
 

 Routine SETGRP: Setting up the symmetry group for a 
 hexagonal supercell.


 Subroutine GETGRP returns: Found  1 space group operations
 (whereof  1 operations were pure point group operations)
 out of a pool of 24 trial point group operations.


The dynamic configuration has the point symmetry C_1 .


Analysis of constrained symmetry for selective dynamics:
=====================================================================
 Subroutine PRICEL returns:
 Original cell was already a primitive cell.
 

 Routine SETGRP: Setting up the symmetry group for a 
 hexagonal supercell.


 Subroutine GETGRP returns: Found  1 space group operations
 (whereof  1 operations were pure point group operations)
 out of a pool of 24 trial point group operations.


The constrained configuration has the point symmetry C_1 .


Analysis of structural, dynamic, and magnetic symmetry:
=====================================================================
 Subroutine PRICEL returns:
 Original cell was already a primitive cell.
 

 Routine SETGRP: Setting up the symmetry group for a 
 hexagonal supercell.


 Subroutine GETGRP returns: Found  1 space group operations
 (whereof  1 operations were pure point group operations)
 out of a pool of 24 trial point group operations.


The magnetic configuration has the point symmetry C_1 .


 Subroutine INISYM returns: Found  1 space group operations
 (whereof  1 operations are pure point group operations),
 and found     1 'primitive' translations

 
 
 KPOINTS: mesh auto                               

Automatic generation of k-mesh.
Space group operators:
 irot       det(A)        alpha          n_x          n_y          n_z        tau_x        tau_y        tau_z
    1     1.000000     0.000000     1.000000     0.000000     0.000000     0.000000     0.000000     0.000000
 
 Subroutine IBZKPT returns following result:
 ===========================================
 
 Found      4 irreducible k-points:
 
 Following reciprocal coordinates:
            Coordinates               Weight
  0.000000  0.000000  0.000000      1.000000
  0.500000  0.000000  0.000000      1.000000
  0.000000  0.500000  0.000000      1.000000
  0.500000  0.500000  0.000000      1.000000
 
 Following cartesian coordinates:
            Coordinates               Weight
  0.000000  0.000000  0.000000      1.000000
  0.044553 -0.025722  0.000000      1.000000
  0.000000  0.051445  0.000000      1.000000
  0.044553  0.025722  0.000000      1.000000
 
 TETIRR: Found     12 inequivalent tetrahedra from       24
 
 Subroutine IBZKPT_HF returns following result:
 ==============================================
 
 Found      4 k-points in 1st BZ
 the following      4 k-points will be used (e.g. in the exchange kernel)
 Following reciprocal coordinates:   # in IRBZ
  0.000000  0.000000  0.000000    0.25000000   1 t-inv F
  0.500000  0.000000  0.000000    0.25000000   2 t-inv F
  0.000000  0.500000  0.000000    0.25000000   3 t-inv F
  0.500000  0.500000  0.000000    0.25000000   4 t-inv F


--------------------------------------------------------------------------------------------------------




 Dimension of arrays:
   k-points           NKPTS =      4   k-points in BZ     NKDIM =      4   number of bands    NBANDS=    576
   number of dos      NEDOS =    301   number of ions     NIONS =     81
   non local maximal  LDIM  =      6   non local SUM 2l+1 LMDIM =     18
   total plane-waves  NPLWV = ******
   max r-space proj   IRMAX =   7929   max aug-charges    IRDMAX=  34542
   dimension x,y,z NGX =    90 NGY =   90 NGZ =  168
   dimension x,y,z NGXF=   180 NGYF=  180 NGZF=  336
   support grid    NGXF=   180 NGYF=  180 NGZF=  336
   ions per type =              32  23  25   1
   NGX,Y,Z   is equivalent  to a cutoff of  13.33, 13.33, 12.70 a.u.
   NGXF,Y,Z  is equivalent  to a cutoff of  26.66, 26.66, 25.39 a.u.

 SYSTEM =  Pt111                                   
 POSCAR =  11.26                                   

 Startparameter for this run:
   NWRITE =      2    write-flag & timer
   PREC   = accura    normal or accurate (medium, high low for compatibility)
   ISTART =      0    job   : 0-new  1-cont  2-samecut
   ICHARG =      2    charge: 1-file 2-atom 10-const
   ISPIN  =      2    spin polarized calculation?
   LNONCOLLINEAR =      F non collinear calculations
   LSORBIT =      F    spin-orbit coupling
   INIWAV =      1    electr: 0-lowe 1-rand  2-diag
   LASPH  =      F    aspherical Exc in radial PAW
   METAGGA=      F    non-selfconsistent MetaGGA calc.

 Electronic Relaxation 1
   ENCUT  =  550.0 eV  40.42 Ry    6.36 a.u.  21.46 21.46 42.07*2*pi/ulx,y,z
   ENINI  =  550.0     initial cutoff
   ENAUG  =  544.6 eV  augmentation charge cutoff
   NELM   =    200;   NELMIN=  2; NELMDL= -5     # of ELM steps 
   EDIFF  = 0.1E-04   stopping-criterion for ELM
   LREAL  =      T    real-space projection
   NLSPLINE    = F    spline interpolate recip. space projectors
   LCOMPAT=      F    compatible to vasp.4.4
   GGA_COMPAT  = T    GGA compatible to vasp.4.4-vasp.4.6
   LMAXPAW     = -100 max onsite density
   LMAXMIX     =    2 max onsite mixed and CHGCAR
   VOSKOWN=      0    Vosko Wilk Nusair interpolation
   ROPT   =   -0.00025  -0.00025  -0.00025  -0.00025
 Ionic relaxation
   EDIFFG = -.5E-01   stopping-criterion for IOM
   NSW    =   1009    number of steps for IOM
   NBLOCK =      1;   KBLOCK =   1009    inner block; outer block 
   IBRION =      5    ionic relax: 0-MD 1-quasi-New 2-CG
   NFREE  =      2    steps in history (QN), initial steepest desc. (CG)
   ISIF   =      2    stress and relaxation
   IWAVPR =     11    prediction:  0-non 1-charg 2-wave 3-comb
   ISYM   =      2    0-nonsym 1-usesym 2-fastsym
   LCORR  =      T    Harris-Foulkes like correction to forces

   POTIM  = 0.5000    time-step for ionic-motion
   TEIN   =    0.0    initial temperature
   TEBEG  =    0.0;   TEEND  =   0.0 temperature during run
   SMASS  =  -3.00    Nose mass-parameter (am)
   estimated Nose-frequenzy (Omega)   =  0.10E-29 period in steps =****** mass=  -0.288E-26a.u.
   SCALEE = 1.0000    scale energy and forces
   NPACO  =    256;   APACO  = 16.0  distance and # of slots for P.C.
   PSTRESS=    0.0 pullay stress

  Mass of Ions in am
   POMASS = 195.08 58.93 58.69  1.00
  Ionic Valenz
   ZVAL   =  10.00  9.00 10.00  1.00
  Atomic Wigner-Seitz radii
   RWIGS  =  -1.00 -1.00 -1.00 -1.00
  virtual crystal weights 
   VCA    =   1.00  1.00  1.00  1.00
   NELECT =     778.0000    total number of electrons
   NUPDOWN=      -1.0000    fix difference up-down

 DOS related values:
   EMIN   =  10.00;   EMAX   =-10.00  energy-range for DOS
   EFERMI =   0.00
   ISMEAR =    -5;   SIGMA  =   0.10  broadening in eV -4-tet -1-fermi 0-gaus

 Electronic relaxation 2 (details)
   IALGO  =     68    algorithm
   LDIAG  =      T    sub-space diagonalisation (order eigenvalues)
   LSUBROT=      F    optimize rotation matrix (better conditioning)
   TURBO    =      0    0=normal 1=particle mesh
   IRESTART =      0    0=no restart 2=restart with 2 vectors
   NREBOOT  =      0    no. of reboots
   NMIN     =      0    reboot dimension
   EREF     =   0.00    reference energy to select bands
   IMIX   =      4    mixing-type and parameters
     AMIX     =   0.40;   BMIX     =  1.00
     AMIX_MAG =   1.60;   BMIX_MAG =  1.00
     AMIN     =   0.10
     WC   =   100.;   INIMIX=   1;  MIXPRE=   1;  MAXMIX= -45

 Intra band minimization:
   WEIMIN = 0.0010     energy-eigenvalue tresh-hold
   EBREAK =  0.43E-08  absolut break condition
   DEPER  =   0.30     relativ break condition  

   TIME   =   0.40     timestep for ELM

  volume/ion in A,a.u.               =      29.63       199.92
  Fermi-wavevector in a.u.,A,eV,Ry     =   1.124653  2.125287 17.209264  1.264845
  Thomas-Fermi vector in A             =   2.261326
 
 Write flags
   LWAVE        =      F    write WAVECAR
   LDOWNSAMPLE  =      F    k-point downsampling of WAVECAR
   LCHARG       =      F    write CHGCAR
   LVTOT        =      F    write LOCPOT, total local potential
   LVHAR        =      F    write LOCPOT, Hartree potential only
   LELF         =      F    write electronic localiz. function (ELF)
   LORBIT       =      0    0 simple, 1 ext, 2 COOP (PROOUT), +10 PAW based schemes


 Dipole corrections
   LMONO  =      F    monopole corrections only (constant potential shift)
   LDIPOL =      F    correct potential (dipole corrections)
   IDIPOL =      0    1-x, 2-y, 3-z, 4-all directions 
   EPSILON=  1.0000000 bulk dielectric constant

 Exchange correlation treatment:
   GGA     =    --    GGA type
   LEXCH   =     8    internal setting for exchange type
   VOSKOWN=      0    Vosko Wilk Nusair interpolation
   LHFCALC =     F    Hartree Fock is set to
   LHFONE  =     F    Hartree Fock one center treatment
   AEXX    =    0.0000 exact exchange contribution

 Linear response parameters
   LEPSILON=     F    determine dielectric tensor
   LRPA    =     F    only Hartree local field effects (RPA)
   LNABLA  =     F    use nabla operator in PAW spheres
   LVEL    =     F    velocity operator in full k-point grid
   LINTERFAST=   F  fast interpolation
   KINTER  =     0    interpolate to denser k-point grid
   CSHIFT  =0.1000    complex shift for real part using Kramers Kronig
   OMEGAMAX=  -1.0    maximum frequency
   DEG_THRESHOLD= 0.2000000E-02 threshold for treating states as degnerate
   RTIME   =   -0.100 relaxation time in fs
  (WPLASMAI=    0.000 imaginary part of plasma frequency in eV, 0.658/RTIME)
   DFIELD  = 0.0000000 0.0000000 0.0000000 field for delta impulse in time
 
 Orbital magnetization related:
   ORBITALMAG=     F  switch on orbital magnetization
   LCHIMAG   =     F  perturbation theory with respect to B field
   DQ        =  0.001000  dq finite difference perturbation B field
   LLRAUG    =     F  two centre corrections for induced B field



--------------------------------------------------------------------------------------------------------


 finite differences
   using selective dynamics as specified on POSCAR
   WARNING: If single coordinates had been selected the selection of coordinates
            is made according to the corresponding   d i r e c t   coordinates!
            Don't support selection of single cartesian coordinates -- sorry ...
  !
 charge density and potential will be updated during run
 spin polarized calculation
 RMM-DIIS sequential band-by-band and
  variant of blocked Davidson during initial phase
 perform sub-space diagonalisation
    before iterative eigenvector-optimisation
 modified Broyden-mixing scheme, WC =      100.0
 initial mixing is a Kerker type mixing with AMIX =  0.4000 and BMIX =      1.0000
 Hartree-type preconditioning will be used
 using additional bands          187
 real space projection scheme for non local part
 use partial core corrections
 calculate Harris-corrections to forces 
   (improved forces if not selfconsistent)
 use gradient corrections 
 use of overlap-Matrix (Vanderbilt PP)
 Fermi weights with tetrahedron method with Bloechl corrections


--------------------------------------------------------------------------------------------------------


  energy-cutoff  :      550.00
  volume of cell :     2399.65
      direct lattice vectors                 reciprocal lattice vectors
    11.222700119  0.000000000  0.000000000     0.089105116 -0.051444863  0.000000000
     5.611350060  9.719143402  0.000000000     0.000000000  0.102889726  0.000000000
     0.000000000  0.000000000 22.000000000     0.000000000  0.000000000  0.045454545

  length of vectors
    11.222700119 11.222700119 22.000000000     0.102889726  0.102889726  0.045454545


 
 k-points in units of 2pi/SCALE and weight: mesh auto                               
   0.00000000  0.00000000  0.00000000       0.250
   0.04455256 -0.02572243  0.00000000       0.250
   0.00000000  0.05144486  0.00000000       0.250
   0.04455256  0.02572243  0.00000000       0.250
 
 k-points in reciprocal lattice and weights: mesh auto                               
   0.00000000  0.00000000  0.00000000       0.250
   0.50000000  0.00000000  0.00000000       0.250
   0.00000000  0.50000000  0.00000000       0.250
   0.50000000  0.50000000  0.00000000       0.250
 
 position of ions in fractional coordinates (direct lattice) 
   0.78914835  0.87923516  0.30122427
   0.03135093  0.88161367  0.29210739
   0.27669117  0.36042348  0.31108114
   0.87596800  0.96341403  0.39960235
   0.11466962  0.47005785  0.41006483
   0.12967495  0.95135283  0.39970205
   0.87211137  0.46147192  0.41254453
   0.37901275  0.95229785  0.41536037
   0.86530890  0.21378218  0.40003745
   0.13128918  0.21790929  0.41422120
   0.62954867  0.95193249  0.40960980
   0.87644690  0.71487643  0.40820976
   0.38061385  0.19903575  0.41368496
   0.37300040  0.70066893  0.40028917
   0.61886983  0.45829277  0.39937180
   0.11743173  0.71383278  0.40024044
   0.62937742  0.20162946  0.40405102
   0.53900976  0.34693362  0.30075229
   0.52795416  0.11293875  0.30851415
   0.54569241  0.12647739  0.06683304
   0.11791659  0.40792499  0.11908862
   0.05390212  0.14795330  0.31089284
   0.00892895  0.10176852  0.04917651
   0.13783207  0.92691145  0.14197368
   0.37663177  0.44935526  0.40576826
   0.47979716  0.55399880  0.22971747
   0.62569111  0.70692274  0.41375504
   0.95252345  0.75898977  0.20420405
   0.79577226  0.63210704  0.31054483
   0.27418952  0.60620996  0.30228405
   0.18749030  0.26198206  0.22539890
   0.71089206  0.56100734  0.21410215
   0.04166559  0.60877896  0.30467274
   0.78196837  0.88367072  0.08012597
   0.00167860  0.86570870  0.07172203
   0.00649475  0.65686199  0.09367822
   0.62789021  0.23379040  0.14972974
   0.36050112  0.94235243  0.13470415
   0.02249020  0.39688029  0.31618362
   0.01296097  0.32139498  0.04442433
   0.84423970  0.22761319  0.13891977
   0.96744603  0.52048649  0.21885007
   0.30373507  0.09899953  0.31931161
   0.55158026  0.64779789  0.31718401
   0.25085454  0.09128101  0.04878728
   0.52913784  0.61162204  0.04697948
   0.33389242  0.36126594  0.07221963
   0.58147332  0.93651314  0.13694302
   0.67732667  0.80921239  0.22305304
   0.80979447  0.67906481  0.14024348
   0.62937817  0.45366950  0.13325724
   0.32144672  0.87314872  0.31662067
   0.29919813  0.84983568  0.05000644
   0.58103448  0.72612545  0.12392179
   0.22907234  0.01294552  0.22967573
   0.54871865  0.36069037  0.05545242
   0.34411655  0.16690962  0.13164412
   0.17554400  0.68420617  0.14761894
   0.66082635  0.04249037  0.21304482
   0.78434559  0.11690520  0.29677206
   0.53758143  0.87343899  0.31595734
   0.77284397  0.12278263  0.06048458
   0.50030742  0.89844953  0.04455515
   0.19571508  0.50522867  0.21438636
   0.93546177  0.31542046  0.22552712
   0.85824468  0.00195101  0.15611973
   0.72104290  0.31497628  0.22969726
   0.43002289  0.26577701  0.21377066
   0.87703755  0.42955743  0.12878365
   0.09634819  0.18069822  0.13969274
   0.75988870  0.58867799  0.05155611
   0.31527374  0.59151669  0.05925234
   0.38179216  0.70126590  0.13646584
   0.40042658  0.45377032  0.14884727
   0.79206506  0.40034675  0.31442644
   0.78089926  0.35148021  0.04598080
   0.96954404  0.08430315  0.22196820
   0.46486898  0.79463888  0.22533144
   0.24890496  0.78598962  0.23267623
   0.43862206  0.02771317  0.22450195
   0.03890081  0.13060027  0.43683310
 
 position of ions in cartesian coordinates  (Angst):
  13.79007153  8.54541259  6.62693402
   5.29888502  8.56852968  6.42636252
   5.12768429  3.50300750  6.84378515
  15.23677954  9.36355910  8.79125164
   3.92456197  4.56855968  9.02142618
   6.79367688  9.24633456  8.79344502
  12.37692485  4.48511173  9.07597962
   9.59722307  9.25551939  9.13792818
  10.91070898  2.07777967  8.80082395
   2.69618442  2.11789161  9.11286639
  12.40686234  9.25196841  9.01141569
  13.84752264  6.94798650  8.98061468
   5.38837436  1.93445700  9.10106914
   8.11777020  6.80990176  8.80636178
   9.51703165  4.45421319  8.78617950
   5.32346666  6.93784316  8.80528959
   8.19472751  1.95966568  8.88912240
   7.99591093  3.37189765  6.61655044
   6.55881001  1.09766788  6.78731136
   6.83385120  1.22925189  1.47032698
   3.61235247  3.96468152  2.61994962
   1.43514514  1.43797937  6.83964247
   0.67126575  0.98910281  1.08188317
   6.74807265  9.00878530  3.12342105
   6.74831510  4.36734818  8.92690175
   8.49330084  5.38439383  5.05378437
  10.98873462  6.87068349  9.10261087
  14.94884239  7.37673046  4.49248916
  12.47768726  6.14353892  6.83198635
   6.47880300  5.89184151  6.65024901
   3.57422044  2.54624125  4.95877580
  11.12613698  5.45251083  4.71024739
   3.88367230  5.91681003  6.70280022
  13.73438227  8.58852246  1.76277137
   4.87663302  8.41394697  1.57788465
   3.75877116  6.38413590  2.06092090
   8.35850333  2.27224245  3.29405432
   9.33366537  9.15885838  2.96349132
   2.47943502  3.85733646  6.95603955
   1.94891684  3.12368389  0.97733531
  10.75186628  2.21220519  3.05623495
  13.77798860  5.05868282  4.81470165
   3.96424860  0.96219060  7.02485538
   9.82524059  6.29604059  6.97804813
   3.32747495  0.88717326  1.07332023
   9.37038068  5.94444230  1.03354859
   5.77436416  3.51119550  1.58883193
  11.78080373  9.10210551  3.01274644
  12.14220806  7.86485128  4.90716692
  12.89855082  6.59992829  3.08535659
   9.60902083  4.40927897  2.93165935
   8.50704322  8.48625758  6.96565465
   8.12653637  8.25967484  1.10014163
  10.59531978  7.05731733  2.72627938
   2.64345207  0.12581940  5.05286608
   8.18206475  3.50560142  1.21995326
   4.79850516  1.62221856  2.89617069
   5.80939796  6.64989784  3.24761674
   7.65468432  0.41297001  4.68698615
   9.45847139  1.13621839  6.52898533
  10.93428709  8.48907882  6.95106138
   9.36237240  1.19334199  1.33066085
  10.65631497  8.73215981  0.98021322
   5.03146660  4.91038993  4.71649990
  12.26834149  3.06561666  4.96159659
   9.64277050  0.01896212  3.43463404
   9.85949038  3.06129963  5.05333976
   6.31738572  2.58312482  4.70295446
  12.25312658  4.17493029  2.83324027
   2.09524784  1.75623189  3.07324021
  11.83128130  5.72144585  1.13423452
   6.85742987  5.74903551  1.30355140
   8.21978744  6.81570388  3.00224843
   7.04013147  4.41025877  3.27463986
  11.13559444  3.89102750  6.91738171
  10.73607676  3.41608656  1.01157751
  11.35395654  0.81935443  4.88330047
   9.67608211  7.72320924  4.95729164
   7.20384860  7.63914586  5.11887697
   5.07803210  0.26934830  4.93904295
   1.16941592  1.26932274  9.61032826
 


--------------------------------------------------------------------------------------------------------


 k-point  1 :   0.0000 0.0000 0.0000  plane waves:   70321
 k-point  2 :   0.5000 0.0000 0.0000  plane waves:   70264
 k-point  3 :   0.0000 0.5000 0.0000  plane waves:   70264
 k-point  4 :   0.5000 0.5000 0.0000  plane waves:   70264

 maximum and minimum number of plane-waves per node :     70321    70264

 maximum number of plane-waves:     70321
 maximum index in each direction: 
   IXMAX=   21   IYMAX=   21   IZMAX=   42
   IXMIN=  -21   IYMIN=  -21   IZMIN=  -42


 serial   3D FFT for wavefunctions
 parallel 3D FFT for charge:
    minimum data exchange during FFTs selected (reduces bandwidth)


 total amount of memory used by VASP MPI-rank0   379495. kBytes
=======================================================================

   base      :      30000. kBytes
   nonlr-proj:      90609. kBytes
   fftplans  :      13535. kBytes
   grid      :     132462. kBytes
   one-center:       2519. kBytes
   wavefun   :     110370. kBytes
 
     INWAV:  cpu time    0.0001: real time    0.0001
 Broyden mixing: mesh for mixing (old mesh)
   NGX = 43   NGY = 43   NGZ = 85
  (NGX  =180   NGY  =180   NGZ  =336)
  gives a total of 157165 points

 initial charge density was supplied:
 charge density of overlapping atoms calculated
 number of electron     778.0000000 magnetization     206.0000000
 keeping initial charge density in first step


--------------------------------------------------------------------------------------------------------


 Maximum index for non-local projection operator         7659
 Maximum index for augmentation-charges         1121 (set IRDMAX)


--------------------------------------------------------------------------------------------------------


 First call to EWALD:  gamma=   0.132
 Maximum number of real-space cells 4x 4x 2
 Maximum number of reciprocal cells 2x 2x 4

    FEWALD:  cpu time    0.0042: real time    0.0064


--------------------------------------- Iteration      1(   1)  ---------------------------------------


    POTLOK:  cpu time    0.5119: real time    0.5163
    SETDIJ:  cpu time    0.0344: real time    0.0349
     EDDAV:  cpu time   55.7586: real time   56.0197
 BZINTS: Fermi energy: 15.093563;778.000000 electrons
         Band energy:6665.281889;  BLOECHL correction: -0.011996
       DOS:  cpu time    0.0216: real time    0.0224
    --------------------------------------------
      LOOP:  cpu time   56.3265: real time   56.5933

 eigenvalue-minimisations  :  9216
 total energy-change (2. order) : 0.6703646E+04  (-0.3448983E+05)
 number of electron     778.0000000 magnetization     206.0000000
 augmentation part      778.0000000 magnetization     206.0000000

 Free energy of the ion-electron system (eV)
  ---------------------------------------------------
  alpha Z        PSCENC =      1751.32544349
  Ewald energy   TEWEN  =    237261.39974205
  -Hartree energ DENC   =   -307320.13421474
  -exchange      EXHF   =         0.00000000
  -V(xc)+E(xc)   XCENC  =      1334.63063019
  PAW double counting   =     62871.68470781   -64853.88848185
  entropy T*S    EENTRO =         0.00000000
  eigenvalues    EBANDS =      6665.28188898
  atomic energy  EATOM  =     68993.34587830
  Solvation  Ediel_sol  =         0.00000000
  ---------------------------------------------------
  free energy    TOTEN  =      6703.64559423 eV

  energy without entropy =     6703.64559423  energy(sigma->0) =     6703.64559423


--------------------------------------------------------------------------------------------------------




--------------------------------------- Iteration      1(   2)  ---------------------------------------


     EDDAV:  cpu time   55.5611: real time   55.7093
 BZINTS: Fermi energy:  4.441260;778.000000 electrons
         Band energy: 305.142919;  BLOECHL correction: -0.005135
       DOS:  cpu time    0.0229: real time    0.0231
    --------------------------------------------
      LOOP:  cpu time   55.5840: real time   55.7324

 eigenvalue-minimisations  :  9216
 total energy-change (2. order) :-0.6360139E+04  (-0.5775174E+04)
 number of electron     778.0000000 magnetization     206.0000000
 augmentation part      778.0000000 magnetization     206.0000000

 Free energy of the ion-electron system (eV)
  ---------------------------------------------------
  alpha Z        PSCENC =      1751.32544349
  Ewald energy   TEWEN  =    237261.39974205
  -Hartree energ DENC   =   -307320.13421474
  -exchange      EXHF   =         0.00000000
  -V(xc)+E(xc)   XCENC  =      1334.63063019
  PAW double counting   =     62871.68470781   -64853.88848185
  entropy T*S    EENTRO =         0.00000000
  eigenvalues    EBANDS =       305.14291923
  atomic energy  EATOM  =     68993.34587830
  Solvation  Ediel_sol  =         0.00000000
  ---------------------------------------------------
  free energy    TOTEN  =       343.50662448 eV

  energy without entropy =      343.50662448  energy(sigma->0) =      343.50662448


--------------------------------------------------------------------------------------------------------




--------------------------------------- Iteration      1(   3)  ---------------------------------------


     EDDAV:  cpu time   59.0512: real time   59.2092
 BZINTS: Fermi energy:  2.811652;778.000000 electrons
         Band energy:-504.071498;  BLOECHL correction: -0.021142
       DOS:  cpu time    0.0236: real time    0.0237
    --------------------------------------------
      LOOP:  cpu time   59.0747: real time   59.2329

 eigenvalue-minimisations  :  9984
 total energy-change (2. order) :-0.8092144E+03  (-0.6958586E+03)
 number of electron     778.0000000 magnetization     206.0000000
 augmentation part      778.0000000 magnetization     206.0000000

 Free energy of the ion-electron system (eV)
  ---------------------------------------------------
  alpha Z        PSCENC =      1751.32544349
  Ewald energy   TEWEN  =    237261.39974205
  -Hartree energ DENC   =   -307320.13421474
  -exchange      EXHF   =         0.00000000
  -V(xc)+E(xc)   XCENC  =      1334.63063019
  PAW double counting   =     62871.68470781   -64853.88848185
  entropy T*S    EENTRO =         0.00000000
  eigenvalues    EBANDS =      -504.07149802
  atomic energy  EATOM  =     68993.34587830
  Solvation  Ediel_sol  =         0.00000000
  ---------------------------------------------------
  free energy    TOTEN  =      -465.70779277 eV

  energy without entropy =     -465.70779277  energy(sigma->0) =     -465.70779277


--------------------------------------------------------------------------------------------------------




--------------------------------------- Iteration      1(   4)  ---------------------------------------


     EDDAV:  cpu time   61.6723: real time   62.5263
 BZINTS: Fermi energy:  2.736458;778.000000 electrons
         Band energy:-543.041358;  BLOECHL correction: -0.024415
       DOS:  cpu time    0.0234: real time    0.0236
    --------------------------------------------
      LOOP:  cpu time   61.6958: real time   62.5499

 eigenvalue-minimisations  : 10368
 total energy-change (2. order) :-0.3896986E+02  (-0.3805422E+02)
 number of electron     778.0000000 magnetization     206.0000000
 augmentation part      778.0000000 magnetization     206.0000000

 Free energy of the ion-electron system (eV)
  ---------------------------------------------------
  alpha Z        PSCENC =      1751.32544349
  Ewald energy   TEWEN  =    237261.39974205
  -Hartree energ DENC   =   -307320.13421474
  -exchange      EXHF   =         0.00000000
  -V(xc)+E(xc)   XCENC  =      1334.63063019
  PAW double counting   =     62871.68470781   -64853.88848185
  entropy T*S    EENTRO =         0.00000000
  eigenvalues    EBANDS =      -543.04135793
  atomic energy  EATOM  =     68993.34587830
  Solvation  Ediel_sol  =         0.00000000
  ---------------------------------------------------
  free energy    TOTEN  =      -504.67765268 eV

  energy without entropy =     -504.67765268  energy(sigma->0) =     -504.67765268


--------------------------------------------------------------------------------------------------------




--------------------------------------- Iteration      1(   5)  ---------------------------------------


     EDDAV:  cpu time   67.4017: real time   67.6032
 BZINTS: Fermi energy:  2.735285;778.000000 electrons
         Band energy:-543.728510;  BLOECHL correction: -0.024503
       DOS:  cpu time    0.0227: real time    0.0233
    CHARGE:  cpu time    3.0426: real time    3.0532
    MIXING:  cpu time    0.0114: real time    0.0116
    --------------------------------------------
      LOOP:  cpu time   70.4784: real time   70.6913

 eigenvalue-minimisations  : 11712
 total energy-change (2. order) :-0.6871521E+00  (-0.6866932E+00)
 number of electron     778.0000034 magnetization     194.0917570
 augmentation part      338.1280333 magnetization     164.6107397

 Broyden mixing:
  rms(total) = 0.10629E+02    rms(broyden)= 0.10629E+02
  rms(prec ) = 0.10996E+02
  weight for this iteration     100.00

 Free energy of the ion-electron system (eV)
  ---------------------------------------------------
  alpha Z        PSCENC =      1751.32544349
  Ewald energy   TEWEN  =    237261.39974205
  -Hartree energ DENC   =   -307320.13421474
  -exchange      EXHF   =         0.00000000
  -V(xc)+E(xc)   XCENC  =      1334.63063019
  PAW double counting   =     62871.68470781   -64853.88848185
  entropy T*S    EENTRO =         0.00000000
  eigenvalues    EBANDS =      -543.72851006
  atomic energy  EATOM  =     68993.34587830
  Solvation  Ediel_sol  =         0.00000000
  ---------------------------------------------------
  free energy    TOTEN  =      -505.36480481 eV

  energy without entropy =     -505.36480481  energy(sigma->0) =     -505.36480481


--------------------------------------------------------------------------------------------------------




--------------------------------------- Iteration      1(   6)  ---------------------------------------


    POTLOK:  cpu time    0.4843: real time    0.4871
    SETDIJ:  cpu time    0.0327: real time    0.0328
    EDDIAG:  cpu time    9.7385: real time    9.7659
  RMM-DIIS:  cpu time   37.5665: real time   37.6978
    ORTHCH:  cpu time    1.3399: real time    1.3435
 BZINTS: Fermi energy:  1.251020;778.000000 electrons
         Band energy:***********;  BLOECHL correction: -0.019006
       DOS:  cpu time    0.0255: real time    0.0255
    CHARGE:  cpu time    3.0312: real time    3.0393
    MIXING:  cpu time    0.0118: real time    0.0125
    --------------------------------------------
      LOOP:  cpu time   52.2305: real time   52.4045

 eigenvalue-minimisations  :  9400
 total energy-change (2. order) :-0.2434820E+03  (-0.9915729E+02)
 number of electron     778.0000050 magnetization     190.7566438
 augmentation part      408.5248608 magnetization     162.3910725

 Broyden mixing:
  rms(total) = 0.20667E+02    rms(broyden)= 0.20667E+02
  rms(prec ) = 0.25611E+02
  weight for this iteration     100.00

 eigenvalues of (default mixing * dielectric matrix)
  average eigenvalue GAMMA=   0.1765
  0.1765

 Free energy of the ion-electron system (eV)
  ---------------------------------------------------
  alpha Z        PSCENC =      1751.32544349
  Ewald energy   TEWEN  =    237261.39974205
  -Hartree energ DENC   =   -306047.00560791
  -exchange      EXHF   =         0.00000000
  -V(xc)+E(xc)   XCENC  =      1289.06094473
  PAW double counting   =     67904.83436937   -69658.46476155
  entropy T*S    EENTRO =         0.00000000
  eigenvalues    EBANDS =     -2243.34280484
  atomic energy  EATOM  =     68993.34587830
  Solvation  Ediel_sol  =         0.00000000
  ---------------------------------------------------
  free energy    TOTEN  =      -748.84679634 eV

  energy without entropy =     -748.84679634  energy(sigma->0) =     -748.84679634


--------------------------------------------------------------------------------------------------------




--------------------------------------- Iteration      1(   7)  ---------------------------------------


    POTLOK:  cpu time    0.4810: real time    0.4834
    SETDIJ:  cpu time    0.0330: real time    0.0331
    EDDIAG:  cpu time    9.7375: real time    9.7637
  RMM-DIIS:  cpu time   37.1836: real time   37.2866
    ORTHCH:  cpu time    1.3430: real time    1.3550
 BZINTS: Fermi energy:  2.048622;778.000000 electrons
         Band energy:***********;  BLOECHL correction: -0.005196
       DOS:  cpu time    0.0251: real time    0.0252
    CHARGE:  cpu time    3.0045: real time    3.0328
    MIXING:  cpu time    0.0117: real time    0.0118
    --------------------------------------------
      LOOP:  cpu time   51.8194: real time   51.9916

 eigenvalue-minimisations  :  9238
 total energy-change (2. order) : 0.2332391E+03  (-0.1712292E+02)
 number of electron     778.0000038 magnetization     187.8334956
 augmentation part      371.7532757 magnetization     152.9404483

 Broyden mixing:
  rms(total) = 0.14937E+02    rms(broyden)= 0.14937E+02
  rms(prec ) = 0.18173E+02
  weight for this iteration     100.00

 eigenvalues of (default mixing * dielectric matrix)
  average eigenvalue GAMMA=   0.2172
  0.2172  0.2172

 Free energy of the ion-electron system (eV)
  ---------------------------------------------------
  alpha Z        PSCENC =      1751.32544349
  Ewald energy   TEWEN  =    237261.39974205
  -Hartree energ DENC   =   -306644.45926696
  -exchange      EXHF   =         0.00000000
  -V(xc)+E(xc)   XCENC  =      1305.77708599
  PAW double counting   =     68950.27348926   -70868.72084022
  entropy T*S    EENTRO =         0.00000000
  eigenvalues    EBANDS =     -1264.54925415
  atomic energy  EATOM  =     68993.34587830
  Solvation  Ediel_sol  =         0.00000000
  ---------------------------------------------------
  free energy    TOTEN  =      -515.60772225 eV

  energy without entropy =     -515.60772225  energy(sigma->0) =     -515.60772225


--------------------------------------------------------------------------------------------------------




--------------------------------------- Iteration      1(   8)  ---------------------------------------


    POTLOK:  cpu time    0.4867: real time    0.6091
    SETDIJ:  cpu time    0.0325: real time    0.0327
    EDDIAG:  cpu time    9.7202: real time    9.7514
  RMM-DIIS:  cpu time   37.2936: real time   37.4182
    ORTHCH:  cpu time    1.3405: real time    1.3441
 BZINTS: Fermi energy:  1.464938;778.000000 electrons
         Band energy:***********;  BLOECHL correction: -0.031304
       DOS:  cpu time    0.0247: real time    0.0247
    CHARGE:  cpu time    3.0394: real time    3.0476
    MIXING:  cpu time    0.0123: real time    0.0126
    --------------------------------------------
      LOOP:  cpu time   51.9499: real time   52.2405

 eigenvalue-minimisations  :  9265
 total energy-change (2. order) : 0.8459640E+02  (-0.1307791E+02)
 number of electron     778.0000043 magnetization     180.8108576
 augmentation part      380.5186053 magnetization     142.5421582

 Broyden mixing:
  rms(total) = 0.11867E+02    rms(broyden)= 0.11867E+02
  rms(prec ) = 0.13900E+02
  weight for this iteration     100.00

 eigenvalues of (default mixing * dielectric matrix)
  average eigenvalue GAMMA=   0.3161
  0.5720  0.2843  0.0919

 Free energy of the ion-electron system (eV)
  ---------------------------------------------------
  alpha Z        PSCENC =      1751.32544349
  Ewald energy   TEWEN  =    237261.39974205
  -Hartree energ DENC   =   -306507.62370202
  -exchange      EXHF   =         0.00000000
  -V(xc)+E(xc)   XCENC  =      1310.16254938
  PAW double counting   =     69654.20962771   -71593.82860481
  entropy T*S    EENTRO =         0.00000000
  eigenvalues    EBANDS =     -1300.00225318
  atomic energy  EATOM  =     68993.34587830
  Solvation  Ediel_sol  =         0.00000000
  ---------------------------------------------------
  free energy    TOTEN  =      -431.01131908 eV

  energy without entropy =     -431.01131908  energy(sigma->0) =     -431.01131908


--------------------------------------------------------------------------------------------------------




--------------------------------------- Iteration      1(   9)  ---------------------------------------


    POTLOK:  cpu time    0.4769: real time    0.4794
    SETDIJ:  cpu time    0.0326: real time    0.0327
    EDDIAG:  cpu time    9.7684: real time    9.7951
  RMM-DIIS:  cpu time   36.8961: real time   36.9981
    ORTHCH:  cpu time    1.3426: real time    1.3462
 BZINTS: Fermi energy:  1.576948;778.000000 electrons
         Band energy:***********;  BLOECHL correction: -0.027330
       DOS:  cpu time    0.0226: real time    0.0227
    CHARGE:  cpu time    3.0284: real time    3.0365
    MIXING:  cpu time    0.0128: real time    0.0129
    --------------------------------------------
      LOOP:  cpu time   51.5804: real time   51.7235

 eigenvalue-minimisations  :  9231
 total energy-change (2. order) :-0.9989959E+02  (-0.1737140E+02)
 number of electron     778.0000036 magnetization     174.6892989
 augmentation part      380.7600501 magnetization     141.6131337

 Broyden mixing:
  rms(total) = 0.16613E+02    rms(broyden)= 0.16613E+02
  rms(prec ) = 0.19073E+02
  weight for this iteration     100.00

 eigenvalues of (default mixing * dielectric matrix)
  average eigenvalue GAMMA=   0.3433
  0.8437  0.3094  0.1101  0.1101

 Free energy of the ion-electron system (eV)
  ---------------------------------------------------
  alpha Z        PSCENC =      1751.32544349
  Ewald energy   TEWEN  =    237261.39974205
  -Hartree energ DENC   =   -306254.71839683
  -exchange      EXHF   =         0.00000000
  -V(xc)+E(xc)   XCENC  =      1327.22373836
  PAW double counting   =     71278.64931164   -73280.09055038
  entropy T*S    EENTRO =         0.00000000
  eigenvalues    EBANDS =     -1608.04607969
  atomic energy  EATOM  =     68993.34587830
  Solvation  Ediel_sol  =         0.00000000
  ---------------------------------------------------
  free energy    TOTEN  =      -530.91091306 eV

  energy without entropy =     -530.91091306  energy(sigma->0) =     -530.91091306


--------------------------------------------------------------------------------------------------------




--------------------------------------- Iteration      1(  10)  ---------------------------------------


    POTLOK:  cpu time    0.4861: real time    0.4888
    SETDIJ:  cpu time    0.0328: real time    0.0329
    EDDIAG:  cpu time    9.7683: real time    9.7943
  RMM-DIIS:  cpu time   36.9983: real time   37.1065
    ORTHCH:  cpu time    1.3515: real time    1.3551
 BZINTS: Fermi energy:  1.900289;778.000000 electrons
         Band energy:***********;  BLOECHL correction: -0.006264
       DOS:  cpu time    0.0251: real time    0.0251
    CHARGE:  cpu time    3.0321: real time    3.0403
    MIXING:  cpu time    0.0127: real time    0.0128
    --------------------------------------------
      LOOP:  cpu time   51.7069: real time   51.8559

 eigenvalue-minimisations  :  9239
 total energy-change (2. order) : 0.1134480E+03  (-0.1216959E+02)
 number of electron     778.0000044 magnetization     169.2213523
 augmentation part      381.6875146 magnetization     126.2743607

 Broyden mixing:
  rms(total) = 0.10523E+02    rms(broyden)= 0.10523E+02
  rms(prec ) = 0.13479E+02
  weight for this iteration     100.00

 eigenvalues of (default mixing * dielectric matrix)
  average eigenvalue GAMMA=   0.3502
  0.9421  0.4262  0.1467  0.1467  0.0896

 Free energy of the ion-electron system (eV)
  ---------------------------------------------------
  alpha Z        PSCENC =      1751.32544349
  Ewald energy   TEWEN  =    237261.39974205
  -Hartree energ DENC   =   -306660.06223318
  -exchange      EXHF   =         0.00000000
  -V(xc)+E(xc)   XCENC  =      1336.52602824
  PAW double counting   =     72589.32822082   -74651.71612078
  entropy T*S    EENTRO =         0.00000000
  eigenvalues    EBANDS =     -1037.60987184
  atomic energy  EATOM  =     68993.34587830
  Solvation  Ediel_sol  =         0.00000000
  ---------------------------------------------------
  free energy    TOTEN  =      -417.46291291 eV

  energy without entropy =     -417.46291291  energy(sigma->0) =     -417.46291291


--------------------------------------------------------------------------------------------------------




--------------------------------------- Iteration      1(  11)  ---------------------------------------


    POTLOK:  cpu time    0.4821: real time    0.4842
    SETDIJ:  cpu time    0.0326: real time    0.0327
    EDDIAG:  cpu time    9.7289: real time    9.7619
  RMM-DIIS:  cpu time   37.2888: real time   37.4064
    ORTHCH:  cpu time    1.3452: real time    1.3490
 BZINTS: Fermi energy:  1.955628;778.000000 electrons
         Band energy:-731.281252;  BLOECHL correction: -0.074469
       DOS:  cpu time    0.0232: real time    0.0232
    CHARGE:  cpu time    3.0299: real time    3.0435
    MIXING:  cpu time    0.0139: real time    0.0140
    --------------------------------------------
      LOOP:  cpu time   51.9445: real time   52.1150

 eigenvalue-minimisations  :  9262
 total energy-change (2. order) : 0.5998096E+02  (-0.8639739E+01)
 number of electron     778.0000041 magnetization     165.0814613
 augmentation part      373.6132882 magnetization     123.1009333

 Broyden mixing:
  rms(total) = 0.96366E+01    rms(broyden)= 0.96365E+01
  rms(prec ) = 0.10457E+02
  weight for this iteration     100.00

 eigenvalues of (default mixing * dielectric matrix)
  average eigenvalue GAMMA=   0.3534
  1.0624  0.4746  0.1674  0.1674  0.1562  0.0922

 Free energy of the ion-electron system (eV)
  ---------------------------------------------------
  alpha Z        PSCENC =      1751.32544349
  Ewald energy   TEWEN  =    237261.39974205
  -Hartree energ DENC   =   -306870.62139240
  -exchange      EXHF   =         0.00000000
  -V(xc)+E(xc)   XCENC  =      1337.12984417
  PAW double counting   =     73485.91343855   -75584.69365913
  entropy T*S    EENTRO =         0.00000000
  eigenvalues    EBANDS =      -731.28125175
  atomic energy  EATOM  =     68993.34587830
  Solvation  Ediel_sol  =         0.00000000
  ---------------------------------------------------
  free energy    TOTEN  =      -357.48195673 eV

  energy without entropy =     -357.48195673  energy(sigma->0) =     -357.48195673


--------------------------------------------------------------------------------------------------------




--------------------------------------- Iteration      1(  12)  ---------------------------------------


    POTLOK:  cpu time    0.4778: real time    0.4802
    SETDIJ:  cpu time    0.0331: real time    0.0331
    EDDIAG:  cpu time    9.7545: real time    9.7809
  RMM-DIIS:  cpu time   37.3618: real time   37.4680
    ORTHCH:  cpu time    1.3419: real time    1.3455
 BZINTS: Fermi energy:  2.017601;778.000000 electrons
         Band energy:-744.500665;  BLOECHL correction: -0.041420
       DOS:  cpu time    0.0232: real time    0.0233
    CHARGE:  cpu time    3.0300: real time    3.0380
    MIXING:  cpu time    0.0135: real time    0.0136
    --------------------------------------------
      LOOP:  cpu time   52.0358: real time   52.1826

 eigenvalue-minimisations  :  9264
 total energy-change (2. order) :-0.1252177E+02  (-0.5519349E+01)
 number of electron     778.0000038 magnetization     160.4703843
 augmentation part      372.4131073 magnetization     122.0429449

 Broyden mixing:
  rms(total) = 0.11406E+02    rms(broyden)= 0.11406E+02
  rms(prec ) = 0.12849E+02
  weight for this iteration     100.00

 eigenvalues of (default mixing * dielectric matrix)
  average eigenvalue GAMMA=   0.3539
  1.1909  0.4470  0.3387  0.1460  0.1460  0.0949  0.1138

 Free energy of the ion-electron system (eV)
  ---------------------------------------------------
  alpha Z        PSCENC =      1751.32544349
  Ewald energy   TEWEN  =    237261.39974205
  -Hartree energ DENC   =   -306852.05444561
  -exchange      EXHF   =         0.00000000
  -V(xc)+E(xc)   XCENC  =      1332.92559723
  PAW double counting   =     74000.44298006   -76112.88826058
  entropy T*S    EENTRO =         0.00000000
  eigenvalues    EBANDS =      -744.50066506
  atomic energy  EATOM  =     68993.34587830
  Solvation  Ediel_sol  =         0.00000000
  ---------------------------------------------------
  free energy    TOTEN  =      -370.00373013 eV

  energy without entropy =     -370.00373013  energy(sigma->0) =     -370.00373013


--------------------------------------------------------------------------------------------------------




--------------------------------------- Iteration      1(  13)  ---------------------------------------


    POTLOK:  cpu time    0.4768: real time    0.4791
    SETDIJ:  cpu time    0.0329: real time    0.0331
    EDDIAG:  cpu time    9.7925: real time    9.8197
  RMM-DIIS:  cpu time   37.2999: real time   37.4023
    ORTHCH:  cpu time    1.3454: real time    1.3514
 BZINTS: Fermi energy:  2.106294;778.000000 electrons
         Band energy:-620.822230;  BLOECHL correction: -0.036818
       DOS:  cpu time    0.0221: real time    0.0222
    CHARGE:  cpu time    3.0311: real time    3.0393
    MIXING:  cpu time    0.0157: real time    0.0157
    --------------------------------------------
      LOOP:  cpu time   52.0163: real time   52.1628

 eigenvalue-minimisations  :  9265
 total energy-change (2. order) : 0.4862219E+01  (-0.3936288E+01)
 number of electron     778.0000033 magnetization     156.2789955
 augmentation part      372.6646098 magnetization     117.4688984

 Broyden mixing:
  rms(total) = 0.98839E+01    rms(broyden)= 0.98838E+01
  rms(prec ) = 0.11042E+02
  weight for this iteration     100.00

 eigenvalues of (default mixing * dielectric matrix)
  average eigenvalue GAMMA=   0.3505
  1.2746  0.4602  0.4602  0.1487  0.1487  0.1291  0.0956  0.0872

 Free energy of the ion-electron system (eV)
  ---------------------------------------------------
  alpha Z        PSCENC =      1751.32544349
  Ewald energy   TEWEN  =    237261.39974205
  -Hartree energ DENC   =   -306956.84218672
  -exchange      EXHF   =         0.00000000
  -V(xc)+E(xc)   XCENC  =      1329.08044144
  PAW double counting   =     74541.91168825   -76664.54028772
  entropy T*S    EENTRO =         0.00000000
  eigenvalues    EBANDS =      -620.82223020
[...]
      9.825241  6.296041  6.978048            0           0           0  
      3.327475  0.887173  1.073320            0           0           0  
      9.370381  5.944442  1.033549            0           0           0  
      5.774364  3.511196  1.588832            0           0           0  
     11.780804  9.102106  3.012746            0           0           0  
     12.142208  7.864851  4.907167            0           0           0  
     12.898551  6.599928  3.085357            0           0           0  
      9.609021  4.409279  2.931659            0           0           0  
      8.507043  8.486258  6.965655            0           0           0  
      8.126536  8.259675  1.100142            0           0           0  
     10.595320  7.057317  2.726279            0           0           0  
      2.643452  0.125819  5.052866            0           0           0  
      8.182065  3.505601  1.219953            0           0           0  
      4.798505  1.622219  2.896171            0           0           0  
      5.809398  6.649898  3.247617            0           0           0  
      7.654684  0.412970  4.686986            0           0           0  
      9.458471  1.136218  6.528985            0           0           0  
     10.934287  8.489079  6.951061            0           0           0  
      9.362372  1.193342  1.330661            0           0           0  
     10.656315  8.732160  0.980213            0           0           0  
      5.031467  4.910390  4.716500            0           0           0  
     12.268341  3.065617  4.961597            0           0           0  
      9.642770  0.018962  3.434634            0           0           0  
      9.859490  3.061300  5.053340            0           0           0  
      6.317386  2.583125  4.702954            0           0           0  
     12.253127  4.174930  2.833240            0           0           0  
      2.095248  1.756232  3.073240            0           0           0  
     11.831281  5.721446  1.134235            0           0           0  
      6.857430  5.749036  1.303551            0           0           0  
      8.219787  6.815704  3.002248            0           0           0  
      7.040131  4.410259  3.274640            0           0           0  
     11.135594  3.891028  6.917382            0           0           0  
     10.736077  3.416087  1.011578            0           0           0  
     11.353957  0.819354  4.883300            0           0           0  
      9.676082  7.723209  4.957292            0           0           0  
      7.203849  7.639146  5.118877            0           0           0  
      5.078032  0.269348  4.939043            0           0           0  
      1.169416  1.269323  9.610328    -0.364979   -0.283234    0.886887  
 
   2 f  =   21.838544 THz   137.215617 2PiTHz  728.455387 cm-1    90.316990 meV
             X         Y         Z           dx          dy          dz
     13.790072  8.545413  6.626934            0           0           0  
      5.298885  8.568530  6.426363            0           0           0  
      5.127684  3.503007  6.843785            0           0           0  
     15.236780  9.363559  8.791252            0           0           0  
      3.924562  4.568560  9.021426            0           0           0  
      6.793677  9.246335  8.793445            0           0           0  
     12.376925  4.485112  9.075980            0           0           0  
      9.597223  9.255519  9.137928            0           0           0  
     10.910709  2.077780  8.800824            0           0           0  
      2.696184  2.117892  9.112866            0           0           0  
     12.406862  9.251968  9.011416            0           0           0  
     13.847523  6.947986  8.980615            0           0           0  
      5.388374  1.934457  9.101069            0           0           0  
      8.117770  6.809902  8.806362            0           0           0  
      9.517032  4.454213  8.786180            0           0           0  
      5.323467  6.937843  8.805290            0           0           0  
      8.194728  1.959666  8.889122            0           0           0  
      7.995911  3.371898  6.616550            0           0           0  
      6.558810  1.097668  6.787311            0           0           0  
      6.833851  1.229252  1.470327            0           0           0  
      3.612352  3.964682  2.619950            0           0           0  
      1.435145  1.437979  6.839642            0           0           0  
      0.671266  0.989103  1.081883            0           0           0  
      6.748073  9.008785  3.123421            0           0           0  
      6.748315  4.367348  8.926902            0           0           0  
      8.493301  5.384394  5.053784            0           0           0  
     10.988735  6.870683  9.102611            0           0           0  
     14.948842  7.376730  4.492489            0           0           0  
     12.477687  6.143539  6.831986            0           0           0  
      6.478803  5.891842  6.650249            0           0           0  
      3.574220  2.546241  4.958776            0           0           0  
     11.126137  5.452511  4.710247            0           0           0  
      3.883672  5.916810  6.702800            0           0           0  
     13.734382  8.588522  1.762771            0           0           0  
      4.876633  8.413947  1.577885            0           0           0  
      3.758771  6.384136  2.060921            0           0           0  
      8.358503  2.272242  3.294054            0           0           0  
      9.333665  9.158858  2.963491            0           0           0  
      2.479435  3.857336  6.956040            0           0           0  
      1.948917  3.123684  0.977335            0           0           0  
     10.751866  2.212205  3.056235            0           0           0  
     13.777989  5.058683  4.814702            0           0           0  
      3.964249  0.962191  7.024855            0           0           0  
      9.825241  6.296041  6.978048            0           0           0  
      3.327475  0.887173  1.073320            0           0           0  
      9.370381  5.944442  1.033549            0           0           0  
      5.774364  3.511196  1.588832            0           0           0  
     11.780804  9.102106  3.012746            0           0           0  
     12.142208  7.864851  4.907167            0           0           0  
     12.898551  6.599928  3.085357            0           0           0  
      9.609021  4.409279  2.931659            0           0           0  
      8.507043  8.486258  6.965655            0           0           0  
      8.126536  8.259675  1.100142            0           0           0  
     10.595320  7.057317  2.726279            0           0           0  
      2.643452  0.125819  5.052866            0           0           0  
      8.182065  3.505601  1.219953            0           0           0  
      4.798505  1.622219  2.896171            0           0           0  
      5.809398  6.649898  3.247617            0           0           0  
      7.654684  0.412970  4.686986            0           0           0  
      9.458471  1.136218  6.528985            0           0           0  
     10.934287  8.489079  6.951061            0           0           0  
      9.362372  1.193342  1.330661            0           0           0  
     10.656315  8.732160  0.980213            0           0           0  
      5.031467  4.910390  4.716500            0           0           0  
     12.268341  3.065617  4.961597            0           0           0  
      9.642770  0.018962  3.434634            0           0           0  
      9.859490  3.061300  5.053340            0           0           0  
      6.317386  2.583125  4.702954            0           0           0  
     12.253127  4.174930  2.833240            0           0           0  
      2.095248  1.756232  3.073240            0           0           0  
     11.831281  5.721446  1.134235            0           0           0  
      6.857430  5.749036  1.303551            0           0           0  
      8.219787  6.815704  3.002248            0           0           0  
      7.040131  4.410259  3.274640            0           0           0  
     11.135594  3.891028  6.917382            0           0           0  
     10.736077  3.416087  1.011578            0           0           0  
     11.353957  0.819354  4.883300            0           0           0  
      9.676082  7.723209  4.957292            0           0           0  
      7.203849  7.639146  5.118877            0           0           0  
      5.078032  0.269348  4.939043            0           0           0  
      1.169416  1.269323  9.610328     0.864145    0.251449    0.435921  
 
   3 f  =   13.938869 THz    87.580500 2PiTHz  464.950625 cm-1    57.646551 meV
             X         Y         Z           dx          dy          dz
     13.790072  8.545413  6.626934            0           0           0  
      5.298885  8.568530  6.426363            0           0           0  
      5.127684  3.503007  6.843785            0           0           0  
     15.236780  9.363559  8.791252            0           0           0  
      3.924562  4.568560  9.021426            0           0           0  
      6.793677  9.246335  8.793445            0           0           0  
     12.376925  4.485112  9.075980            0           0           0  
      9.597223  9.255519  9.137928            0           0           0  
     10.910709  2.077780  8.800824            0           0           0  
      2.696184  2.117892  9.112866            0           0           0  
     12.406862  9.251968  9.011416            0           0           0  
     13.847523  6.947986  8.980615            0           0           0  
      5.388374  1.934457  9.101069            0           0           0  
      8.117770  6.809902  8.806362            0           0           0  
      9.517032  4.454213  8.786180            0           0           0  
      5.323467  6.937843  8.805290            0           0           0  
      8.194728  1.959666  8.889122            0           0           0  
      7.995911  3.371898  6.616550            0           0           0  
      6.558810  1.097668  6.787311            0           0           0  
      6.833851  1.229252  1.470327            0           0           0  
      3.612352  3.964682  2.619950            0           0           0  
      1.435145  1.437979  6.839642            0           0           0  
      0.671266  0.989103  1.081883            0           0           0  
      6.748073  9.008785  3.123421            0           0           0  
      6.748315  4.367348  8.926902            0           0           0  
      8.493301  5.384394  5.053784            0           0           0  
     10.988735  6.870683  9.102611            0           0           0  
     14.948842  7.376730  4.492489            0           0           0  
     12.477687  6.143539  6.831986            0           0           0  
      6.478803  5.891842  6.650249            0           0           0  
      3.574220  2.546241  4.958776            0           0           0  
     11.126137  5.452511  4.710247            0           0           0  
      3.883672  5.916810  6.702800            0           0           0  
     13.734382  8.588522  1.762771            0           0           0  
      4.876633  8.413947  1.577885            0           0           0  
      3.758771  6.384136  2.060921            0           0           0  
      8.358503  2.272242  3.294054            0           0           0  
      9.333665  9.158858  2.963491            0           0           0  
      2.479435  3.857336  6.956040            0           0           0  
      1.948917  3.123684  0.977335            0           0           0  
     10.751866  2.212205  3.056235            0           0           0  
     13.777989  5.058683  4.814702            0           0           0  
      3.964249  0.962191  7.024855            0           0           0  
      9.825241  6.296041  6.978048            0           0           0  
      3.327475  0.887173  1.073320            0           0           0  
      9.370381  5.944442  1.033549            0           0           0  
      5.774364  3.511196  1.588832            0           0           0  
     11.780804  9.102106  3.012746            0           0           0  
     12.142208  7.864851  4.907167            0           0           0  
     12.898551  6.599928  3.085357            0           0           0  
      9.609021  4.409279  2.931659            0           0           0  
      8.507043  8.486258  6.965655            0           0           0  
      8.126536  8.259675  1.100142            0           0           0  
     10.595320  7.057317  2.726279            0           0           0  
      2.643452  0.125819  5.052866            0           0           0  
      8.182065  3.505601  1.219953            0           0           0  
      4.798505  1.622219  2.896171            0           0           0  
      5.809398  6.649898  3.247617            0           0           0  
      7.654684  0.412970  4.686986            0           0           0  
      9.458471  1.136218  6.528985            0           0           0  
     10.934287  8.489079  6.951061            0           0           0  
      9.362372  1.193342  1.330661            0           0           0  
     10.656315  8.732160  0.980213            0           0           0  
      5.031467  4.910390  4.716500            0           0           0  
     12.268341  3.065617  4.961597            0           0           0  
      9.642770  0.018962  3.434634            0           0           0  
      9.859490  3.061300  5.053340            0           0           0  
      6.317386  2.583125  4.702954            0           0           0  
     12.253127  4.174930  2.833240            0           0           0  
      2.095248  1.756232  3.073240            0           0           0  
     11.831281  5.721446  1.134235            0           0           0  
      6.857430  5.749036  1.303551            0           0           0  
      8.219787  6.815704  3.002248            0           0           0  
      7.040131  4.410259  3.274640            0           0           0  
     11.135594  3.891028  6.917382            0           0           0  
     10.736077  3.416087  1.011578            0           0           0  
     11.353957  0.819354  4.883300            0           0           0  
      9.676082  7.723209  4.957292            0           0           0  
      7.203849  7.639146  5.118877            0           0           0  
      5.078032  0.269348  4.939043            0           0           0  
      1.169416  1.269323  9.610328     0.346474   -0.925501   -0.152982  
 
 Finite differences POTIM=  1.500000000000000E-002
  LATTYP: Found a hexagonal cell.
 ALAT       =    11.2227001190
 C/A-ratio  =     1.9603125600
  
  Lattice vectors:
  
 A1 = (   5.6113500595,  -9.7191434021,   0.0000000000)
 A2 = ( -11.2227001190,   0.0000000000,   0.0000000000)
 A3 = (   0.0000000000,   0.0000000000, -22.0000000000)


Analysis of symmetry for initial positions (statically):
=====================================================================
 Subroutine PRICEL returns:
 Original cell was already a primitive cell.
 

 Routine SETGRP: Setting up the symmetry group for a 
 hexagonal supercell.


 Subroutine GETGRP returns: Found  1 space group operations
 (whereof  1 operations were pure point group operations)
 out of a pool of 24 trial point group operations.


The static configuration has the point symmetry C_1 .


Analysis of symmetry for dynamics (positions and initial velocities):
=====================================================================
 Subroutine PRICEL returns:
 Original cell was already a primitive cell.
 

 Routine SETGRP: Setting up the symmetry group for a 
 hexagonal supercell.


 Subroutine GETGRP returns: Found  1 space group operations
 (whereof  1 operations were pure point group operations)
 out of a pool of 24 trial point group operations.


The dynamic configuration has the point symmetry C_1 .


Analysis of constrained symmetry for selective dynamics:
=====================================================================
 Subroutine PRICEL returns:
 Original cell was already a primitive cell.
 

 Routine SETGRP: Setting up the symmetry group for a 
 hexagonal supercell.


 Subroutine GETGRP returns: Found  1 space group operations
 (whereof  1 operations were pure point group operations)
 out of a pool of 24 trial point group operations.


The constrained configuration has the point symmetry C_1 .


Analysis of structural, dynamic, and magnetic symmetry:
=====================================================================
 Subroutine PRICEL returns:
 Original cell was already a primitive cell.
 

 Routine SETGRP: Setting up the symmetry group for a 
 hexagonal supercell.


 Subroutine GETGRP returns: Found  1 space group operations
 (whereof  1 operations were pure point group operations)
 out of a pool of 24 trial point group operations.


The magnetic configuration has the point symmetry C_1 .


 Subroutine INISYM returns: Found  1 space group operations
 (whereof  1 operations are pure point group operations),
 and found     1 'primitive' translations

 
 KPOINTS: mesh auto                               

Automatic generation of k-mesh.
Space group operators:
 irot       det(A)        alpha          n_x          n_y          n_z        tau_x        tau_y        tau_z
    1     1.000000     0.000000     1.000000     0.000000     0.000000     0.000000     0.000000     0.000000
 
 Subroutine IBZKPT returns following result:
 ===========================================
 
 Found      4 irreducible k-points:
 
 Following reciprocal coordinates:
            Coordinates               Weight
  0.000000  0.000000  0.000000      1.000000
  0.500000  0.000000  0.000000      1.000000
  0.000000  0.500000  0.000000      1.000000
  0.500000  0.500000  0.000000      1.000000
 
 Following cartesian coordinates:
            Coordinates               Weight
  0.000000  0.000000  0.000000      1.000000
  0.044553 -0.025722  0.000000      1.000000
  0.000000  0.051445  0.000000      1.000000
  0.044553  0.025722  0.000000      1.000000
 
 TETIRR: Found     12 inequivalent tetrahedra from       24
     LOOP+:  cpu time  694.2813: real time  697.1154
    4ORBIT:  cpu time    0.0000: real time    0.0000
 BZINTS: Fermi energy:  1.516137;778.000000 electrons
         Band energy:-898.053588;  BLOECHL correction: -0.236611

 total amount of memory used by VASP MPI-rank0   379495. kBytes
=======================================================================

   base      :      30000. kBytes
   nonlr-proj:      90609. kBytes
   fftplans  :      13535. kBytes
   grid      :     132462. kBytes
   one-center:       2519. kBytes
   wavefun   :     110370. kBytes
 
  
  
 General timing and accounting informations for this job:
 ========================================================
  
                  Total CPU time used (sec):     7977.775
                            User time (sec):     7913.732
                          System time (sec):       64.043
                         Elapsed time (sec):     8021.463
  
                   Maximum memory used (kb):      713132.
                   Average memory used (kb):           0.
  
                          Minor page faults:     17342159
                          Major page faults:          193
                 Voluntary context switches:         6482
