 vasp.5.4.4.18Apr17-6-g9f103f2a35 (build Oct 25 2019 11:13:22) complex          
  
 executed on             LinuxIFC date 2022.02.04  08:44:15
 running on   48 total cores
 distrk:  each k-point on   48 cores,    1 groups
 distr:  one band on NCORES_PER_BAND=   1 cores,   48 groups


--------------------------------------------------------------------------------------------------------


 INCAR:
 POTCAR:    PAW_PBE Pt 04Feb2005                  
 POTCAR:    PAW_PBE Fe 06Sep2000                  
 POTCAR:    PAW_PBE Co 02Aug2007                  
 POTCAR:    PAW_PBE Cu 22Jun2005                  
 POTCAR:    PAW_PBE Ni 02Aug2007                  
 POTCAR:    PAW_PBE H 15Jun2001                   

 ----------------------------------------------------------------------------- 
|                                                                             |
|           W    W    AA    RRRRR   N    N  II  N    N   GGGG   !!!           |
|           W    W   A  A   R    R  NN   N  II  NN   N  G    G  !!!           |
|           W    W  A    A  R    R  N N  N  II  N N  N  G       !!!           |
|           W WW W  AAAAAA  RRRRR   N  N N  II  N  N N  G  GGG   !            |
|           WW  WW  A    A  R   R   N   NN  II  N   NN  G    G                |
|           W    W  A    A  R    R  N    N  II  N    N   GGGG   !!!           |
|                                                                             |
|      For optimal performance we recommend to set                            |
|        NCORE= 4 - approx SQRT( number of cores)                             |
|      NCORE specifies how many cores store one orbital (NPAR=cpu/NCORE).     |
|      This setting can  greatly improve the performance of VASP for DFT.     |
|      The default,   NCORE=1            might be grossly inefficient         |
|      on modern multi-core architectures or massively parallel machines.     |
|      Do your own testing !!!!                                               |
|      Unfortunately you need to use the default for GW and RPA calculations. |
|      (for HF NCORE is supported but not extensively tested yet)             |
|                                                                             |
 ----------------------------------------------------------------------------- 

 POTCAR:    PAW_PBE Pt 04Feb2005                  
   VRHFIN =Pt: s1d9                                                             
   LEXCH  = PE                                                                  
   EATOM  =   729.1176 eV,   53.5886 Ry                                         
                                                                                
   TITEL  = PAW_PBE Pt 04Feb2005                                                
   LULTRA =        F    use ultrasoft PP ?                                      
   IUNSCR =        1    unscreen: 0-lin 1-nonlin 2-no                           
   RPACOR =    2.330    partial core radius                                     
   POMASS =  195.080; ZVAL   =   10.000    mass and valenz                      
   RCORE  =    2.600    outmost cutoff radius                                   
   RWIGS  =    2.750; RWIGS  =    1.455    wigner-seitz radius (au A)           
   ENMAX  =  230.283; ENMIN  =  172.712 eV                                      
   ICORE  =        3    local potential                                         
   LCOR   =        T    correct aug charges                                     
   LPAW   =        T    paw PP                                                  
   EAUG   =  358.966                                                            
   DEXC   =    0.000                                                            
   RMAX   =    2.658    core radius for proj-oper                               
   RAUG   =    1.300    factor for augmentation sphere                          
   RDEP   =    2.761    radius for radial grids                                 
   RDEPT  =    2.203    core radius for aug-charge                              
                                                                                
   Atomic configuration                                                         
   16 entries                                                                   
     n  l   j            E        occ.                                          
     1  0  0.50    -78401.1885   2.0000                                         
     2  0  0.50    -13770.7750   2.0000                                         
     2  1  1.50    -11931.0468   6.0000                                         
     3  0  0.50     -3234.7234   2.0000                                         
     3  1  1.50     -2699.2216   6.0000                                         
     3  2  2.50     -2119.5714  10.0000                                         
     4  0  0.50      -695.1528   2.0000                                         
     4  1  1.50      -519.6034   6.0000                                         
     4  2  2.50      -306.6786  10.0000                                         
     4  3  3.50       -70.1041  14.0000                                         
     5  0  0.50      -101.7747   2.0000                                         
     5  1  1.50       -55.9873   6.0000                                         
     5  2  2.50        -6.1423   9.0000                                         
     6  0  0.50        -5.6573   1.0000                                         
     6  1  1.50        -6.8029   0.0000                                         
     5  3  2.50        -1.3606   0.0000                                         
   Description                                                                  
     l       E           TYP  RCUT    TYP  RCUT                                 
     2     -6.1423404     23  2.500                                             
     2     -7.5029230     23  2.500                                             
     0     -5.6573207     23  2.500                                             
     0      0.7416693     23  2.500                                             
     1     -2.7211652     23  2.600                                             
     1     20.4087390     23  2.600                                             
     3     -1.3605826     23  2.500                                             
  local pseudopotential read in
  partial core-charges read in
  partial kinetic energy density read in
  atomic valenz-charges read in
  non local Contribution for L=           2  read in
    real space projection operators read in
  non local Contribution for L=           2  read in
    real space projection operators read in
  non local Contribution for L=           0  read in
    real space projection operators read in
  non local Contribution for L=           0  read in
    real space projection operators read in
  non local Contribution for L=           1  read in
    real space projection operators read in
  non local Contribution for L=           1  read in
    real space projection operators read in
    PAW grid and wavefunctions read in
 
   number of l-projection  operators is LMAX  =           6
   number of lm-projection operators is LMMAX =          18
 
 POTCAR:    PAW_PBE Fe 06Sep2000                  
   VRHFIN =Fe:  d7 s1                                                           
   LEXCH  = PE                                                                  
   EATOM  =   594.3153 eV,   43.6809 Ry                                         
                                                                                
   TITEL  = PAW_PBE Fe 06Sep2000                                                
   LULTRA =        F    use ultrasoft PP ?                                      
   IUNSCR =        1    unscreen: 0-lin 1-nonlin 2-no                           
   RPACOR =    2.000    partial core radius                                     
   POMASS =   55.847; ZVAL   =    8.000    mass and valenz                      
   RCORE  =    2.300    outmost cutoff radius                                   
   RWIGS  =    2.460; RWIGS  =    1.302    wigner-seitz radius (au A)           
   ENMAX  =  267.882; ENMIN  =  200.911 eV                                      
   RCLOC  =    1.701    cutoff for local pot                                    
   LCOR   =        T    correct aug charges                                     
   LPAW   =        T    paw PP                                                  
   EAUG   =  511.368                                                            
   DEXC   =    0.000                                                            
   RMAX   =    2.356    core radius for proj-oper                               
   RAUG   =    1.300    factor for augmentation sphere                          
   RDEP   =    2.442    radius for radial grids                                 
   RDEPT  =    1.890    core radius for aug-charge                              
                                                                                
   Atomic configuration                                                         
    9 entries                                                                   
     n  l   j            E        occ.                                          
     1  0  0.50     -6993.8440   2.0000                                         
     2  0  0.50      -814.6047   2.0000                                         
     2  1  1.50      -693.3689   6.0000                                         
     3  0  0.50       -89.4732   2.0000                                         
     3  1  1.50       -55.6373   6.0000                                         
     3  2  2.50        -3.8151   7.0000                                         
     4  0  0.50        -4.2551   1.0000                                         
     4  1  1.50        -3.4015   0.0000                                         
     4  3  2.50        -1.3606   0.0000                                         
   Description                                                                  
     l       E           TYP  RCUT    TYP  RCUT                                 
     2     -3.8151135     23  2.300                                             
     2     -5.1756961     23  2.300                                             
     0     -4.2550963     23  2.300                                             
     0      7.2035603     23  2.300                                             
     1     -2.7211652     23  2.300                                             
     1     18.4316424     23  2.300                                             
  local pseudopotential read in
  partial core-charges read in
  partial kinetic energy density read in
  atomic valenz-charges read in
  non local Contribution for L=           2  read in
    real space projection operators read in
  non local Contribution for L=           2  read in
    real space projection operators read in
  non local Contribution for L=           0  read in
    real space projection operators read in
  non local Contribution for L=           0  read in
    real space projection operators read in
  non local Contribution for L=           1  read in
    real space projection operators read in
  non local Contribution for L=           1  read in
    real space projection operators read in
    PAW grid and wavefunctions read in
 
   number of l-projection  operators is LMAX  =           6
   number of lm-projection operators is LMMAX =          18
 
 POTCAR:    PAW_PBE Co 02Aug2007                  
   VRHFIN =Co: d8 s1                                                            
   LEXCH  = PE                                                                  
   EATOM  =   813.3670 eV,   59.7808 Ry                                         
                                                                                
   TITEL  = PAW_PBE Co 02Aug2007                                                
   LULTRA =        F    use ultrasoft PP ?                                      
   IUNSCR =        1    unscreen: 0-lin 1-nonlin 2-no                           
   RPACOR =    2.000    partial core radius                                     
   POMASS =   58.933; ZVAL   =    9.000    mass and valenz                      
   RCORE  =    2.300    outmost cutoff radius                                   
   RWIGS  =    2.460; RWIGS  =    1.302    wigner-seitz radius (au A)           
   ENMAX  =  267.968; ENMIN  =  200.976 eV                                      
   RCLOC  =    1.203    cutoff for local pot                                    
   LCOR   =        T    correct aug charges                                     
   LPAW   =        T    paw PP                                                  
   EAUG   =  477.818                                                            
   DEXC   =    0.000                                                            
   RMAX   =    2.360    core radius for proj-oper                               
   RAUG   =    1.300    factor for augmentation sphere                          
   RDEP   =    2.393    radius for radial grids                                 
   RDEPT  =    1.864    core radius for aug-charge                              
                                                                                
   Atomic configuration                                                         
    9 entries                                                                   
     n  l   j            E        occ.                                          
     1  0  0.50     -7587.6674   2.0000                                         
     2  0  0.50      -893.6084   2.0000                                         
     2  1  1.50      -764.5805   6.0000                                         
     3  0  0.50       -97.5973   2.0000                                         
     3  1  1.50       -60.9648   6.0000                                         
     3  2  2.50        -4.2382   8.0000                                         
     4  0  0.50        -4.3746   1.0000                                         
     4  1  1.50        -4.0817   0.0000                                         
     4  3  2.50        -1.3606   0.0000                                         
   Description                                                                  
     l       E           TYP  RCUT    TYP  RCUT                                 
     2     -4.2382362     23  2.300                                             
     2     -5.5988188     23  2.300                                             
     0     -4.3745797     23  2.300                                             
     0      5.7660125     23  2.300                                             
     1     -2.7211652     23  2.300                                             
     1     16.9860234     23  2.300                                             
  local pseudopotential read in
  partial core-charges read in
  partial kinetic energy density read in
  atomic valenz-charges read in
  non local Contribution for L=           2  read in
    real space projection operators read in
  non local Contribution for L=           2  read in
    real space projection operators read in
  non local Contribution for L=           0  read in
    real space projection operators read in
  non local Contribution for L=           0  read in
    real space projection operators read in
  non local Contribution for L=           1  read in
    real space projection operators read in
  non local Contribution for L=           1  read in
    real space projection operators read in
    PAW grid and wavefunctions read in
 
   number of l-projection  operators is LMAX  =           6
   number of lm-projection operators is LMMAX =          18
 
 POTCAR:    PAW_PBE Cu 22Jun2005                  
   VRHFIN =Cu: d10 p1                                                           
   LEXCH  = PE                                                                  
   EATOM  =  1390.9808 eV,  102.2342 Ry                                         
                                                                                
   TITEL  = PAW_PBE Cu 22Jun2005                                                
   LULTRA =        F    use ultrasoft PP ?                                      
   IUNSCR =        1    unscreen: 0-lin 1-nonlin 2-no                           
   RPACOR =    2.000    partial core radius                                     
   POMASS =   63.546; ZVAL   =   11.000    mass and valenz                      
   RCORE  =    2.300    outmost cutoff radius                                   
   RWIGS  =    2.200; RWIGS  =    1.164    wigner-seitz radius (au A)           
   ENMAX  =  295.446; ENMIN  =  221.585 eV                                      
   ICORE  =        3    local potential                                         
   LCOR   =        T    correct aug charges                                     
   LPAW   =        T    paw PP                                                  
   EAUG   =  586.980                                                            
   DEXC   =    0.000                                                            
   RMAX   =    2.344    core radius for proj-oper                               
   RAUG   =    1.300    factor for augmentation sphere                          
   RDEP   =    2.302    radius for radial grids                                 
   RDEPT  =    1.771    core radius for aug-charge                              
                                                                                
   Atomic configuration                                                         
    9 entries                                                                   
     n  l   j            E        occ.                                          
     1  0  0.50     -8850.2468   2.0000                                         
     2  0  0.50     -1062.3498   2.0000                                         
     2  1  1.50      -916.8226   6.0000                                         
     3  0  0.50      -114.6929   2.0000                                         
     3  1  1.50       -72.1325   6.0000                                         
     3  2  2.50        -5.0394  10.0000                                         
     4  0  0.50        -4.6097   1.0000                                         
     4  1  0.50        -4.0817   0.0000                                         
     4  3  2.50        -1.3606   0.0000                                         
   Description                                                                  
     l       E           TYP  RCUT    TYP  RCUT                                 
     2     -5.0393973     23  2.200                                             
     2     10.8846608     23  2.200                                             
     0     -4.6097109     23  2.200                                             
     0      8.2520465     23  2.200                                             
     1     -2.7211652     23  2.200                                             
     1     21.7055443     23  2.200                                             
     3      2.7211652     23  2.300                                             
  local pseudopotential read in
  partial core-charges read in
  partial kinetic energy density read in
  atomic valenz-charges read in
  non local Contribution for L=           2  read in
    real space projection operators read in
  non local Contribution for L=           2  read in
    real space projection operators read in
  non local Contribution for L=           0  read in
    real space projection operators read in
  non local Contribution for L=           0  read in
    real space projection operators read in
  non local Contribution for L=           1  read in
    real space projection operators read in
  non local Contribution for L=           1  read in
    real space projection operators read in
    PAW grid and wavefunctions read in
 
   number of l-projection  operators is LMAX  =           6
   number of lm-projection operators is LMMAX =          18
 
 POTCAR:    PAW_PBE Ni 02Aug2007                  
   VRHFIN =Ni:                                                                  
   LEXCH  = PE                                                                  
   EATOM  =  1077.6739 eV,   79.2068 Ry                                         
                                                                                
   TITEL  = PAW_PBE Ni 02Aug2007                                                
   LULTRA =        F    use ultrasoft PP ?                                      
   IUNSCR =        1    unscreen: 0-lin 1-nonlin 2-no                           
   RPACOR =    2.000    partial core radius                                     
   POMASS =   58.690; ZVAL   =   10.000    mass and valenz                      
   RCORE  =    2.300    outmost cutoff radius                                   
   RWIGS  =    2.430; RWIGS  =    1.286    wigner-seitz radius (au A)           
   ENMAX  =  269.532; ENMIN  =  202.149 eV                                      
   RCLOC  =    1.201    cutoff for local pot                                    
   LCOR   =        T    correct aug charges                                     
   LPAW   =        T    paw PP                                                  
   EAUG   =  544.565                                                            
   DEXC   =    0.000                                                            
   RMAX   =    2.357    core radius for proj-oper                               
   RAUG   =    1.300    factor for augmentation sphere                          
   RDEP   =    2.390    radius for radial grids                                 
   RDEPT  =    1.838    core radius for aug-charge                              
                                                                                
   Atomic configuration                                                         
    9 entries                                                                   
     n  l   j            E        occ.                                          
     1  0  0.50     -8206.4253   2.0000                                         
     2  0  0.50      -976.1748   2.0000                                         
     2  1  1.50      -839.0571   6.0000                                         
     3  0  0.50      -105.9991   2.0000                                         
     3  1  1.50       -66.4603   6.0000                                         
     3  2  2.50        -4.6458   9.0000                                         
     4  0  0.50        -4.4926   1.0000                                         
     4  1  1.50        -4.0817   0.0000                                         
     4  3  2.50        -1.3606   0.0000                                         
   Description                                                                  
     l       E           TYP  RCUT    TYP  RCUT                                 
     2     -4.6457903     23  2.300                                             
     2     -6.0063729     23  2.300                                             
     0     -4.4925590     23  2.300                                             
     0      5.0102601     23  2.300                                             
     1     -2.7211652     23  2.300                                             
     1     16.5183231     23  2.300                                             
  local pseudopotential read in
  partial core-charges read in
  partial kinetic energy density read in
  atomic valenz-charges read in
  non local Contribution for L=           2  read in
    real space projection operators read in
  non local Contribution for L=           2  read in
    real space projection operators read in
  non local Contribution for L=           0  read in
    real space projection operators read in
  non local Contribution for L=           0  read in
    real space projection operators read in
  non local Contribution for L=           1  read in
    real space projection operators read in
  non local Contribution for L=           1  read in
    real space projection operators read in
    PAW grid and wavefunctions read in
 
   number of l-projection  operators is LMAX  =           6
   number of lm-projection operators is LMMAX =          18
 
 POTCAR:    PAW_PBE H 15Jun2001                   
   VRHFIN =H: ultrasoft test                                                    
   LEXCH  = PE                                                                  
   EATOM  =    12.4884 eV,    0.9179 Ry                                         
                                                                                
   TITEL  = PAW_PBE H 15Jun2001                                                 
   LULTRA =        F    use ultrasoft PP ?                                      
   IUNSCR =        0    unscreen: 0-lin 1-nonlin 2-no                           
   RPACOR =    0.000    partial core radius                                     
   POMASS =    1.000; ZVAL   =    1.000    mass and valenz                      
   RCORE  =    1.100    outmost cutoff radius                                   
   RWIGS  =    0.700; RWIGS  =    0.370    wigner-seitz radius (au A)           
   ENMAX  =  250.000; ENMIN  =  200.000 eV                                      
   RCLOC  =    0.701    cutoff for local pot                                    
   LCOR   =        T    correct aug charges                                     
   LPAW   =        T    paw PP                                                  
   EAUG   =  400.000                                                            
   RMAX   =    1.123    core radius for proj-oper                               
   RAUG   =    1.200    factor for augmentation sphere                          
   RDEP   =    1.112    radius for radial grids                                 
   RDEPT  =    0.926    core radius for aug-charge                              
                                                                                
   Atomic configuration                                                         
    2 entries                                                                   
     n  l   j            E        occ.                                          
     1  0  0.50        -6.4927   1.0000                                         
     2  1  0.50        -3.4015   0.0000                                         
   Description                                                                  
     l       E           TYP  RCUT    TYP  RCUT                                 
     0     -6.4927494     23  1.100                                             
     0      6.8029130     23  1.100                                             
     1     -4.0817478     23  1.100                                             
  local pseudopotential read in
  atomic valenz-charges read in
  non local Contribution for L=           0  read in
    real space projection operators read in
  non local Contribution for L=           0  read in
    real space projection operators read in
  non local Contribution for L=           1  read in
    real space projection operators read in
    PAW grid and wavefunctions read in
 
   number of l-projection  operators is LMAX  =           3
   number of lm-projection operators is LMMAX =           5
 
 Optimization of the real space projectors (new method)

 maximal supplied QI-value         = 14.36
 optimisation between [QCUT,QGAM] = [ 11.92, 23.98] = [ 39.79,161.09] Ry 
 Optimized for a Real-space Cutoff    1.49 Angstroem

   l    n(q)    QCUT    max X(q) W(low)/X(q) W(high)/X(q)  e(spline) 
   2     10    11.920    66.195    0.79E-04    0.18E-03    0.24E-06
   2     10    11.920    64.643    0.81E-04    0.19E-03    0.24E-06
   0     11    11.920    95.520    0.28E-04    0.54E-04    0.18E-06
   0     11    11.920    63.403    0.27E-04    0.52E-04    0.17E-06
   1     10    11.920    19.961    0.18E-04    0.11E-03    0.23E-06
   1     10    11.920    13.289    0.25E-04    0.87E-04    0.19E-06
 Optimization of the real space projectors (new method)

 maximal supplied QI-value         = 16.25
 optimisation between [QCUT,QGAM] = [ 11.86, 23.89] = [ 39.41,159.82] Ry 
 Optimized for a Real-space Cutoff    1.49 Angstroem

   l    n(q)    QCUT    max X(q) W(low)/X(q) W(high)/X(q)  e(spline) 
   2     10    11.864    80.901    0.13E-03    0.23E-03    0.37E-06
   2     10    11.864    75.754    0.13E-03    0.23E-03    0.38E-06
   0     11    11.864    58.752    0.44E-04    0.11E-04    0.20E-06
   0     11    11.864    30.679    0.36E-04    0.10E-04    0.18E-06
   1     10    11.864    17.977    0.31E-04    0.45E-04    0.10E-06
   1     10    11.864    13.559    0.25E-04    0.37E-04    0.89E-07
 Optimization of the real space projectors (new method)

 maximal supplied QI-value         = 16.25
 optimisation between [QCUT,QGAM] = [ 11.86, 23.89] = [ 39.41,159.82] Ry 
 Optimized for a Real-space Cutoff    1.33 Angstroem

   l    n(q)    QCUT    max X(q) W(low)/X(q) W(high)/X(q)  e(spline) 
   2      9    11.864    65.824    0.22E-03    0.53E-03    0.26E-06
   2      9    11.864    61.429    0.22E-03    0.53E-03    0.26E-06
   0      9    11.864    56.174    0.21E-03    0.32E-04    0.15E-06
   0      9    11.864    31.263    0.19E-03    0.30E-04    0.14E-06
   1      9    11.864    19.828    0.63E-04    0.30E-03    0.16E-06
   1      9    11.864    15.139    0.49E-04    0.25E-03    0.13E-06
 Optimization of the real space projectors (new method)

 maximal supplied QI-value         = 16.25
 optimisation between [QCUT,QGAM] = [ 11.86, 23.89] = [ 39.41,159.82] Ry 
 Optimized for a Real-space Cutoff    1.49 Angstroem

   l    n(q)    QCUT    max X(q) W(low)/X(q) W(high)/X(q)  e(spline) 
   2     10    11.864     4.610    0.10E-03    0.20E-03    0.29E-06
   2     10    11.864     8.522    0.17E-03    0.33E-03    0.50E-06
   0     11    11.864    51.609    0.52E-04    0.55E-04    0.33E-06
   0     11    11.864    27.747    0.46E-04    0.52E-04    0.31E-06
   1     10    11.864    20.408    0.54E-04    0.25E-04    0.21E-06
   1     10    11.864    13.425    0.48E-04    0.22E-04    0.18E-06
 Optimization of the real space projectors (new method)

 maximal supplied QI-value         = 16.25
 optimisation between [QCUT,QGAM] = [ 11.86, 23.89] = [ 39.41,159.82] Ry 
 Optimized for a Real-space Cutoff    1.33 Angstroem

   l    n(q)    QCUT    max X(q) W(low)/X(q) W(high)/X(q)  e(spline) 
   2      9    11.864    60.317    0.21E-03    0.51E-03    0.25E-06
   2      9    11.864    55.921    0.21E-03    0.51E-03    0.26E-06
   0      9    11.864    51.690    0.22E-03    0.30E-04    0.17E-06
   0      9    11.864    30.015    0.20E-03    0.28E-04    0.15E-06
   1      9    11.864    18.849    0.76E-04    0.33E-03    0.17E-06
   1      9    11.864    14.624    0.60E-04    0.28E-03    0.15E-06
 Optimization of the real space projectors (new method)

 maximal supplied QI-value         = 34.20
 optimisation between [QCUT,QGAM] = [ 11.97, 23.94] = [ 40.13,160.53] Ry 
 Optimized for a Real-space Cutoff    1.18 Angstroem

   l    n(q)    QCUT    max X(q) W(low)/X(q) W(high)/X(q)  e(spline) 
   0      8    11.971    19.460    0.15E-03    0.31E-03    0.25E-06
   0      8    11.971    12.209    0.13E-03    0.29E-03    0.25E-06
   1      8    11.971     4.655    0.22E-03    0.24E-03    0.21E-06
  PAW_PBE Pt 04Feb2005                  :
 energy of atom  1       EATOM= -729.1176
 kinetic energy error for atom=    0.0021 (will be added to EATOM!!)
  PAW_PBE Fe 06Sep2000                  :
 energy of atom  2       EATOM= -594.3153
 kinetic energy error for atom=    0.0024 (will be added to EATOM!!)
  PAW_PBE Co 02Aug2007                  :
 energy of atom  3       EATOM= -813.3670
 kinetic energy error for atom=    0.0026 (will be added to EATOM!!)
  PAW_PBE Cu 22Jun2005                  :
 energy of atom  4       EATOM=-1390.9808
 kinetic energy error for atom=    0.0036 (will be added to EATOM!!)
  PAW_PBE Ni 02Aug2007                  :
 energy of atom  5       EATOM=-1077.6739
 kinetic energy error for atom=    0.0027 (will be added to EATOM!!)
  PAW_PBE H 15Jun2001                   :
 energy of atom  6       EATOM=  -12.4884
 kinetic energy error for atom=    0.0008 (will be added to EATOM!!)
 
 
 POSCAR: 11.06                                   
  positions in cartesian coordinates
  No initial velocities read in
 exchange correlation table for  LEXCH =        8
   RHO(1)=    0.500       N(1)  =     2000
   RHO(2)=  100.500       N(2)  =     4000
 


--------------------------------------------------------------------------------------------------------


 ion  position               nearest neighbor table
   1  0.788  0.880  0.311-  49 2.58  59 2.63  28 2.66  19 2.76  61 2.77  33 2.77  29 2.77  60 2.78
                            11 2.78   4 2.81   2 2.83  12 2.89
   2  0.043  0.880  0.307-  79 2.54  77 2.58  28 2.71  30 2.75  33 2.75  60 2.76  52 2.79   6 2.79
                             1 2.83   4 2.84  22 2.84  16 2.91
   3  0.280  0.378  0.315-  64 2.54  68 2.65  31 2.66  39 2.67   5 2.73  33 2.74  13 2.77  25 2.80
                            19 2.80  43 2.81  30 2.83  18 2.96
   4  0.879  0.965  0.414-  81 1.89   9 2.70   6 2.71  60 2.72  17 2.77  16 2.78   1 2.81   2 2.84
                            11 2.85  12 2.86
   5  0.119  0.465  0.417-  39 2.65  12 2.68  33 2.70   7 2.73   3 2.73  16 2.75  10 2.75  25 2.78
                            13 2.85
   6  0.127  0.959  0.412-  52 2.65   4 2.71   8 2.74  14 2.76  16 2.76  22 2.78   9 2.79   2 2.79
                            10 2.80
   7  0.877  0.457  0.418-  39 2.63  75 2.65   5 2.73  15 2.73   9 2.73  10 2.75  29 2.75  12 2.77
                            27 2.81
   8  0.374  0.959  0.414-  43 2.57  52 2.63  61 2.69  14 2.72   6 2.74  27 2.75  10 2.76  13 2.76
                            11 2.76
   9  0.874  0.211  0.412-  75 2.64  60 2.67   4 2.70   7 2.73  15 2.74  17 2.75  22 2.77   6 2.79
                            10 2.82
  10  0.129  0.212  0.414-  39 2.64  43 2.68  13 2.72  22 2.73   7 2.75   5 2.75   8 2.76   6 2.80
                             9 2.82
  11  0.623  0.961  0.416-  81 1.81  13 2.72  61 2.73   8 2.76   1 2.78  27 2.79  19 2.79  17 2.79
                            12 2.81   4 2.85
  12  0.877  0.707  0.419-  81 1.87   5 2.68  33 2.71  29 2.72   7 2.77  16 2.78  11 2.81  27 2.81
                             4 2.86   1 2.89
  13  0.377  0.207  0.416-  43 2.68  10 2.72  11 2.72   8 2.76  19 2.76   3 2.77  25 2.78  17 2.78
                             5 2.85
  14  0.377  0.712  0.415-  44 2.63  52 2.65  27 2.69   8 2.72   6 2.76  30 2.76  15 2.77  16 2.78
                            25 2.81
  15  0.628  0.461  0.415-  44 2.63  75 2.65  27 2.71  18 2.72   7 2.73   9 2.74  14 2.77  17 2.77
                            25 2.83
  16  0.127  0.710  0.416-  33 2.64  30 2.73  25 2.75   5 2.75   6 2.76  12 2.78  14 2.78   4 2.78
                             2 2.91
  17  0.625  0.212  0.413-  18 2.69  60 2.73   9 2.75  25 2.77   4 2.77  15 2.77  13 2.78  11 2.79
                            19 2.82
  18  0.547  0.378  0.314-  67 2.54  68 2.61  26 2.66  17 2.69  15 2.72  44 2.73  60 2.74  75 2.75
                            25 2.80  30 2.83  19 2.86   3 2.96
  19  0.534  0.126  0.311-  80 2.54  68 2.56  59 2.58  43 2.65  13 2.76   1 2.76  61 2.78  11 2.79
                             3 2.80  17 2.82  18 2.86  60 2.88
  20  0.552  0.124  0.052-  37 2.54  57 2.54  48 2.56  62 2.67  63 2.77  47 2.79  34 2.81  56 2.83
                            45 2.95
  21  0.117  0.448  0.127-  47 2.51  36 2.52  40 2.52  42 2.62  70 2.69  69 2.70  64 2.70  31 2.74
                            50 2.78  57 2.79  74 3.04  58 3.09
  22  0.048  0.135  0.311-  65 2.53  77 2.54  55 2.56  43 2.70  39 2.70  10 2.73   9 2.77   6 2.78
                            75 2.81  52 2.83   2 2.84  60 2.85  31 3.34
  23  0.032  0.132  0.039-  70 2.56  41 2.58  40 2.58  62 2.69  76 2.70  24 2.71  45 2.77  35 2.89
                            53 2.93
  24  0.132  0.957  0.136-  79 2.51  35 2.56  77 2.57  53 2.57  55 2.59  70 2.65  58 2.68  23 2.71
                            73 2.74  38 2.74  66 2.81  41 2.91
  25  0.373  0.460  0.417-  16 2.75  17 2.77   5 2.78  13 2.78  30 2.79  18 2.80   3 2.80  14 2.81
                            15 2.83
  26  0.458  0.551  0.220-  74 2.50  73 2.52  51 2.55  79 2.63  30 2.64  18 2.66  44 2.68  32 2.73
                            78 2.74  68 2.81  67 2.84  64 2.85
  27  0.622  0.709  0.416-  44 2.62  61 2.68  14 2.69  15 2.71   8 2.75  29 2.76  11 2.79   7 2.81
                            12 2.81
  28  0.955  0.779  0.215-  58 2.56  50 2.56  66 2.61  42 2.65   1 2.66  33 2.67  49 2.68   2 2.71
                            64 2.75  59 2.94  77 3.16  79 3.16
  29  0.800  0.624  0.317-  42 2.55  32 2.63  39 2.63  49 2.64  75 2.68  12 2.72  33 2.73   7 2.75
                            27 2.76   1 2.77  61 2.79  44 2.83
  30  0.288  0.630  0.314-  79 2.53  64 2.63  26 2.64  33 2.71  16 2.73   2 2.75  52 2.75  14 2.76
                            25 2.79  44 2.79  18 2.83   3 2.83
  31  0.197  0.274  0.226-  70 2.49  43 2.57  57 2.57  55 2.61  39 2.62  65 2.63   3 2.66  21 2.74
                            42 2.80  80 2.84  64 2.96  68 3.01  22 3.34
  32  0.704  0.554  0.222-  54 2.55  69 2.55  51 2.59  49 2.63  29 2.63  44 2.66  78 2.67  75 2.67
                            65 2.72  42 2.73  26 2.73  67 2.77
  33  0.042  0.634  0.319-  16 2.64  28 2.67  64 2.67   5 2.70  12 2.71  30 2.71  42 2.71  29 2.73
                             3 2.74   2 2.75   1 2.77  39 2.80
  34  0.794  0.860  0.055-  50 2.37  48 2.43  66 2.54  36 2.60  63 2.69  71 2.72  20 2.81  35 2.85

  35  0.050  0.863  0.048-  36 2.43  58 2.54  24 2.56  66 2.58  72 2.69  34 2.85  23 2.89  53 2.90
                            62 2.92
  36  0.046  0.646  0.053-  35 2.43  21 2.52  58 2.52  50 2.58  34 2.60  72 2.68  47 2.90  71 3.06

  37  0.627  0.234  0.134-  67 2.50  56 2.50  51 2.50  20 2.54  59 2.54  74 2.55  68 2.55  62 2.57
                            41 2.59  66 2.76
  38  0.383  0.952  0.134-  45 2.42  53 2.43  80 2.46  55 2.52  78 2.52  63 2.54  73 2.58  54 2.59
                            48 2.62  24 2.74  57 2.75  70 2.83
  39  0.035  0.384  0.321-  42 2.60  31 2.62   7 2.63  29 2.63  10 2.64   5 2.65   3 2.67  75 2.68
                            65 2.68  22 2.70  33 2.80  43 2.96
  40  0.009  0.376  0.044-  69 2.35  76 2.47  21 2.52  23 2.58  70 2.59  71 2.60  45 3.03
  41  0.868  0.220  0.132-  76 2.44  77 2.46  67 2.52  65 2.54  62 2.56  23 2.58  37 2.59  69 2.60
                            51 2.66  66 2.68  70 2.71  24 2.91
  42  0.958  0.538  0.223-  50 2.48  29 2.55  39 2.60  21 2.62  69 2.62  28 2.65  65 2.66  33 2.71
                            32 2.73  64 2.76  49 2.77  31 2.80
  43  0.301  0.114  0.319-  55 2.51   8 2.57  31 2.57  80 2.58  19 2.65  52 2.67  10 2.68  13 2.68
                            61 2.68  22 2.70   3 2.81  39 2.96
  44  0.542  0.626  0.320-  78 2.62  27 2.62  14 2.63  15 2.63  32 2.66  26 2.68  61 2.70  75 2.71
                            52 2.72  18 2.73  30 2.79  29 2.83
  45  0.291  0.112  0.049-  38 2.42  70 2.44  53 2.53  57 2.59  63 2.71  23 2.77  20 2.95  40 3.03
                            47 3.10
  46  0.550  0.626  0.049-  54 2.38  51 2.39  73 2.40  71 2.55  76 2.70  56 2.73  53 2.75  63 2.76
                            72 2.80
  47  0.309  0.384  0.051-  74 2.30  21 2.51  56 2.59  57 2.60  72 2.60  20 2.79  36 2.90  45 3.10

  48  0.625  0.943  0.137-  49 2.35  34 2.43  80 2.48  54 2.52  63 2.52  20 2.56  59 2.58  38 2.62
                            50 2.70  57 2.82  66 2.91
  49  0.707  0.789  0.221-  48 2.35  50 2.43  54 2.50   1 2.58  61 2.63  32 2.63  29 2.64  80 2.66
                            78 2.67  28 2.68  42 2.77  59 2.93
  50  0.857  0.689  0.133-  71 2.36  34 2.37  49 2.43  42 2.48  54 2.49  69 2.53  28 2.56  36 2.58
                            48 2.70  21 2.78
  51  0.628  0.460  0.130-  46 2.39  76 2.43  37 2.50  56 2.51  26 2.55  32 2.59  67 2.62  69 2.64
                            41 2.66  74 2.68  73 2.76  54 2.82
  52  0.298  0.874  0.317-  55 2.42  79 2.45  78 2.55   8 2.63  14 2.65   6 2.65  43 2.67  61 2.69
                            44 2.72  30 2.75   2 2.79  22 2.83
  53  0.305  0.877  0.046-  73 2.41  38 2.43  45 2.53  24 2.57  63 2.65  46 2.75  72 2.84  35 2.90
                            23 2.93
  54  0.618  0.719  0.131-  46 2.38  71 2.46  63 2.47  50 2.49  49 2.50  48 2.52  32 2.55  78 2.57
                            73 2.58  38 2.59  51 2.82  69 2.86
  55  0.233  0.022  0.228-  52 2.42  79 2.51  43 2.51  38 2.52  78 2.53  80 2.53  22 2.56  24 2.59
                            31 2.61  70 2.73  77 2.91
  56  0.542  0.383  0.041-  74 2.49  37 2.50  51 2.51  47 2.59  76 2.65  72 2.69  46 2.73  62 2.77
                            20 2.83
  57  0.375  0.205  0.139-  68 2.48  20 2.54  80 2.57  31 2.57  45 2.59  47 2.60  38 2.75  21 2.79
                            70 2.82  48 2.82  74 2.83
  58  0.156  0.704  0.140-  72 2.42  64 2.44  79 2.47  36 2.52  35 2.54  28 2.56  73 2.63  24 2.68
                            74 2.68  21 3.09
  59  0.702  0.057  0.220-  66 2.47  37 2.54  19 2.58  48 2.58  60 2.58   1 2.63  68 2.69  67 2.75
                            77 2.81  80 2.86  49 2.93  28 2.94
  60  0.793  0.129  0.313-  67 2.51  77 2.53  59 2.58   9 2.67   4 2.72  17 2.73  18 2.74   2 2.76
                             1 2.78  75 2.84  22 2.85  19 2.88
  61  0.543  0.871  0.316-  78 2.47  80 2.49  49 2.63  27 2.68  43 2.68   8 2.69  52 2.69  44 2.70
                            11 2.73   1 2.77  19 2.78  29 2.79
  62  0.790  0.129  0.042-  66 2.50  41 2.56  37 2.57  20 2.67  76 2.69  23 2.69  56 2.77  35 2.92

  63  0.544  0.878  0.042-  54 2.47  48 2.52  38 2.54  53 2.65  34 2.69  45 2.71  71 2.75  46 2.76
                            20 2.77
  64  0.208  0.536  0.222-  58 2.44   3 2.54  74 2.62  30 2.63  33 2.67  68 2.69  21 2.70  28 2.75
                            42 2.76  26 2.85  31 2.96
  65  0.946  0.304  0.224-  69 2.49  22 2.53  41 2.54  75 2.56  67 2.57  77 2.61  70 2.62  31 2.63
                            42 2.66  39 2.68  32 2.72
  66  0.869  0.977  0.134-  59 2.47  62 2.50  77 2.52  34 2.54  35 2.58  28 2.61  41 2.68  37 2.76
                            24 2.81  48 2.91
  67  0.717  0.297  0.226-  37 2.50  60 2.51  41 2.52  18 2.54  65 2.57  77 2.58  75 2.58  51 2.62
                            59 2.75  32 2.77  26 2.84
  68  0.456  0.298  0.222-  57 2.48  74 2.48  37 2.55  19 2.56  18 2.61   3 2.65  64 2.69  59 2.69
                            26 2.81  31 3.01
  69  0.869  0.454  0.131-  40 2.35  76 2.47  71 2.47  65 2.49  50 2.53  32 2.55  41 2.60  42 2.62
                            51 2.64  21 2.70  70 2.79  54 2.86
  70  0.122  0.202  0.132-  45 2.44  31 2.49  23 2.56  40 2.59  65 2.62  24 2.65  21 2.69  41 2.71
                            55 2.73  69 2.79  57 2.82  38 2.83
  71  0.783  0.620  0.045-  50 2.36  54 2.46  69 2.47  46 2.55  40 2.60  76 2.70  34 2.72  63 2.75
                            36 3.06
  72  0.298  0.624  0.049-  58 2.42  74 2.44  73 2.50  47 2.60  36 2.68  35 2.69  56 2.69  46 2.80
                            53 2.84
  73  0.386  0.717  0.131-  46 2.40  53 2.41  72 2.50  26 2.52  79 2.55  78 2.57  54 2.58  38 2.58
                            58 2.63  24 2.74  51 2.76  74 2.90
  74  0.388  0.454  0.132-  47 2.30  72 2.44  68 2.48  56 2.49  26 2.50  37 2.55  64 2.62  51 2.68
                            58 2.68  57 2.83  73 2.90  21 3.04
  75  0.792  0.386  0.319-  65 2.56  67 2.58   9 2.64  15 2.65   7 2.65  32 2.67  29 2.68  39 2.68
                            44 2.71  18 2.75  22 2.81  60 2.84
  76  0.786  0.375  0.044-  51 2.43  41 2.44  69 2.47  40 2.47  56 2.65  62 2.69  46 2.70  71 2.70
                            23 2.70
  77  0.951  0.066  0.221-  41 2.46  66 2.52  60 2.53  22 2.54  24 2.57  67 2.58   2 2.58  65 2.61
                            59 2.81  55 2.91  79 3.04  28 3.16
  78  0.464  0.795  0.226-  61 2.47  80 2.52  38 2.52  55 2.53  52 2.55  79 2.57  73 2.57  54 2.57
                            44 2.62  32 2.67  49 2.67  26 2.74
  79  0.231  0.796  0.226-  52 2.45  58 2.47  55 2.51  24 2.51  30 2.53   2 2.54  73 2.55  78 2.57
                            26 2.63  77 3.04  28 3.16
  80  0.461  0.024  0.225-  38 2.46  48 2.48  61 2.49  78 2.52  55 2.53  19 2.54  57 2.57  43 2.58
                            49 2.66  31 2.84  59 2.86
  81  0.788  0.883  0.456-  11 1.81  12 1.87   4 1.89
 
  LATTYP: Found a hexagonal cell.
 ALAT       =    11.0600004197
 C/A-ratio  =     1.9891500149
  
  Lattice vectors:
  
 A1 = (   5.5300002098,  -9.5782413293,   0.0000000000)
 A2 = ( -11.0600004196,   0.0000000000,   0.0000000000)
 A3 = (   0.0000000000,   0.0000000000, -22.0000000000)


Analysis of symmetry for initial positions (statically):
=====================================================================
 Subroutine PRICEL returns:
 Original cell was already a primitive cell.
 

 Routine SETGRP: Setting up the symmetry group for a 
 hexagonal supercell.


 Subroutine GETGRP returns: Found  1 space group operations
 (whereof  1 operations were pure point group operations)
 out of a pool of 24 trial point group operations.


The static configuration has the point symmetry C_1 .


Analysis of symmetry for dynamics (positions and initial velocities):
=====================================================================
 Subroutine PRICEL returns:
 Original cell was already a primitive cell.
 

 Routine SETGRP: Setting up the symmetry group for a 
 hexagonal supercell.


 Subroutine GETGRP returns: Found  1 space group operations
 (whereof  1 operations were pure point group operations)
 out of a pool of 24 trial point group operations.


The dynamic configuration has the point symmetry C_1 .


Analysis of constrained symmetry for selective dynamics:
=====================================================================
 Subroutine PRICEL returns:
 Original cell was already a primitive cell.
 

 Routine SETGRP: Setting up the symmetry group for a 
 hexagonal supercell.


 Subroutine GETGRP returns: Found  1 space group operations
 (whereof  1 operations were pure point group operations)
 out of a pool of 24 trial point group operations.


The constrained configuration has the point symmetry C_1 .


Analysis of structural, dynamic, and magnetic symmetry:
=====================================================================
 Subroutine PRICEL returns:
 Original cell was already a primitive cell.
 

 Routine SETGRP: Setting up the symmetry group for a 
 hexagonal supercell.


 Subroutine GETGRP returns: Found  1 space group operations
 (whereof  1 operations were pure point group operations)
 out of a pool of 24 trial point group operations.


The magnetic configuration has the point symmetry C_1 .


 Subroutine INISYM returns: Found  1 space group operations
 (whereof  1 operations are pure point group operations),
 and found     1 'primitive' translations

 
 
 KPOINTS: mesh auto                               

Automatic generation of k-mesh.
Space group operators:
 irot       det(A)        alpha          n_x          n_y          n_z        tau_x        tau_y        tau_z
    1     1.000000     0.000000     1.000000     0.000000     0.000000     0.000000     0.000000     0.000000
 
 Subroutine IBZKPT returns following result:
 ===========================================
 
 Found      4 irreducible k-points:
 
 Following reciprocal coordinates:
            Coordinates               Weight
  0.000000  0.000000  0.000000      1.000000
  0.500000  0.000000  0.000000      1.000000
  0.000000  0.500000  0.000000      1.000000
  0.500000  0.500000  0.000000      1.000000
 
 Following cartesian coordinates:
            Coordinates               Weight
  0.000000  0.000000  0.000000      1.000000
  0.045208 -0.026101  0.000000      1.000000
  0.000000  0.052202  0.000000      1.000000
  0.045208  0.026101  0.000000      1.000000
 
 TETIRR: Found     12 inequivalent tetrahedra from       24
 
 Subroutine IBZKPT_HF returns following result:
 ==============================================
 
 Found      4 k-points in 1st BZ
 the following      4 k-points will be used (e.g. in the exchange kernel)
 Following reciprocal coordinates:   # in IRBZ
  0.000000  0.000000  0.000000    0.25000000   1 t-inv F
  0.500000  0.000000  0.000000    0.25000000   2 t-inv F
  0.000000  0.500000  0.000000    0.25000000   3 t-inv F
  0.500000  0.500000  0.000000    0.25000000   4 t-inv F


--------------------------------------------------------------------------------------------------------




 Dimension of arrays:
   k-points           NKPTS =      4   k-points in BZ     NKDIM =      4   number of bands    NBANDS=    624
   number of dos      NEDOS =    301   number of ions     NIONS =     81
   non local maximal  LDIM  =      6   non local SUM 2l+1 LMDIM =     18
   total plane-waves  NPLWV = ******
   max r-space proj   IRMAX =   8163   max aug-charges    IRDMAX=  35560
   dimension x,y,z NGX =    90 NGY =   90 NGZ =  168
   dimension x,y,z NGXF=   180 NGYF=  180 NGZF=  336
   support grid    NGXF=   180 NGYF=  180 NGZF=  336
   ions per type =              32  13  10  13  12   1
   NGX,Y,Z   is equivalent  to a cutoff of  13.53, 13.53, 12.70 a.u.
   NGXF,Y,Z  is equivalent  to a cutoff of  27.06, 27.06, 25.39 a.u.

 SYSTEM =  Pt111                                   
 POSCAR =  11.06                                   

 Startparameter for this run:
   NWRITE =      2    write-flag & timer
   PREC   = accura    normal or accurate (medium, high low for compatibility)
   ISTART =      0    job   : 0-new  1-cont  2-samecut
   ICHARG =      2    charge: 1-file 2-atom 10-const
   ISPIN  =      2    spin polarized calculation?
   LNONCOLLINEAR =      F non collinear calculations
   LSORBIT =      F    spin-orbit coupling
   INIWAV =      1    electr: 0-lowe 1-rand  2-diag
   LASPH  =      F    aspherical Exc in radial PAW
   METAGGA=      F    non-selfconsistent MetaGGA calc.

 Electronic Relaxation 1
   ENCUT  =  550.0 eV  40.42 Ry    6.36 a.u.  21.15 21.15 42.07*2*pi/ulx,y,z
   ENINI  =  550.0     initial cutoff
   ENAUG  =  587.0 eV  augmentation charge cutoff
   NELM   =    200;   NELMIN=  2; NELMDL= -5     # of ELM steps 
   EDIFF  = 0.1E-04   stopping-criterion for ELM
   LREAL  =      T    real-space projection
   NLSPLINE    = F    spline interpolate recip. space projectors
   LCOMPAT=      F    compatible to vasp.4.4
   GGA_COMPAT  = T    GGA compatible to vasp.4.4-vasp.4.6
   LMAXPAW     = -100 max onsite density
   LMAXMIX     =    2 max onsite mixed and CHGCAR
   VOSKOWN=      0    Vosko Wilk Nusair interpolation
   ROPT   =   -0.00025  -0.00025  -0.00025  -0.00025
   ROPT   =   -0.00025  -0.00025
 Ionic relaxation
   EDIFFG = -.5E-01   stopping-criterion for IOM
   NSW    =   1009    number of steps for IOM
   NBLOCK =      1;   KBLOCK =   1009    inner block; outer block 
   IBRION =      5    ionic relax: 0-MD 1-quasi-New 2-CG
   NFREE  =      2    steps in history (QN), initial steepest desc. (CG)
   ISIF   =      2    stress and relaxation
   IWAVPR =     11    prediction:  0-non 1-charg 2-wave 3-comb
   ISYM   =      2    0-nonsym 1-usesym 2-fastsym
   LCORR  =      T    Harris-Foulkes like correction to forces

   POTIM  = 0.5000    time-step for ionic-motion
   TEIN   =    0.0    initial temperature
   TEBEG  =    0.0;   TEEND  =   0.0 temperature during run
   SMASS  =  -3.00    Nose mass-parameter (am)
   estimated Nose-frequenzy (Omega)   =  0.10E-29 period in steps =****** mass=  -0.280E-26a.u.
   SCALEE = 1.0000    scale energy and forces
   NPACO  =    256;   APACO  = 16.0  distance and # of slots for P.C.
   PSTRESS=    0.0 pullay stress

  Mass of Ions in am
   POMASS = 195.08 55.85 58.93 63.55 58.69  1.00
  Ionic Valenz
   ZVAL   =  10.00  8.00  9.00 11.00 10.00  1.00
  Atomic Wigner-Seitz radii
   RWIGS  =  -1.00 -1.00 -1.00 -1.00 -1.00 -1.00
  virtual crystal weights 
   VCA    =   1.00  1.00  1.00  1.00  1.00  1.00
   NELECT =     778.0000    total number of electrons
   NUPDOWN=      -1.0000    fix difference up-down

 DOS related values:
   EMIN   =  10.00;   EMAX   =-10.00  energy-range for DOS
   EFERMI =   0.00
   ISMEAR =    -5;   SIGMA  =   0.10  broadening in eV -4-tet -1-fermi 0-gaus

 Electronic relaxation 2 (details)
   IALGO  =     68    algorithm
   LDIAG  =      T    sub-space diagonalisation (order eigenvalues)
   LSUBROT=      F    optimize rotation matrix (better conditioning)
   TURBO    =      0    0=normal 1=particle mesh
   IRESTART =      0    0=no restart 2=restart with 2 vectors
   NREBOOT  =      0    no. of reboots
   NMIN     =      0    reboot dimension
   EREF     =   0.00    reference energy to select bands
   IMIX   =      4    mixing-type and parameters
     AMIX     =   0.40;   BMIX     =  1.00
     AMIX_MAG =   1.60;   BMIX_MAG =  1.00
     AMIN     =   0.10
     WC   =   100.;   INIMIX=   1;  MIXPRE=   1;  MAXMIX= -45

 Intra band minimization:
   WEIMIN = 0.0010     energy-eigenvalue tresh-hold
   EBREAK =  0.40E-08  absolut break condition
   DEPER  =   0.30     relativ break condition  

   TIME   =   0.40     timestep for ELM

  volume/ion in A,a.u.               =      28.77       194.17
  Fermi-wavevector in a.u.,A,eV,Ry     =   1.135656  2.146079 17.547634  1.289715
  Thomas-Fermi vector in A             =   2.272361
 
 Write flags
   LWAVE        =      F    write WAVECAR
   LDOWNSAMPLE  =      F    k-point downsampling of WAVECAR
   LCHARG       =      F    write CHGCAR
   LVTOT        =      F    write LOCPOT, total local potential
   LVHAR        =      F    write LOCPOT, Hartree potential only
   LELF         =      F    write electronic localiz. function (ELF)
   LORBIT       =      0    0 simple, 1 ext, 2 COOP (PROOUT), +10 PAW based schemes


 Dipole corrections
   LMONO  =      F    monopole corrections only (constant potential shift)
   LDIPOL =      F    correct potential (dipole corrections)
   IDIPOL =      0    1-x, 2-y, 3-z, 4-all directions 
   EPSILON=  1.0000000 bulk dielectric constant

 Exchange correlation treatment:
   GGA     =    --    GGA type
   LEXCH   =     8    internal setting for exchange type
   VOSKOWN=      0    Vosko Wilk Nusair interpolation
   LHFCALC =     F    Hartree Fock is set to
   LHFONE  =     F    Hartree Fock one center treatment
   AEXX    =    0.0000 exact exchange contribution

 Linear response parameters
   LEPSILON=     F    determine dielectric tensor
   LRPA    =     F    only Hartree local field effects (RPA)
   LNABLA  =     F    use nabla operator in PAW spheres
   LVEL    =     F    velocity operator in full k-point grid
   LINTERFAST=   F  fast interpolation
   KINTER  =     0    interpolate to denser k-point grid
   CSHIFT  =0.1000    complex shift for real part using Kramers Kronig
   OMEGAMAX=  -1.0    maximum frequency
   DEG_THRESHOLD= 0.2000000E-02 threshold for treating states as degnerate
   RTIME   =   -0.100 relaxation time in fs
  (WPLASMAI=    0.000 imaginary part of plasma frequency in eV, 0.658/RTIME)
   DFIELD  = 0.0000000 0.0000000 0.0000000 field for delta impulse in time
 
 Orbital magnetization related:
   ORBITALMAG=     F  switch on orbital magnetization
   LCHIMAG   =     F  perturbation theory with respect to B field
   DQ        =  0.001000  dq finite difference perturbation B field
   LLRAUG    =     F  two centre corrections for induced B field



--------------------------------------------------------------------------------------------------------


 finite differences
   using selective dynamics as specified on POSCAR
   WARNING: If single coordinates had been selected the selection of coordinates
            is made according to the corresponding   d i r e c t   coordinates!
            Don't support selection of single cartesian coordinates -- sorry ...
  !
 charge density and potential will be updated during run
 spin polarized calculation
 RMM-DIIS sequential band-by-band and
  variant of blocked Davidson during initial phase
 perform sub-space diagonalisation
    before iterative eigenvector-optimisation
 modified Broyden-mixing scheme, WC =      100.0
 initial mixing is a Kerker type mixing with AMIX =  0.4000 and BMIX =      1.0000
 Hartree-type preconditioning will be used
 using additional bands          235
 real space projection scheme for non local part
 use partial core corrections
 calculate Harris-corrections to forces 
   (improved forces if not selfconsistent)
 use gradient corrections 
 use of overlap-Matrix (Vanderbilt PP)
 Fermi weights with tetrahedron method with Bloechl corrections


--------------------------------------------------------------------------------------------------------


  energy-cutoff  :      550.00
  volume of cell :     2330.58
      direct lattice vectors                 reciprocal lattice vectors
    11.060000420  0.000000000  0.000000000     0.090415910 -0.052201650  0.000000000
     5.530000210  9.578241329  0.000000000     0.000000000  0.104403300  0.000000000
     0.000000000  0.000000000 22.000000000     0.000000000  0.000000000  0.045454545

  length of vectors
    11.060000420 11.060000420 22.000000000     0.104403300  0.104403300  0.045454545


 
 k-points in units of 2pi/SCALE and weight: mesh auto                               
   0.00000000  0.00000000  0.00000000       0.250
   0.04520795 -0.02610082  0.00000000       0.250
   0.00000000  0.05220165  0.00000000       0.250
   0.04520795  0.02610082  0.00000000       0.250
 
 k-points in reciprocal lattice and weights: mesh auto                               
   0.00000000  0.00000000  0.00000000       0.250
   0.50000000  0.00000000  0.00000000       0.250
   0.00000000  0.50000000  0.00000000       0.250
   0.50000000  0.50000000  0.00000000       0.250
 
 position of ions in fractional coordinates (direct lattice) 
   0.78789036  0.88041854  0.31143378
   0.04332308  0.88037035  0.30665850
   0.27984172  0.37803056  0.31469746
   0.87878747  0.96476637  0.41385583
   0.11922789  0.46535404  0.41734029
   0.12657910  0.95936757  0.41211942
   0.87718764  0.45672662  0.41820382
   0.37415469  0.95892272  0.41384759
   0.87386513  0.21148298  0.41165090
   0.12876667  0.21169621  0.41446775
   0.62284503  0.96072655  0.41558144
   0.87710737  0.70703823  0.41883745
   0.37667770  0.20683143  0.41597796
   0.37710207  0.71181741  0.41514168
   0.62820209  0.46138771  0.41542719
   0.12662167  0.70991419  0.41603057
   0.62536970  0.21201631  0.41338994
   0.54726753  0.37779254  0.31445779
   0.53445831  0.12578360  0.31113039
   0.55179070  0.12374142  0.05223803
   0.11664031  0.44783054  0.12690504
   0.04812821  0.13455613  0.31138742
   0.03186342  0.13215323  0.03914365
   0.13229023  0.95742467  0.13574991
   0.37304828  0.45986806  0.41671588
   0.45833023  0.55057366  0.21962299
   0.62177605  0.70940557  0.41563648
   0.95473106  0.77905270  0.21531405
   0.79972726  0.62416178  0.31680496
   0.28849594  0.62985864  0.31381261
   0.19730386  0.27376709  0.22569465
   0.70394404  0.55368540  0.22172522
   0.04153111  0.63406866  0.31887268
   0.79426676  0.85995412  0.05534962
   0.05040034  0.86281033  0.04849241
   0.04583922  0.64588455  0.05316479
   0.62748553  0.23380425  0.13407091
   0.38303549  0.95218749  0.13425721
   0.03543855  0.38396717  0.32075456
   0.00878266  0.37630951  0.04359329
   0.86822399  0.21988956  0.13207131
   0.95768743  0.53847804  0.22346892
   0.30094748  0.11411219  0.31880139
   0.54244685  0.62642733  0.31981498
   0.29115016  0.11224154  0.04942744
   0.55011489  0.62555697  0.04882647
   0.30851450  0.38355964  0.05056246
   0.62453420  0.94332048  0.13749178
   0.70748620  0.78937003  0.22081801
   0.85712416  0.68932342  0.13253871
   0.62777237  0.45999968  0.13033077
   0.29805125  0.87375940  0.31735689
   0.30521974  0.87703315  0.04638098
   0.61823189  0.71917785  0.13087512
   0.23341642  0.02203156  0.22829392
   0.54221244  0.38306195  0.04085355
   0.37543997  0.20459316  0.13860528
   0.15586478  0.70436301  0.14002149
   0.70209783  0.05654741  0.21991291
   0.79343863  0.12898593  0.31313407
   0.54255212  0.87084271  0.31618175
   0.78970655  0.12944214  0.04180567
   0.54410433  0.87755340  0.04232343
   0.20842910  0.53574741  0.22172336
   0.94628336  0.30393848  0.22360982
   0.86905633  0.97705001  0.13425761
   0.71711062  0.29698767  0.22578458
   0.45638208  0.29767019  0.22194754
   0.86935297  0.45437442  0.13113085
   0.12200307  0.20180872  0.13240107
   0.78290196  0.62028376  0.04517290
   0.29789721  0.62412549  0.04942260
   0.38609046  0.71740367  0.13123061
   0.38842403  0.45385939  0.13216076
   0.79213850  0.38575514  0.31870291
   0.78618513  0.37451175  0.04413402
   0.95135446  0.06593013  0.22138172
   0.46359829  0.79518871  0.22640819
   0.23108351  0.79634638  0.22553160
   0.46122434  0.02412498  0.22485055
   0.78844530  0.88258885  0.45554491
 
 position of ions in cartesian coordinates  (Angst):
  13.58278239  8.43286125  6.85154307
   5.34760151  8.43239967  6.74648710
   5.18555863  3.62086792  6.92334404
  15.05454799  9.24076511  9.10482820
   3.89206846  4.45727334  9.18148642
   6.70526775  9.18905414  9.06662726
  12.22739394  4.37463782  9.20048412
   9.44099380  9.18479319  9.10464702
  10.83444967  2.02563506  9.05631986
   2.59483953  2.02767743  9.11829059
  12.20148436  9.20207075  9.14279168
  13.61072949  6.77218284  9.21442392
   5.30983335  1.98108136  9.15151507
   8.10709948  6.81795891  9.13311698
   9.49938958  4.41928286  9.13939829
   5.32626139  6.79972947  9.15267258
   8.08903943  2.03074342  9.09457878
   8.14197195  3.61858815  6.91807131
   6.60669250  1.20478564  6.84486850
   6.78709547  1.18522515  1.14923670
   3.76654481  4.28942896  2.79191094
   1.27639340  1.28881109  6.85052324
   1.08321683  1.26579552  0.86116039
   6.75768865  9.17044452  2.98649792
   6.66898463  4.40472728  9.16774932
   8.11380504  5.27352740  4.83170574
  10.79985629  6.79485772  9.14400254
  14.86748747  7.46195479  4.73690904
  12.29659857  5.97837213  6.96970905
   6.67388355  6.03293801  6.90387731
   3.69611280  2.62220721  4.96528240
  10.84750176  5.30333240  4.87795483
   3.96573393  6.07326268  7.01519889
  13.54013713  8.23684812  1.21769172
   5.32876904  8.26420554  1.06683310
   4.07872348  6.18643805  1.16962540
   8.23292784  2.23943355  2.94956001
   9.50196967  9.12028159  2.95365854
   2.51528892  3.67773022  7.05660032
   2.17812787  3.60438329  0.95905241
  10.81854706  2.10615528  2.90556873
  13.56980708  5.15767259  4.91631614
   3.95951967  1.09299405  7.01363047
   9.46360564  6.00007212  7.03592955
   3.84081665  1.07507655  1.08740358
   9.54360111  5.99173566  1.07418236
   5.53325542  3.67382684  1.11237413
  12.12391093  9.03535119  3.02481924
  12.19001410  7.56077667  4.85799630
  13.29175221  6.60250608  2.91585159
   9.48696101  4.40598797  2.86727693
   8.12833665  8.36907844  6.98185160
   8.22572396  8.40043513  1.02038156
  10.81469861  6.88845902  2.87925273
   2.70342022  0.21102363  5.02246627
   8.11520240  3.66905975  0.89877812
   5.28376640  1.95964267  3.04931611
   5.61899210  6.74655889  3.08047284
   8.07790953  0.54162477  4.83808406
   9.48872380  1.23545838  6.88894962
  10.81638698  8.34114162  6.95599846
   9.44996985  1.23982809  0.91972464
  10.87066461  8.40541820  0.93111538
   5.26790923  5.13151797  4.87791390
  12.14667424  2.91119613  4.91941612
  15.01485015  9.35842080  2.95366751
   9.57358561  2.84461955  4.96726068
   6.69370223  2.85115693  4.88284582
  12.12773486  4.35210787  2.88487863
   2.46535630  1.93297263  2.91282356
  12.08906533  5.94122750  0.99380383
   6.74615738  5.97802458  1.08729710
   8.23740307  6.87146547  2.88707340
   6.80581242  4.34717479  2.90753677
  10.89427814  3.69485579  7.01146401
  10.76625790  3.58716396  0.97094843
  10.88657438  0.63149474  4.87039779
   9.52479099  7.61650941  4.98098015
   6.95957939  7.62759781  4.96169511
   5.23455253  0.23107491  4.94671213
  13.60092188  8.45364896 10.02198803
 


--------------------------------------------------------------------------------------------------------


 k-point  1 :   0.0000 0.0000 0.0000  plane waves:   68137
 k-point  2 :   0.5000 0.0000 0.0000  plane waves:   68322
 k-point  3 :   0.0000 0.5000 0.0000  plane waves:   68322
 k-point  4 :   0.5000 0.5000 0.0000  plane waves:   68322

 maximum and minimum number of plane-waves per node :     68322    68137

 maximum number of plane-waves:     68322
 maximum index in each direction: 
   IXMAX=   21   IYMAX=   21   IZMAX=   42
   IXMIN=  -21   IYMIN=  -21   IZMIN=  -42


 serial   3D FFT for wavefunctions
 parallel 3D FFT for charge:
    minimum data exchange during FFTs selected (reduces bandwidth)


 total amount of memory used by VASP MPI-rank0   401611. kBytes
=======================================================================

   base      :      30000. kBytes
   nonlr-proj:     102988. kBytes
   fftplans  :      13535. kBytes
   grid      :     136356. kBytes
   one-center:       2519. kBytes
   wavefun   :     116213. kBytes
 
     INWAV:  cpu time    0.0000: real time    0.0003
 Broyden mixing: mesh for mixing (old mesh)
   NGX = 43   NGY = 43   NGZ = 85
  (NGX  =180   NGY  =180   NGZ  =336)
  gives a total of 157165 points

 initial charge density was supplied:
 charge density of overlapping atoms calculated
 number of electron     778.0000000 magnetization     231.0000000
 keeping initial charge density in first step


--------------------------------------------------------------------------------------------------------


 Maximum index for non-local projection operator         7894
 Maximum index for augmentation-charges         1134 (set IRDMAX)


--------------------------------------------------------------------------------------------------------


 First call to EWALD:  gamma=   0.134
 Maximum number of real-space cells 4x 4x 2
 Maximum number of reciprocal cells 2x 2x 4

    FEWALD:  cpu time    0.0042: real time    0.0046


--------------------------------------- Iteration      1(   1)  ---------------------------------------


    POTLOK:  cpu time    0.4945: real time    2.2329
    SETDIJ:  cpu time    0.0330: real time    0.0354
     EDDAV:  cpu time   63.4940: real time   63.7967
 BZINTS: Fermi energy: 16.508877;778.000000 electrons
         Band energy:7325.190277;  BLOECHL correction: -0.013888
       DOS:  cpu time    0.0465: real time    2.1482
    --------------------------------------------
      LOOP:  cpu time   64.0680: real time   68.2132

 eigenvalue-minimisations  :  9984
 total energy-change (2. order) : 0.7385301E+04  (-0.3324151E+05)
 number of electron     778.0000000 magnetization     231.0000000
 augmentation part      778.0000000 magnetization     231.0000000

 Free energy of the ion-electron system (eV)
  ---------------------------------------------------
  alpha Z        PSCENC =      2041.10282521
  Ewald energy   TEWEN  =    220845.67777199
  -Hartree energ DENC   =   -292517.86322564
  -exchange      EXHF   =         0.00000000
  -V(xc)+E(xc)   XCENC  =      1374.44720065
  PAW double counting   =     64136.80006862   -66038.70876209
  entropy T*S    EENTRO =         0.00000000
  eigenvalues    EBANDS =      7325.19027737
  atomic energy  EATOM  =     70218.65458108
  Solvation  Ediel_sol  =         0.00000000
  ---------------------------------------------------
  free energy    TOTEN  =      7385.30073720 eV

  energy without entropy =     7385.30073720  energy(sigma->0) =     7385.30073720


--------------------------------------------------------------------------------------------------------




--------------------------------------- Iteration      1(   2)  ---------------------------------------


     EDDAV:  cpu time   64.2617: real time   64.4622
 BZINTS: Fermi energy:  5.107272;778.000000 electrons
         Band energy: 532.567945;  BLOECHL correction: -0.074540
       DOS:  cpu time    0.0406: real time   20.7697
    --------------------------------------------
      LOOP:  cpu time   64.3023: real time   85.2319

 eigenvalue-minimisations  : 10128
 total energy-change (2. order) :-0.6792622E+04  (-0.6041850E+04)
 number of electron     778.0000000 magnetization     231.0000000
 augmentation part      778.0000000 magnetization     231.0000000

 Free energy of the ion-electron system (eV)
  ---------------------------------------------------
  alpha Z        PSCENC =      2041.10282521
  Ewald energy   TEWEN  =    220845.67777199
  -Hartree energ DENC   =   -292517.86322564
  -exchange      EXHF   =         0.00000000
  -V(xc)+E(xc)   XCENC  =      1374.44720065
  PAW double counting   =     64136.80006862   -66038.70876209
  entropy T*S    EENTRO =         0.00000000
  eigenvalues    EBANDS =       532.56794460
  atomic energy  EATOM  =     70218.65458108
  Solvation  Ediel_sol  =         0.00000000
  ---------------------------------------------------
  free energy    TOTEN  =       592.67840442 eV

  energy without entropy =      592.67840442  energy(sigma->0) =      592.67840442


--------------------------------------------------------------------------------------------------------




--------------------------------------- Iteration      1(   3)  ---------------------------------------


     EDDAV:  cpu time   63.9055: real time   64.1760
 BZINTS: Fermi energy:  2.918890;778.000000 electrons
         Band energy:-488.095449;  BLOECHL correction: -0.036907
       DOS:  cpu time    0.0455: real time   16.6634
    --------------------------------------------
      LOOP:  cpu time   63.9509: real time   80.8394

 eigenvalue-minimisations  : 10080
 total energy-change (2. order) :-0.1020663E+04  (-0.8518306E+03)
 number of electron     778.0000000 magnetization     231.0000000
 augmentation part      778.0000000 magnetization     231.0000000

 Free energy of the ion-electron system (eV)
  ---------------------------------------------------
  alpha Z        PSCENC =      2041.10282521
  Ewald energy   TEWEN  =    220845.67777199
  -Hartree energ DENC   =   -292517.86322564
  -exchange      EXHF   =         0.00000000
  -V(xc)+E(xc)   XCENC  =      1374.44720065
  PAW double counting   =     64136.80006862   -66038.70876209
  entropy T*S    EENTRO =         0.00000000
  eigenvalues    EBANDS =      -488.09544852
  atomic energy  EATOM  =     70218.65458108
  Solvation  Ediel_sol  =         0.00000000
  ---------------------------------------------------
  free energy    TOTEN  =      -427.98498870 eV

  energy without entropy =     -427.98498870  energy(sigma->0) =     -427.98498870


--------------------------------------------------------------------------------------------------------




--------------------------------------- Iteration      1(   4)  ---------------------------------------


     EDDAV:  cpu time   75.6717: real time   75.9974
 BZINTS: Fermi energy:  2.792529;778.000000 electrons
         Band energy:-552.802873;  BLOECHL correction: -0.057035
       DOS:  cpu time    0.0451: real time   34.7447
    --------------------------------------------
      LOOP:  cpu time   75.7168: real time  110.7424

 eigenvalue-minimisations  : 12432
 total energy-change (2. order) :-0.6470742E+02  (-0.6188989E+02)
 number of electron     778.0000000 magnetization     231.0000000
 augmentation part      778.0000000 magnetization     231.0000000

 Free energy of the ion-electron system (eV)
  ---------------------------------------------------
  alpha Z        PSCENC =      2041.10282521
  Ewald energy   TEWEN  =    220845.67777199
  -Hartree energ DENC   =   -292517.86322564
  -exchange      EXHF   =         0.00000000
  -V(xc)+E(xc)   XCENC  =      1374.44720065
  PAW double counting   =     64136.80006862   -66038.70876209
  entropy T*S    EENTRO =         0.00000000
  eigenvalues    EBANDS =      -552.80287279
  atomic energy  EATOM  =     70218.65458108
  Solvation  Ediel_sol  =         0.00000000
  ---------------------------------------------------
  free energy    TOTEN  =      -492.69241297 eV

  energy without entropy =     -492.69241297  energy(sigma->0) =     -492.69241297


--------------------------------------------------------------------------------------------------------




--------------------------------------- Iteration      1(   5)  ---------------------------------------


     EDDAV:  cpu time   74.5902: real time   74.9286
 BZINTS: Fermi energy:  2.789107;778.000000 electrons
         Band energy:-554.955612;  BLOECHL correction: -0.058599
       DOS:  cpu time    0.0390: real time    7.7031
    CHARGE:  cpu time    2.9919: real time    3.0313
    MIXING:  cpu time    0.0109: real time    0.0111
    --------------------------------------------
      LOOP:  cpu time   77.6320: real time   85.6738

 eigenvalue-minimisations  : 12192
 total energy-change (2. order) :-0.2152739E+01  (-0.2146311E+01)
 number of electron     778.0000019 magnetization     216.6297292
 augmentation part      335.4947434 magnetization     183.8584629

 Broyden mixing:
  rms(total) = 0.11257E+02    rms(broyden)= 0.11257E+02
  rms(prec ) = 0.11648E+02
  weight for this iteration     100.00

 Free energy of the ion-electron system (eV)
  ---------------------------------------------------
  alpha Z        PSCENC =      2041.10282521
  Ewald energy   TEWEN  =    220845.67777199
  -Hartree energ DENC   =   -292517.86322564
  -exchange      EXHF   =         0.00000000
  -V(xc)+E(xc)   XCENC  =      1374.44720065
  PAW double counting   =     64136.80006862   -66038.70876209
  entropy T*S    EENTRO =         0.00000000
  eigenvalues    EBANDS =      -554.95561183
  atomic energy  EATOM  =     70218.65458108
  Solvation  Ediel_sol  =         0.00000000
  ---------------------------------------------------
  free energy    TOTEN  =      -494.84515200 eV

  energy without entropy =     -494.84515200  energy(sigma->0) =     -494.84515200


--------------------------------------------------------------------------------------------------------




--------------------------------------- Iteration      1(   6)  ---------------------------------------


    POTLOK:  cpu time    0.4547: real time    0.4581
    SETDIJ:  cpu time    0.0318: real time    0.0320
    EDDIAG:  cpu time   10.7392: real time   10.7840
  RMM-DIIS:  cpu time   41.9089: real time   42.0750
    ORTHCH:  cpu time    1.5769: real time    5.7525
 BZINTS: Fermi energy:  1.437616;778.000000 electrons
         Band energy:***********;  BLOECHL correction: -0.024900
       DOS:  cpu time    0.0524: real time    0.3380
    CHARGE:  cpu time    2.9835: real time    3.0258
    MIXING:  cpu time    0.0126: real time    0.0208
    --------------------------------------------
      LOOP:  cpu time   57.7600: real time   62.4861

 eigenvalue-minimisations  : 10120
 total energy-change (2. order) :-0.2680820E+03  (-0.9385013E+02)
 number of electron     778.0000027 magnetization     213.1124303
 augmentation part      407.7237611 magnetization     177.8203540

 Broyden mixing:
  rms(total) = 0.21562E+02    rms(broyden)= 0.21562E+02
  rms(prec ) = 0.28527E+02
  weight for this iteration     100.00

 eigenvalues of (default mixing * dielectric matrix)
  average eigenvalue GAMMA=   0.1897
  0.1897

 Free energy of the ion-electron system (eV)
  ---------------------------------------------------
  alpha Z        PSCENC =      2041.10282521
  Ewald energy   TEWEN  =    220845.67777199
  -Hartree energ DENC   =   -290914.14636902
  -exchange      EXHF   =         0.00000000
  -V(xc)+E(xc)   XCENC  =      1332.46356925
  PAW double counting   =     68277.75669371   -69953.22620898
  entropy T*S    EENTRO =         0.00000000
  eigenvalues    EBANDS =     -2611.21000533
  atomic energy  EATOM  =     70218.65458108
  Solvation  Ediel_sol  =         0.00000000
  ---------------------------------------------------
  free energy    TOTEN  =      -762.92714209 eV

  energy without entropy =     -762.92714209  energy(sigma->0) =     -762.92714209


--------------------------------------------------------------------------------------------------------




--------------------------------------- Iteration      1(   7)  ---------------------------------------


    POTLOK:  cpu time    0.4470: real time    0.4494
    SETDIJ:  cpu time    0.0319: real time    0.0320
    EDDIAG:  cpu time   10.7380: real time   10.7722
  RMM-DIIS:  cpu time   41.3771: real time   41.6089
    ORTHCH:  cpu time    1.5683: real time    3.2855
 BZINTS: Fermi energy:  2.063942;778.000000 electrons
         Band energy:***********;  BLOECHL correction: -0.016390
       DOS:  cpu time    0.0239: real time    0.0240
    CHARGE:  cpu time    3.0443: real time    3.0556
    MIXING:  cpu time    0.0161: real time    0.7577
    --------------------------------------------
      LOOP:  cpu time   57.2466: real time   59.9854

 eigenvalue-minimisations  : 10003
 total energy-change (2. order) : 0.2751954E+03  (-0.1419753E+02)
 number of electron     778.0000023 magnetization     208.4220913
 augmentation part      374.7499286 magnetization     164.9464001

 Broyden mixing:
  rms(total) = 0.14123E+02    rms(broyden)= 0.14123E+02
  rms(prec ) = 0.18022E+02
  weight for this iteration     100.00

 eigenvalues of (default mixing * dielectric matrix)
  average eigenvalue GAMMA=   0.2549
  0.3351  0.1748

 Free energy of the ion-electron system (eV)
  ---------------------------------------------------
  alpha Z        PSCENC =      2041.10282521
  Ewald energy   TEWEN  =    220845.67777199
  -Hartree energ DENC   =   -291562.75660766
  -exchange      EXHF   =         0.00000000
  -V(xc)+E(xc)   XCENC  =      1350.09368147
  PAW double counting   =     69177.78576553   -71001.21836839
  entropy T*S    EENTRO =         0.00000000
  eigenvalues    EBANDS =     -1557.07142808
  atomic energy  EATOM  =     70218.65458108
  Solvation  Ediel_sol  =         0.00000000
  ---------------------------------------------------
  free energy    TOTEN  =      -487.73177886 eV

  energy without entropy =     -487.73177886  energy(sigma->0) =     -487.73177886


--------------------------------------------------------------------------------------------------------




--------------------------------------- Iteration      1(   8)  ---------------------------------------


    POTLOK:  cpu time    0.4629: real time    0.4651
    SETDIJ:  cpu time    0.0315: real time    0.0316
    EDDIAG:  cpu time   11.7271: real time   11.8802
  RMM-DIIS:  cpu time   41.5977: real time   41.7282
    ORTHCH:  cpu time    1.5820: real time    3.8964
 BZINTS: Fermi energy:  1.832709;778.000000 electrons
         Band energy:***********;  BLOECHL correction: -0.043996
       DOS:  cpu time    0.0239: real time    0.0240
    CHARGE:  cpu time    3.0327: real time    3.0508
    MIXING:  cpu time    0.0120: real time    0.0122
    --------------------------------------------
      LOOP:  cpu time   58.4697: real time   61.0885

 eigenvalue-minimisations  : 10011
 total energy-change (2. order) : 0.2136904E+02  (-0.1305348E+02)
 number of electron     778.0000021 magnetization     201.1201917
 augmentation part      375.7320201 magnetization     163.2395846

 Broyden mixing:
  rms(total) = 0.15780E+02    rms(broyden)= 0.15779E+02
  rms(prec ) = 0.18413E+02
  weight for this iteration     100.00

[...]
      9.463606  6.000072  7.035930            0           0           0  
      3.840817  1.075077  1.087404            0           0           0  
      9.543601  5.991736  1.074182            0           0           0  
      5.533255  3.673827  1.112374            0           0           0  
     12.123911  9.035351  3.024819            0           0           0  
     12.190014  7.560777  4.857996            0           0           0  
     13.291752  6.602506  2.915852            0           0           0  
      9.486961  4.405988  2.867277            0           0           0  
      8.128337  8.369078  6.981852            0           0           0  
      8.225724  8.400435  1.020382            0           0           0  
     10.814699  6.888459  2.879253            0           0           0  
      2.703420  0.211024  5.022466            0           0           0  
      8.115202  3.669060  0.898778            0           0           0  
      5.283766  1.959643  3.049316            0           0           0  
      5.618992  6.746559  3.080473            0           0           0  
      8.077910  0.541625  4.838084            0           0           0  
      9.488724  1.235458  6.888950            0           0           0  
     10.816387  8.341142  6.955998            0           0           0  
      9.449970  1.239828  0.919725            0           0           0  
     10.870665  8.405418  0.931115            0           0           0  
      5.267909  5.131518  4.877914            0           0           0  
     12.146674  2.911196  4.919416            0           0           0  
     15.014850  9.358421  2.953668            0           0           0  
      9.573586  2.844620  4.967261            0           0           0  
      6.693702  2.851157  4.882846            0           0           0  
     12.127735  4.352108  2.884879            0           0           0  
      2.465356  1.932973  2.912824            0           0           0  
     12.089065  5.941227  0.993804            0           0           0  
      6.746157  5.978025  1.087297            0           0           0  
      8.237403  6.871465  2.887073            0           0           0  
      6.805812  4.347175  2.907537            0           0           0  
     10.894278  3.694856  7.011464            0           0           0  
     10.766258  3.587164  0.970948            0           0           0  
     10.886574  0.631495  4.870398            0           0           0  
      9.524791  7.616509  4.980980            0           0           0  
      6.959579  7.627598  4.961695            0           0           0  
      5.234553  0.231075  4.946712            0           0           0  
     13.600922  8.453649 10.021988     0.228775   -0.039546    0.972676  
 
   2 f  =   21.172434 THz   133.030327 2PiTHz  706.236361 cm-1    87.562181 meV
             X         Y         Z           dx          dy          dz
     13.582782  8.432861  6.851543            0           0           0  
      5.347602  8.432400  6.746487            0           0           0  
      5.185559  3.620868  6.923344            0           0           0  
     15.054548  9.240765  9.104828            0           0           0  
      3.892068  4.457273  9.181486            0           0           0  
      6.705268  9.189054  9.066627            0           0           0  
     12.227394  4.374638  9.200484            0           0           0  
      9.440994  9.184793  9.104647            0           0           0  
     10.834450  2.025635  9.056320            0           0           0  
      2.594840  2.027677  9.118291            0           0           0  
     12.201484  9.202071  9.142792            0           0           0  
     13.610729  6.772183  9.214424            0           0           0  
      5.309833  1.981081  9.151515            0           0           0  
      8.107099  6.817959  9.133117            0           0           0  
      9.499390  4.419283  9.139398            0           0           0  
      5.326261  6.799729  9.152673            0           0           0  
      8.089039  2.030743  9.094579            0           0           0  
      8.141972  3.618588  6.918071            0           0           0  
      6.606693  1.204786  6.844869            0           0           0  
      6.787095  1.185225  1.149237            0           0           0  
      3.766545  4.289429  2.791911            0           0           0  
      1.276393  1.288811  6.850523            0           0           0  
      1.083217  1.265796  0.861160            0           0           0  
      6.757689  9.170445  2.986498            0           0           0  
      6.668985  4.404727  9.167749            0           0           0  
      8.113805  5.273527  4.831706            0           0           0  
     10.799856  6.794858  9.144003            0           0           0  
     14.867487  7.461955  4.736909            0           0           0  
     12.296599  5.978372  6.969709            0           0           0  
      6.673884  6.032938  6.903877            0           0           0  
      3.696113  2.622207  4.965282            0           0           0  
     10.847502  5.303332  4.877955            0           0           0  
      3.965734  6.073263  7.015199            0           0           0  
     13.540137  8.236848  1.217692            0           0           0  
      5.328769  8.264206  1.066833            0           0           0  
      4.078723  6.186438  1.169625            0           0           0  
      8.232928  2.239434  2.949560            0           0           0  
      9.501970  9.120282  2.953659            0           0           0  
      2.515289  3.677730  7.056600            0           0           0  
      2.178128  3.604383  0.959052            0           0           0  
     10.818547  2.106155  2.905569            0           0           0  
     13.569807  5.157673  4.916316            0           0           0  
      3.959520  1.092994  7.013630            0           0           0  
      9.463606  6.000072  7.035930            0           0           0  
      3.840817  1.075077  1.087404            0           0           0  
      9.543601  5.991736  1.074182            0           0           0  
      5.533255  3.673827  1.112374            0           0           0  
     12.123911  9.035351  3.024819            0           0           0  
     12.190014  7.560777  4.857996            0           0           0  
     13.291752  6.602506  2.915852            0           0           0  
      9.486961  4.405988  2.867277            0           0           0  
      8.128337  8.369078  6.981852            0           0           0  
      8.225724  8.400435  1.020382            0           0           0  
     10.814699  6.888459  2.879253            0           0           0  
      2.703420  0.211024  5.022466            0           0           0  
      8.115202  3.669060  0.898778            0           0           0  
      5.283766  1.959643  3.049316            0           0           0  
      5.618992  6.746559  3.080473            0           0           0  
      8.077910  0.541625  4.838084            0           0           0  
      9.488724  1.235458  6.888950            0           0           0  
     10.816387  8.341142  6.955998            0           0           0  
      9.449970  1.239828  0.919725            0           0           0  
     10.870665  8.405418  0.931115            0           0           0  
      5.267909  5.131518  4.877914            0           0           0  
     12.146674  2.911196  4.919416            0           0           0  
     15.014850  9.358421  2.953668            0           0           0  
      9.573586  2.844620  4.967261            0           0           0  
      6.693702  2.851157  4.882846            0           0           0  
     12.127735  4.352108  2.884879            0           0           0  
      2.465356  1.932973  2.912824            0           0           0  
     12.089065  5.941227  0.993804            0           0           0  
      6.746157  5.978025  1.087297            0           0           0  
      8.237403  6.871465  2.887073            0           0           0  
      6.805812  4.347175  2.907537            0           0           0  
     10.894278  3.694856  7.011464            0           0           0  
     10.766258  3.587164  0.970948            0           0           0  
     10.886574  0.631495  4.870398            0           0           0  
      9.524791  7.616509  4.980980            0           0           0  
      6.959579  7.627598  4.961695            0           0           0  
      5.234553  0.231075  4.946712            0           0           0  
     13.600922  8.453649 10.021988     0.546978   -0.821314   -0.162042  
 
   3 f  =   17.027899 THz   106.989445 2PiTHz  567.989554 cm-1    70.421755 meV
             X         Y         Z           dx          dy          dz
     13.582782  8.432861  6.851543            0           0           0  
      5.347602  8.432400  6.746487            0           0           0  
      5.185559  3.620868  6.923344            0           0           0  
     15.054548  9.240765  9.104828            0           0           0  
      3.892068  4.457273  9.181486            0           0           0  
      6.705268  9.189054  9.066627            0           0           0  
     12.227394  4.374638  9.200484            0           0           0  
      9.440994  9.184793  9.104647            0           0           0  
     10.834450  2.025635  9.056320            0           0           0  
      2.594840  2.027677  9.118291            0           0           0  
     12.201484  9.202071  9.142792            0           0           0  
     13.610729  6.772183  9.214424            0           0           0  
      5.309833  1.981081  9.151515            0           0           0  
      8.107099  6.817959  9.133117            0           0           0  
      9.499390  4.419283  9.139398            0           0           0  
      5.326261  6.799729  9.152673            0           0           0  
      8.089039  2.030743  9.094579            0           0           0  
      8.141972  3.618588  6.918071            0           0           0  
      6.606693  1.204786  6.844869            0           0           0  
      6.787095  1.185225  1.149237            0           0           0  
      3.766545  4.289429  2.791911            0           0           0  
      1.276393  1.288811  6.850523            0           0           0  
      1.083217  1.265796  0.861160            0           0           0  
      6.757689  9.170445  2.986498            0           0           0  
      6.668985  4.404727  9.167749            0           0           0  
      8.113805  5.273527  4.831706            0           0           0  
     10.799856  6.794858  9.144003            0           0           0  
     14.867487  7.461955  4.736909            0           0           0  
     12.296599  5.978372  6.969709            0           0           0  
      6.673884  6.032938  6.903877            0           0           0  
      3.696113  2.622207  4.965282            0           0           0  
     10.847502  5.303332  4.877955            0           0           0  
      3.965734  6.073263  7.015199            0           0           0  
     13.540137  8.236848  1.217692            0           0           0  
      5.328769  8.264206  1.066833            0           0           0  
      4.078723  6.186438  1.169625            0           0           0  
      8.232928  2.239434  2.949560            0           0           0  
      9.501970  9.120282  2.953659            0           0           0  
      2.515289  3.677730  7.056600            0           0           0  
      2.178128  3.604383  0.959052            0           0           0  
     10.818547  2.106155  2.905569            0           0           0  
     13.569807  5.157673  4.916316            0           0           0  
      3.959520  1.092994  7.013630            0           0           0  
      9.463606  6.000072  7.035930            0           0           0  
      3.840817  1.075077  1.087404            0           0           0  
      9.543601  5.991736  1.074182            0           0           0  
      5.533255  3.673827  1.112374            0           0           0  
     12.123911  9.035351  3.024819            0           0           0  
     12.190014  7.560777  4.857996            0           0           0  
     13.291752  6.602506  2.915852            0           0           0  
      9.486961  4.405988  2.867277            0           0           0  
      8.128337  8.369078  6.981852            0           0           0  
      8.225724  8.400435  1.020382            0           0           0  
     10.814699  6.888459  2.879253            0           0           0  
      2.703420  0.211024  5.022466            0           0           0  
      8.115202  3.669060  0.898778            0           0           0  
      5.283766  1.959643  3.049316            0           0           0  
      5.618992  6.746559  3.080473            0           0           0  
      8.077910  0.541625  4.838084            0           0           0  
      9.488724  1.235458  6.888950            0           0           0  
     10.816387  8.341142  6.955998            0           0           0  
      9.449970  1.239828  0.919725            0           0           0  
     10.870665  8.405418  0.931115            0           0           0  
      5.267909  5.131518  4.877914            0           0           0  
     12.146674  2.911196  4.919416            0           0           0  
     15.014850  9.358421  2.953668            0           0           0  
      9.573586  2.844620  4.967261            0           0           0  
      6.693702  2.851157  4.882846            0           0           0  
     12.127735  4.352108  2.884879            0           0           0  
      2.465356  1.932973  2.912824            0           0           0  
     12.089065  5.941227  0.993804            0           0           0  
      6.746157  5.978025  1.087297            0           0           0  
      8.237403  6.871465  2.887073            0           0           0  
      6.805812  4.347175  2.907537            0           0           0  
     10.894278  3.694856  7.011464            0           0           0  
     10.766258  3.587164  0.970948            0           0           0  
     10.886574  0.631495  4.870398            0           0           0  
      9.524791  7.616509  4.980980            0           0           0  
      6.959579  7.627598  4.961695            0           0           0  
      5.234553  0.231075  4.946712            0           0           0  
     13.600922  8.453649 10.021988    -0.805281   -0.569104    0.166266  
 
 Finite differences POTIM=  1.500000000000000E-002
  LATTYP: Found a hexagonal cell.
 ALAT       =    11.0600004197
 C/A-ratio  =     1.9891500149
  
  Lattice vectors:
  
 A1 = (   5.5300002098,  -9.5782413293,   0.0000000000)
 A2 = ( -11.0600004196,   0.0000000000,   0.0000000000)
 A3 = (   0.0000000000,   0.0000000000, -22.0000000000)


Analysis of symmetry for initial positions (statically):
=====================================================================
 Subroutine PRICEL returns:
 Original cell was already a primitive cell.
 

 Routine SETGRP: Setting up the symmetry group for a 
 hexagonal supercell.


 Subroutine GETGRP returns: Found  1 space group operations
 (whereof  1 operations were pure point group operations)
 out of a pool of 24 trial point group operations.


The static configuration has the point symmetry C_1 .


Analysis of symmetry for dynamics (positions and initial velocities):
=====================================================================
 Subroutine PRICEL returns:
 Original cell was already a primitive cell.
 

 Routine SETGRP: Setting up the symmetry group for a 
 hexagonal supercell.


 Subroutine GETGRP returns: Found  1 space group operations
 (whereof  1 operations were pure point group operations)
 out of a pool of 24 trial point group operations.


The dynamic configuration has the point symmetry C_1 .


Analysis of constrained symmetry for selective dynamics:
=====================================================================
 Subroutine PRICEL returns:
 Original cell was already a primitive cell.
 

 Routine SETGRP: Setting up the symmetry group for a 
 hexagonal supercell.


 Subroutine GETGRP returns: Found  1 space group operations
 (whereof  1 operations were pure point group operations)
 out of a pool of 24 trial point group operations.


The constrained configuration has the point symmetry C_1 .


Analysis of structural, dynamic, and magnetic symmetry:
=====================================================================
 Subroutine PRICEL returns:
 Original cell was already a primitive cell.
 

 Routine SETGRP: Setting up the symmetry group for a 
 hexagonal supercell.


 Subroutine GETGRP returns: Found  1 space group operations
 (whereof  1 operations were pure point group operations)
 out of a pool of 24 trial point group operations.


The magnetic configuration has the point symmetry C_1 .


 Subroutine INISYM returns: Found  1 space group operations
 (whereof  1 operations are pure point group operations),
 and found     1 'primitive' translations

 
 KPOINTS: mesh auto                               

Automatic generation of k-mesh.
Space group operators:
 irot       det(A)        alpha          n_x          n_y          n_z        tau_x        tau_y        tau_z
    1     1.000000     0.000000     1.000000     0.000000     0.000000     0.000000     0.000000     0.000000
 
 Subroutine IBZKPT returns following result:
 ===========================================
 
 Found      4 irreducible k-points:
 
 Following reciprocal coordinates:
            Coordinates               Weight
  0.000000  0.000000  0.000000      1.000000
  0.500000  0.000000  0.000000      1.000000
  0.000000  0.500000  0.000000      1.000000
  0.500000  0.500000  0.000000      1.000000
 
 Following cartesian coordinates:
            Coordinates               Weight
  0.000000  0.000000  0.000000      1.000000
  0.045208 -0.026101  0.000000      1.000000
  0.000000  0.052202  0.000000      1.000000
  0.045208  0.026101  0.000000      1.000000
 
 TETIRR: Found     12 inequivalent tetrahedra from       24
     LOOP+:  cpu time  564.5301: real time  591.1048
    4ORBIT:  cpu time    0.0000: real time    0.0000
 BZINTS: Fermi energy:  1.461678;778.000000 electrons
         Band energy:***********;  BLOECHL correction: -0.230604

 total amount of memory used by VASP MPI-rank0   401611. kBytes
=======================================================================

   base      :      30000. kBytes
   nonlr-proj:     102988. kBytes
   fftplans  :      13535. kBytes
   grid      :     136356. kBytes
   one-center:       2519. kBytes
   wavefun   :     116213. kBytes
 
  
  
 General timing and accounting informations for this job:
 ========================================================
  
                  Total CPU time used (sec):     8665.588
                            User time (sec):     8597.672
                          System time (sec):       67.916
                         Elapsed time (sec):     9248.251
  
                   Maximum memory used (kb):      754660.
                   Average memory used (kb):           0.
  
                          Minor page faults:     14709994
                          Major page faults:          466
                 Voluntary context switches:         9604
