 vasp.5.4.4.18Apr17-6-g9f103f2a35 (build Nov 30 2020 22:55:02) complex          
  
 executed on             LinuxIFC date 2023.09.15  11:02:23
 running on   40 total cores
 distrk:  each k-point on   40 cores,    1 groups
 distr:  one band on NCORES_PER_BAND=   1 cores,   40 groups


--------------------------------------------------------------------------------------------------------


 INCAR:
 POTCAR:    PAW_PBE Ni 02Aug2007                  
 POTCAR:    PAW_PBE Pt 04Feb2005                  
 POTCAR:    PAW_PBE H 15Jun2001                   

 ----------------------------------------------------------------------------- 
|                                                                             |
|           W    W    AA    RRRRR   N    N  II  N    N   GGGG   !!!           |
|           W    W   A  A   R    R  NN   N  II  NN   N  G    G  !!!           |
|           W    W  A    A  R    R  N N  N  II  N N  N  G       !!!           |
|           W WW W  AAAAAA  RRRRR   N  N N  II  N  N N  G  GGG   !            |
|           WW  WW  A    A  R   R   N   NN  II  N   NN  G    G                |
|           W    W  A    A  R    R  N    N  II  N    N   GGGG   !!!           |
|                                                                             |
|      For optimal performance we recommend to set                            |
|        NCORE= 4 - approx SQRT( number of cores)                             |
|      NCORE specifies how many cores store one orbital (NPAR=cpu/NCORE).     |
|      This setting can  greatly improve the performance of VASP for DFT.     |
|      The default,   NCORE=1            might be grossly inefficient         |
|      on modern multi-core architectures or massively parallel machines.     |
|      Do your own testing !!!!                                               |
|      Unfortunately you need to use the default for GW and RPA calculations. |
|      (for HF NCORE is supported but not extensively tested yet)             |
|                                                                             |
 ----------------------------------------------------------------------------- 

 POTCAR:    PAW_PBE Ni 02Aug2007                  
   VRHFIN =Ni:                                                                  
   LEXCH  = PE                                                                  
   EATOM  =  1077.6739 eV,   79.2068 Ry                                         
                                                                                
   TITEL  = PAW_PBE Ni 02Aug2007                                                
   LULTRA =        F    use ultrasoft PP ?                                      
   IUNSCR =        1    unscreen: 0-lin 1-nonlin 2-no                           
   RPACOR =    2.000    partial core radius                                     
   POMASS =   58.690; ZVAL   =   10.000    mass and valenz                      
   RCORE  =    2.300    outmost cutoff radius                                   
   RWIGS  =    2.430; RWIGS  =    1.286    wigner-seitz radius (au A)           
   ENMAX  =  269.532; ENMIN  =  202.149 eV                                      
   RCLOC  =    1.201    cutoff for local pot                                    
   LCOR   =        T    correct aug charges                                     
   LPAW   =        T    paw PP                                                  
   EAUG   =  544.565                                                            
   DEXC   =    0.000                                                            
   RMAX   =    2.357    core radius for proj-oper                               
   RAUG   =    1.300    factor for augmentation sphere                          
   RDEP   =    2.390    radius for radial grids                                 
   RDEPT  =    1.838    core radius for aug-charge                              
                                                                                
   Atomic configuration                                                         
    9 entries                                                                   
     n  l   j            E        occ.                                          
     1  0  0.50     -8206.4253   2.0000                                         
     2  0  0.50      -976.1748   2.0000                                         
     2  1  1.50      -839.0571   6.0000                                         
     3  0  0.50      -105.9991   2.0000                                         
     3  1  1.50       -66.4603   6.0000                                         
     3  2  2.50        -4.6458   9.0000                                         
     4  0  0.50        -4.4926   1.0000                                         
     4  1  1.50        -4.0817   0.0000                                         
     4  3  2.50        -1.3606   0.0000                                         
   Description                                                                  
     l       E           TYP  RCUT    TYP  RCUT                                 
     2     -4.6457903     23  2.300                                             
     2     -6.0063729     23  2.300                                             
     0     -4.4925590     23  2.300                                             
     0      5.0102601     23  2.300                                             
     1     -2.7211652     23  2.300                                             
     1     16.5183231     23  2.300                                             
  local pseudopotential read in
  partial core-charges read in
  partial kinetic energy density read in
  atomic valenz-charges read in
  non local Contribution for L=           2  read in
    real space projection operators read in
  non local Contribution for L=           2  read in
    real space projection operators read in
  non local Contribution for L=           0  read in
    real space projection operators read in
  non local Contribution for L=           0  read in
    real space projection operators read in
  non local Contribution for L=           1  read in
    real space projection operators read in
  non local Contribution for L=           1  read in
    real space projection operators read in
    PAW grid and wavefunctions read in
 
   number of l-projection  operators is LMAX  =           6
   number of lm-projection operators is LMMAX =          18
 
 POTCAR:    PAW_PBE Pt 04Feb2005                  
   VRHFIN =Pt: s1d9                                                             
   LEXCH  = PE                                                                  
   EATOM  =   729.1176 eV,   53.5886 Ry                                         
                                                                                
   TITEL  = PAW_PBE Pt 04Feb2005                                                
   LULTRA =        F    use ultrasoft PP ?                                      
   IUNSCR =        1    unscreen: 0-lin 1-nonlin 2-no                           
   RPACOR =    2.330    partial core radius                                     
   POMASS =  195.080; ZVAL   =   10.000    mass and valenz                      
   RCORE  =    2.600    outmost cutoff radius                                   
   RWIGS  =    2.750; RWIGS  =    1.455    wigner-seitz radius (au A)           
   ENMAX  =  230.283; ENMIN  =  172.712 eV                                      
   ICORE  =        3    local potential                                         
   LCOR   =        T    correct aug charges                                     
   LPAW   =        T    paw PP                                                  
   EAUG   =  358.966                                                            
   DEXC   =    0.000                                                            
   RMAX   =    2.658    core radius for proj-oper                               
   RAUG   =    1.300    factor for augmentation sphere                          
   RDEP   =    2.761    radius for radial grids                                 
   RDEPT  =    2.203    core radius for aug-charge                              
                                                                                
   Atomic configuration                                                         
   16 entries                                                                   
     n  l   j            E        occ.                                          
     1  0  0.50    -78401.1885   2.0000                                         
     2  0  0.50    -13770.7750   2.0000                                         
     2  1  1.50    -11931.0468   6.0000                                         
     3  0  0.50     -3234.7234   2.0000                                         
     3  1  1.50     -2699.2216   6.0000                                         
     3  2  2.50     -2119.5714  10.0000                                         
     4  0  0.50      -695.1528   2.0000                                         
     4  1  1.50      -519.6034   6.0000                                         
     4  2  2.50      -306.6786  10.0000                                         
     4  3  3.50       -70.1041  14.0000                                         
     5  0  0.50      -101.7747   2.0000                                         
     5  1  1.50       -55.9873   6.0000                                         
     5  2  2.50        -6.1423   9.0000                                         
     6  0  0.50        -5.6573   1.0000                                         
     6  1  1.50        -6.8029   0.0000                                         
     5  3  2.50        -1.3606   0.0000                                         
   Description                                                                  
     l       E           TYP  RCUT    TYP  RCUT                                 
     2     -6.1423404     23  2.500                                             
     2     -7.5029230     23  2.500                                             
     0     -5.6573207     23  2.500                                             
     0      0.7416693     23  2.500                                             
     1     -2.7211652     23  2.600                                             
     1     20.4087390     23  2.600                                             
     3     -1.3605826     23  2.500                                             
  local pseudopotential read in
  partial core-charges read in
  partial kinetic energy density read in
  atomic valenz-charges read in
  non local Contribution for L=           2  read in
    real space projection operators read in
  non local Contribution for L=           2  read in
    real space projection operators read in
  non local Contribution for L=           0  read in
    real space projection operators read in
  non local Contribution for L=           0  read in
    real space projection operators read in
  non local Contribution for L=           1  read in
    real space projection operators read in
  non local Contribution for L=           1  read in
    real space projection operators read in
    PAW grid and wavefunctions read in
 
   number of l-projection  operators is LMAX  =           6
   number of lm-projection operators is LMMAX =          18
 
 POTCAR:    PAW_PBE H 15Jun2001                   
   VRHFIN =H: ultrasoft test                                                    
   LEXCH  = PE                                                                  
   EATOM  =    12.4884 eV,    0.9179 Ry                                         
                                                                                
   TITEL  = PAW_PBE H 15Jun2001                                                 
   LULTRA =        F    use ultrasoft PP ?                                      
   IUNSCR =        0    unscreen: 0-lin 1-nonlin 2-no                           
   RPACOR =    0.000    partial core radius                                     
   POMASS =    1.000; ZVAL   =    1.000    mass and valenz                      
   RCORE  =    1.100    outmost cutoff radius                                   
   RWIGS  =    0.700; RWIGS  =    0.370    wigner-seitz radius (au A)           
   ENMAX  =  250.000; ENMIN  =  200.000 eV                                      
   RCLOC  =    0.701    cutoff for local pot                                    
   LCOR   =        T    correct aug charges                                     
   LPAW   =        T    paw PP                                                  
   EAUG   =  400.000                                                            
   RMAX   =    1.123    core radius for proj-oper                               
   RAUG   =    1.200    factor for augmentation sphere                          
   RDEP   =    1.112    radius for radial grids                                 
   RDEPT  =    0.926    core radius for aug-charge                              
                                                                                
   Atomic configuration                                                         
    2 entries                                                                   
     n  l   j            E        occ.                                          
     1  0  0.50        -6.4927   1.0000                                         
     2  1  0.50        -3.4015   0.0000                                         
   Description                                                                  
     l       E           TYP  RCUT    TYP  RCUT                                 
     0     -6.4927494     23  1.100                                             
     0      6.8029130     23  1.100                                             
     1     -4.0817478     23  1.100                                             
  local pseudopotential read in
  atomic valenz-charges read in
  non local Contribution for L=           0  read in
    real space projection operators read in
  non local Contribution for L=           0  read in
    real space projection operators read in
  non local Contribution for L=           1  read in
    real space projection operators read in
    PAW grid and wavefunctions read in
 
   number of l-projection  operators is LMAX  =           3
   number of lm-projection operators is LMMAX =           5
 
 Optimization of the real space projectors (new method)

 maximal supplied QI-value         = 16.25
 optimisation between [QCUT,QGAM] = [ 11.86, 23.89] = [ 39.41,159.82] Ry 
 Optimized for a Real-space Cutoff    1.33 Angstroem

   l    n(q)    QCUT    max X(q) W(low)/X(q) W(high)/X(q)  e(spline) 
   2      9    11.864    60.317    0.21E-03    0.51E-03    0.25E-06
   2      9    11.864    55.921    0.21E-03    0.51E-03    0.26E-06
   0      9    11.864    51.690    0.22E-03    0.30E-04    0.17E-06
   0      9    11.864    30.015    0.20E-03    0.28E-04    0.15E-06
   1      9    11.864    18.849    0.76E-04    0.33E-03    0.17E-06
   1      9    11.864    14.624    0.60E-04    0.28E-03    0.15E-06
 Optimization of the real space projectors (new method)

 maximal supplied QI-value         = 14.36
 optimisation between [QCUT,QGAM] = [ 11.92, 23.98] = [ 39.79,161.09] Ry 
 Optimized for a Real-space Cutoff    1.49 Angstroem

   l    n(q)    QCUT    max X(q) W(low)/X(q) W(high)/X(q)  e(spline) 
   2     10    11.920    66.195    0.79E-04    0.18E-03    0.24E-06
   2     10    11.920    64.643    0.81E-04    0.19E-03    0.24E-06
   0     11    11.920    95.520    0.28E-04    0.54E-04    0.18E-06
   0     11    11.920    63.403    0.27E-04    0.52E-04    0.17E-06
   1     10    11.920    19.961    0.18E-04    0.11E-03    0.23E-06
   1     10    11.920    13.289    0.25E-04    0.87E-04    0.19E-06
 Optimization of the real space projectors (new method)

 maximal supplied QI-value         = 34.20
 optimisation between [QCUT,QGAM] = [ 11.97, 23.94] = [ 40.13,160.53] Ry 
 Optimized for a Real-space Cutoff    1.18 Angstroem

   l    n(q)    QCUT    max X(q) W(low)/X(q) W(high)/X(q)  e(spline) 
   0      8    11.971    19.460    0.15E-03    0.31E-03    0.25E-06
   0      8    11.971    12.209    0.13E-03    0.29E-03    0.25E-06
   1      8    11.971     4.655    0.22E-03    0.24E-03    0.21E-06
  PAW_PBE Ni 02Aug2007                  :
 energy of atom  1       EATOM=-1077.6739
 kinetic energy error for atom=    0.0027 (will be added to EATOM!!)
  PAW_PBE Pt 04Feb2005                  :
 energy of atom  2       EATOM= -729.1176
 kinetic energy error for atom=    0.0021 (will be added to EATOM!!)
  PAW_PBE H 15Jun2001                   :
 energy of atom  3       EATOM=  -12.4884
 kinetic energy error for atom=    0.0008 (will be added to EATOM!!)
 
 
 POSCAR: Ni   Pt   H                             
  positions in cartesian coordinates
  No initial velocities read in
 exchange correlation table for  LEXCH =        8
   RHO(1)=    0.500       N(1)  =     2000
   RHO(2)=  100.500       N(2)  =     4000
 


--------------------------------------------------------------------------------------------------------


 ion  position               nearest neighbor table
   1  0.786  0.869  0.311-  39 2.43  55 2.43  20 2.43  72 2.63  73 2.63  65 2.63  56 2.64   2 2.64
                            29 2.64   3 2.64  57 2.64  40 2.64
   2  0.036  0.869  0.311-  52 2.42  49 2.42  39 2.43  77 2.62  67 2.63  65 2.63  33 2.64  56 2.64
                             3 2.64   1 2.64  23 2.64  41 2.65
   3  0.036  0.619  0.311-  60 2.42  39 2.43  12 2.43  77 2.61  73 2.63  66 2.63  15 2.64   2 2.64
                             1 2.64  40 2.64   9 2.65  41 2.66
   4  0.787  0.867  0.051-  21 2.44  62 2.44  19 2.45  42 2.64   5 2.64   6 2.64  59 2.64  58 2.65
                            30 2.66
   5  0.037  0.868  0.051-  54 2.44  35 2.44  62 2.45  24 2.64  43 2.64   4 2.64   6 2.64  58 2.65
                            34 2.65
   6  0.037  0.617  0.051-  32 2.44  54 2.44  21 2.45  18 2.63  43 2.63  10 2.63  42 2.64   4 2.64
                             5 2.64
   7  0.620  0.202  0.138-  28 2.44  30 2.44  58 2.45  55 2.45  64 2.46  63 2.46  19 2.64  62 2.64
                            37 2.64  45 2.64  22 2.64  11 2.64
   8  0.370  0.952  0.138-  16 2.44  24 2.44  59 2.45  53 2.45  50 2.46  26 2.46  38 2.64  37 2.64
                            35 2.64  25 2.64  19 2.64  44 2.64
   9  0.036  0.369  0.311-  61 2.42  46 2.43  12 2.43  68 2.62  71 2.62  66 2.63  40 2.63  33 2.64
                             3 2.65  13 2.65  15 2.65  47 2.68
  10  0.037  0.368  0.051-  38 2.44  32 2.44  31 2.45  18 2.63  16 2.63   6 2.63  34 2.63  42 2.64
                            48 2.64
  11  0.870  0.202  0.138-  48 2.44  58 2.44  34 2.45  49 2.45  61 2.46  63 2.46  35 2.64  31 2.64
                            22 2.64  38 2.64  62 2.64   7 2.64
  12  0.953  0.535  0.225-  40 2.42   9 2.43   3 2.43  32 2.45  31 2.45  21 2.46  46 2.64  61 2.64
                            51 2.64  60 2.64  39 2.64  20 2.64
  13  0.286  0.118  0.311-  26 2.42  46 2.42  53 2.43  69 2.62  71 2.62  74 2.63  57 2.63  33 2.64
                            29 2.64   9 2.65  15 2.65  23 2.68
  14  0.535  0.618  0.312-  36 2.43  50 2.45  51 2.45  23 2.59  47 2.60  41 2.61  27 2.61  80 2.61
                            40 2.65  57 2.65  76 2.71  75 2.73
  15  0.286  0.369  0.311-  60 2.42  46 2.43  64 2.43  79 2.61  74 2.63  66 2.63  29 2.64   3 2.64
                             9 2.65  13 2.65  27 2.65  41 2.65
  16  0.287  0.119  0.051-   8 2.44  37 2.44  38 2.45  30 2.63  10 2.63  34 2.63  18 2.64  59 2.64
                            24 2.64
  17  0.536  0.618  0.051-  22 2.44  25 2.44  44 2.45  28 2.64  43 2.64  24 2.64  48 2.64  59 2.65
                            42 2.65
  18  0.286  0.368  0.051-  37 2.44  45 2.44  32 2.45   6 2.63  43 2.63  10 2.63  16 2.64  30 2.64
                            28 2.64
  19  0.620  0.952  0.137-  59 2.44  30 2.44   4 2.45  20 2.46  55 2.46  53 2.46   7 2.64  62 2.64
                             8 2.64  21 2.64  25 2.64  37 2.64
  20  0.702  0.785  0.225-  57 2.43  40 2.43   1 2.43  21 2.46  19 2.46  25 2.46  53 2.64  50 2.64
                            51 2.64  55 2.64  39 2.64  12 2.64
  21  0.870  0.701  0.138-   4 2.44  42 2.44   6 2.45  12 2.46  39 2.46  20 2.46  31 2.64  32 2.64
                            54 2.64  25 2.64  19 2.64  62 2.64
  22  0.620  0.452  0.138-  17 2.44  28 2.44  48 2.45  63 2.45  51 2.46  36 2.46  25 2.64  11 2.64
                            31 2.64   7 2.64  45 2.64  44 2.64
  23  0.289  0.863  0.313-  52 2.44  50 2.44  26 2.48  41 2.58  14 2.59  67 2.61  69 2.62  57 2.63
                             2 2.64  75 2.66  13 2.68  33 2.69
  24  0.287  0.868  0.051-  44 2.44   8 2.44  35 2.45   5 2.64  34 2.64  17 2.64  59 2.64  16 2.64
                            43 2.65
  25  0.619  0.702  0.137-  59 2.44  17 2.44  42 2.45  20 2.46  51 2.46  50 2.46  22 2.64  31 2.64
                             8 2.64  44 2.64  21 2.64  19 2.64
  26  0.203  0.034  0.226-  13 2.42  33 2.42  35 2.46   8 2.46  38 2.47  23 2.48  52 2.62  50 2.63
                            49 2.64  53 2.64  46 2.65  61 2.66
  27  0.537  0.370  0.312-  36 2.43  63 2.43  64 2.45  47 2.58  14 2.61  78 2.62  79 2.62  41 2.63
                            56 2.64  15 2.65  29 2.65  76 2.70
  28  0.536  0.368  0.051-   7 2.44  22 2.44  45 2.45  43 2.64  30 2.64  17 2.64  18 2.64  58 2.64
                            48 2.65
  29  0.536  0.119  0.311-  64 2.42  55 2.43  53 2.43  78 2.62  72 2.63  74 2.63  15 2.64  56 2.64
                             1 2.64  57 2.64  13 2.64  27 2.65
  30  0.536  0.119  0.051-  19 2.44   7 2.44  37 2.44  16 2.63  18 2.64  28 2.64  59 2.64  58 2.65
                             4 2.66
  31  0.870  0.452  0.138-  42 2.44  48 2.44  10 2.45  12 2.45  51 2.46  61 2.46  21 2.64  32 2.64
                            11 2.64  38 2.64  25 2.64  22 2.64
  32  0.119  0.452  0.138-   6 2.44  10 2.44  18 2.45  12 2.45  60 2.45  46 2.46  21 2.64  38 2.64
                            31 2.64  37 2.64  54 2.64  45 2.64
  33  0.036  0.119  0.311-  61 2.42  26 2.42  49 2.42  67 2.62  71 2.62  70 2.62   2 2.64  56 2.64
                            13 2.64   9 2.64  47 2.68  23 2.69
  34  0.037  0.118  0.051-  35 2.44  38 2.44  11 2.45  16 2.63  10 2.63  24 2.64  48 2.64  58 2.64
                             5 2.65
  35  0.119  0.952  0.138-  34 2.44   5 2.44  24 2.45  49 2.45  26 2.46  52 2.46  11 2.64  44 2.64
                            38 2.64  62 2.64   8 2.64  54 2.64
  36  0.453  0.535  0.225-  27 2.43  41 2.43  14 2.43  44 2.46  45 2.46  22 2.46  51 2.64  50 2.64
                            63 2.64  52 2.64  60 2.64  64 2.64
  37  0.369  0.202  0.138-  18 2.44  16 2.44  30 2.44  53 2.45  64 2.45  46 2.46  45 2.64  38 2.64
                            32 2.64   7 2.64   8 2.64  19 2.64
  38  0.120  0.202  0.138-  10 2.44  34 2.44  16 2.45  46 2.45  26 2.47  61 2.47  32 2.64  37 2.64
                             8 2.64  11 2.64  31 2.64  35 2.64
  39  0.953  0.785  0.225-   3 2.43   2 2.43   1 2.43  54 2.45  62 2.45  21 2.46  49 2.64  60 2.64
                            55 2.64  20 2.64  12 2.64  52 2.65
  40  0.786  0.618  0.311-  51 2.42  12 2.42  20 2.43  80 2.60  68 2.63  47 2.63  73 2.63   9 2.63
                             3 2.64   1 2.64  57 2.65  14 2.65
  41  0.287  0.619  0.312-  36 2.43  52 2.43  60 2.45  23 2.58  14 2.61  77 2.62  79 2.62  27 2.63
                             2 2.65  15 2.65   3 2.66  75 2.72
  42  0.787  0.618  0.051-  31 2.44  21 2.44  25 2.45  48 2.63  10 2.64   4 2.64   6 2.64  59 2.65
                            17 2.65
  43  0.287  0.617  0.051-  45 2.44  44 2.44  54 2.45   6 2.63  18 2.63  28 2.64   5 2.64  17 2.64
                            24 2.65
  44  0.369  0.702  0.138-  24 2.44  43 2.44  17 2.45  50 2.46  52 2.46  36 2.46  54 2.64  35 2.64
                            45 2.64  25 2.64   8 2.64  22 2.64
  45  0.370  0.452  0.138-  43 2.44  18 2.44  28 2.45  64 2.45  60 2.45  36 2.46  37 2.64  44 2.64
                             7 2.64  32 2.64  54 2.64  22 2.64
  46  0.202  0.285  0.225-  13 2.42   9 2.43  15 2.43  38 2.45  32 2.46  37 2.46  53 2.64  12 2.64
                            64 2.65  61 2.65  60 2.65  26 2.65
  47  0.780  0.372  0.313-  63 2.44  51 2.44  61 2.48  27 2.58  14 2.60  70 2.62  68 2.62  40 2.63
                            56 2.64  76 2.65   9 2.68  33 2.68
  48  0.787  0.368  0.051-  11 2.44  31 2.44  22 2.45  42 2.63  10 2.64  34 2.64  58 2.64  17 2.64
                            28 2.65
  49  0.953  0.035  0.225-  33 2.42   2 2.42  56 2.43  11 2.45  35 2.45  62 2.46  61 2.64  26 2.64
                            39 2.64  55 2.64  63 2.64  52 2.64
  50  0.452  0.785  0.225-  57 2.42  23 2.44  14 2.45  44 2.46   8 2.46  25 2.46  26 2.63  52 2.63
                            36 2.64  20 2.64  53 2.64  51 2.64
  51  0.703  0.535  0.225-  40 2.42  47 2.44  14 2.45  31 2.46  22 2.46  25 2.46  61 2.63  63 2.63
                            36 2.64  20 2.64  12 2.64  50 2.64
  52  0.203  0.785  0.225-   2 2.42  41 2.43  23 2.44  44 2.46  35 2.46  54 2.46  26 2.62  50 2.63
                            36 2.64  60 2.64  49 2.64  39 2.65
  53  0.452  0.035  0.225-  57 2.42  29 2.43  13 2.43  37 2.45   8 2.45  19 2.46  46 2.64  26 2.64
                            55 2.64  20 2.64  64 2.64  50 2.64
  54  0.119  0.702  0.138-   5 2.44   6 2.44  43 2.45  60 2.45  39 2.45  52 2.46  44 2.64  21 2.64
                            32 2.64  62 2.64  45 2.64  35 2.64
  55  0.702  0.036  0.225-  29 2.43  56 2.43   1 2.43   7 2.45  62 2.46  19 2.46  64 2.64  53 2.64
                            39 2.64  49 2.64  20 2.64  63 2.65
  56  0.786  0.119  0.311-  63 2.42  49 2.43  55 2.43  78 2.62  70 2.63  65 2.63  33 2.64   2 2.64
                             1 2.64  29 2.64  47 2.64  27 2.64
  57  0.535  0.869  0.311-  50 2.42  53 2.42  20 2.43  80 2.60  13 2.63  69 2.63  72 2.63  23 2.63
                            29 2.64   1 2.64  40 2.65  14 2.65
  58  0.787  0.118  0.051-  62 2.44  11 2.44   7 2.45  48 2.64  28 2.64  34 2.64   5 2.65   4 2.65
                            30 2.65
  59  0.537  0.868  0.051-  25 2.44  19 2.44   8 2.45  24 2.64  30 2.64  16 2.64   4 2.64  17 2.65
                            42 2.65
  60  0.203  0.535  0.225-  15 2.42   3 2.42  54 2.45  32 2.45  45 2.45  41 2.45  64 2.64  36 2.64
                            52 2.64  39 2.64  12 2.64  46 2.65
  61  0.951  0.286  0.226-  33 2.42   9 2.42  31 2.46  11 2.46  38 2.47  47 2.48  63 2.63  51 2.63
                            49 2.64  12 2.64  46 2.65  26 2.66
  62  0.869  0.952  0.138-  58 2.44   4 2.44   5 2.45  39 2.45  55 2.46  49 2.46   7 2.64  19 2.64
                            35 2.64  54 2.64  11 2.64  21 2.64
  63  0.703  0.286  0.225-  56 2.42  27 2.43  47 2.44  22 2.45  11 2.46   7 2.46  61 2.63  51 2.63
                            36 2.64  64 2.64  49 2.64  55 2.65
  64  0.453  0.286  0.225-  29 2.42  15 2.43  45 2.45  27 2.45  37 2.45   7 2.46  60 2.64  55 2.64
                            36 2.64  63 2.64  53 2.64  46 2.65
  65  0.869  0.952  0.408-   1 2.63  77 2.63  78 2.63   2 2.63  56 2.63  72 2.63  73 2.63  70 2.64
                            67 2.64
  66  0.119  0.452  0.408-  79 2.62  68 2.62   9 2.63  15 2.63   3 2.63  71 2.64  74 2.64  73 2.64
                            77 2.64
  67  0.118  0.953  0.408-  23 2.61  70 2.62  33 2.62   2 2.63  75 2.63  71 2.64  65 2.64  77 2.64
                            69 2.65
  68  0.871  0.452  0.408-   9 2.62  47 2.62  66 2.62  71 2.63  40 2.63  73 2.64  76 2.64  70 2.65
                            80 2.65
  69  0.369  0.954  0.408-  13 2.62  23 2.62  74 2.62  71 2.63  57 2.63  72 2.64  75 2.65  67 2.65
                            80 2.65
  70  0.870  0.201  0.408-  47 2.62  67 2.62  76 2.62  33 2.62  56 2.63  71 2.64  65 2.64  78 2.64
                            68 2.65
  71  0.119  0.202  0.408-   9 2.62  13 2.62  33 2.62  69 2.63  68 2.63  70 2.64  67 2.64  74 2.64
                            66 2.64
  72  0.619  0.953  0.408-  80 2.62  78 2.62   1 2.63  29 2.63  65 2.63  57 2.63  74 2.64  69 2.64
                            73 2.65
  73  0.870  0.702  0.408-  80 2.62  77 2.62   1 2.63   3 2.63  65 2.63  40 2.63  66 2.64  68 2.64
                            72 2.65
  74  0.369  0.202  0.408-  79 2.62  69 2.62  13 2.63  15 2.63  29 2.63  71 2.64  72 2.64  66 2.64
                            78 2.64
  75  0.367  0.705  0.414-  81 2.00  82 2.01  67 2.63  69 2.65  77 2.65  23 2.66  80 2.68  79 2.69
                            76 2.69  41 2.72  14 2.73
  76  0.622  0.450  0.414-  82 2.03  81 2.06  70 2.62  68 2.64  78 2.65  47 2.65  80 2.68  79 2.69
                            75 2.69  27 2.70  14 2.71
  77  0.118  0.703  0.408-   3 2.61   2 2.62  41 2.62  73 2.62  65 2.63  66 2.64  67 2.64  75 2.65
                            79 2.65
  78  0.620  0.201  0.408-  29 2.62  56 2.62  27 2.62  72 2.62  65 2.63  74 2.64  70 2.64  76 2.65
                            79 2.65
  79  0.368  0.450  0.408-  15 2.61  74 2.62  66 2.62  41 2.62  27 2.62  78 2.65  77 2.65  75 2.69
                            76 2.69
  80  0.621  0.704  0.407-  40 2.60  57 2.60  14 2.61  73 2.62  72 2.62  68 2.65  69 2.65  75 2.68
                            76 2.68
  81  0.466  0.555  0.479-  75 2.00  76 2.06
  82  0.518  0.602  0.479-  75 2.01  76 2.03
 
  LATTYP: Found a hexagonal cell.
 ALAT       =    10.5600004196
 C/A-ratio  =     2.0833332505
  
  Lattice vectors:
  
 A1 = (   5.2800002098,  -9.1452286274,   0.0000000000)
 A2 = ( -10.5600004196,   0.0000000000,   0.0000000000)
 A3 = (   0.0000000000,   0.0000000000, -22.0000000000)


Analysis of symmetry for initial positions (statically):
=====================================================================
 Subroutine PRICEL returns:
 Original cell was already a primitive cell.
 

 Routine SETGRP: Setting up the symmetry group for a 
 hexagonal supercell.


 Subroutine GETGRP returns: Found  1 space group operations
 (whereof  1 operations were pure point group operations)
 out of a pool of 24 trial point group operations.


The static configuration has the point symmetry C_1 .


Analysis of symmetry for dynamics (positions and initial velocities):
=====================================================================
 Subroutine PRICEL returns:
 Original cell was already a primitive cell.
 

 Routine SETGRP: Setting up the symmetry group for a 
 hexagonal supercell.


 Subroutine GETGRP returns: Found  1 space group operations
 (whereof  1 operations were pure point group operations)
 out of a pool of 24 trial point group operations.


The dynamic configuration has the point symmetry C_1 .


Analysis of constrained symmetry for selective dynamics:
=====================================================================
 Subroutine PRICEL returns:
 Original cell was already a primitive cell.
 

 Routine SETGRP: Setting up the symmetry group for a 
 hexagonal supercell.


 Subroutine GETGRP returns: Found  1 space group operations
 (whereof  1 operations were pure point group operations)
 out of a pool of 24 trial point group operations.


The constrained configuration has the point symmetry C_1 .


Analysis of structural, dynamic, and magnetic symmetry:
=====================================================================
 Subroutine PRICEL returns:
 Original cell was already a primitive cell.
 

 Routine SETGRP: Setting up the symmetry group for a 
 hexagonal supercell.


 Subroutine GETGRP returns: Found  1 space group operations
 (whereof  1 operations were pure point group operations)
 out of a pool of 24 trial point group operations.


The magnetic configuration has the point symmetry C_1 .


 Subroutine INISYM returns: Found  1 space group operations
 (whereof  1 operations are pure point group operations),
 and found     1 'primitive' translations

 
 
 KPOINTS: mesh auto                               

Automatic generation of k-mesh.
Space group operators:
 irot       det(A)        alpha          n_x          n_y          n_z        tau_x        tau_y        tau_z
    1     1.000000     0.000001     1.000000     0.000000     0.000000     0.000000     0.000000     0.000000
 
 Subroutine IBZKPT returns following result:
 ===========================================
 
 Found      4 irreducible k-points:
 
 Following reciprocal coordinates:
            Coordinates               Weight
  0.000000  0.000000  0.000000      1.000000
  0.500000  0.000000  0.000000      1.000000
  0.000000  0.500000  0.000000      1.000000
  0.500000  0.500000  0.000000      1.000000
 
 Following cartesian coordinates:
            Coordinates               Weight
  0.000000  0.000000  0.000000      1.000000
  0.047348 -0.027337  0.000000      1.000000
  0.000000  0.054673  0.000000      1.000000
  0.047348  0.027337  0.000000      1.000000
 
 TETIRR: Found     12 inequivalent tetrahedra from       24
 
 Subroutine IBZKPT_HF returns following result:
 ==============================================
 
 Found      4 k-points in 1st BZ
 the following      4 k-points will be used (e.g. in the exchange kernel)
 Following reciprocal coordinates:   # in IRBZ
  0.000000  0.000000  0.000000    0.25000000   1 t-inv F
  0.500000  0.000000  0.000000    0.25000000   2 t-inv F
  0.000000  0.500000  0.000000    0.25000000   3 t-inv F
  0.500000  0.500000  0.000000    0.25000000   4 t-inv F


--------------------------------------------------------------------------------------------------------




 Dimension of arrays:
   k-points           NKPTS =      4   k-points in BZ     NKDIM =      4   number of bands    NBANDS=    560
   number of dos      NEDOS =    301   number of ions     NIONS =     82
   non local maximal  LDIM  =      6   non local SUM 2l+1 LMDIM =     18
   total plane-waves  NPLWV = ******
   max r-space proj   IRMAX =   7802   max aug-charges    IRDMAX=  33988
   dimension x,y,z NGX =    84 NGY =   84 NGZ =  168
   dimension x,y,z NGXF=   168 NGYF=  168 NGZF=  336
   support grid    NGXF=   168 NGYF=  168 NGZF=  336
   ions per type =              64  16   2
   NGX,Y,Z   is equivalent  to a cutoff of  13.22, 13.22, 12.70 a.u.
   NGXF,Y,Z  is equivalent  to a cutoff of  26.45, 26.45, 25.39 a.u.

 SYSTEM =  Pt111                                   
 POSCAR =  Ni   Pt   H                             

 Startparameter for this run:
   NWRITE =      2    write-flag & timer
   PREC   = accura    normal or accurate (medium, high low for compatibility)
   ISTART =      0    job   : 0-new  1-cont  2-samecut
   ICHARG =      2    charge: 1-file 2-atom 10-const
   ISPIN  =      2    spin polarized calculation?
   LNONCOLLINEAR =      F non collinear calculations
   LSORBIT =      F    spin-orbit coupling
   INIWAV =      1    electr: 0-lowe 1-rand  2-diag
   LASPH  =      F    aspherical Exc in radial PAW
   METAGGA=      F    non-selfconsistent MetaGGA calc.

 Electronic Relaxation 1
   ENCUT  =  550.0 eV  40.42 Ry    6.36 a.u.  20.19 20.19 42.07*2*pi/ulx,y,z
   ENINI  =  550.0     initial cutoff
   ENAUG  =  544.6 eV  augmentation charge cutoff
   NELM   =    200;   NELMIN=  2; NELMDL= -5     # of ELM steps 
   EDIFF  = 0.1E-04   stopping-criterion for ELM
   LREAL  =      T    real-space projection
   NLSPLINE    = F    spline interpolate recip. space projectors
   LCOMPAT=      F    compatible to vasp.4.4
   GGA_COMPAT  = T    GGA compatible to vasp.4.4-vasp.4.6
   LMAXPAW     = -100 max onsite density
   LMAXMIX     =    2 max onsite mixed and CHGCAR
   VOSKOWN=      0    Vosko Wilk Nusair interpolation
   ROPT   =   -0.00025  -0.00025  -0.00025
 Ionic relaxation
   EDIFFG = -.5E-01   stopping-criterion for IOM
   NSW    =   1021    number of steps for IOM
   NBLOCK =      1;   KBLOCK =   1021    inner block; outer block 
   IBRION =      5    ionic relax: 0-MD 1-quasi-New 2-CG
   NFREE  =      2    steps in history (QN), initial steepest desc. (CG)
   ISIF   =      2    stress and relaxation
   IWAVPR =     11    prediction:  0-non 1-charg 2-wave 3-comb
   ISYM   =      2    0-nonsym 1-usesym 2-fastsym
   LCORR  =      T    Harris-Foulkes like correction to forces

   POTIM  = 0.0500    time-step for ionic-motion
   TEIN   =    0.0    initial temperature
   TEBEG  =    0.0;   TEEND  =   0.0 temperature during run
   SMASS  =  -3.00    Nose mass-parameter (am)
   estimated Nose-frequenzy (Omega)   =  0.10E-29 period in steps =****** mass=  -0.255E-26a.u.
   SCALEE = 1.0000    scale energy and forces
   NPACO  =    256;   APACO  = 16.0  distance and # of slots for P.C.
   PSTRESS=    0.0 pullay stress

  Mass of Ions in am
   POMASS =  58.69195.08  1.00
  Ionic Valenz
   ZVAL   =  10.00 10.00  1.00
  Atomic Wigner-Seitz radii
   RWIGS  =  -1.00 -1.00 -1.00
  virtual crystal weights 
   VCA    =   1.00  1.00  1.00
   NELECT =     802.0000    total number of electrons
   NUPDOWN=      -1.0000    fix difference up-down

 DOS related values:
   EMIN   =  10.00;   EMAX   =-10.00  energy-range for DOS
   EFERMI =   0.00
   ISMEAR =    -5;   SIGMA  =   0.10  broadening in eV -4-tet -1-fermi 0-gaus

 Electronic relaxation 2 (details)
   IALGO  =     68    algorithm
   LDIAG  =      T    sub-space diagonalisation (order eigenvalues)
   LSUBROT=      F    optimize rotation matrix (better conditioning)
   TURBO    =      0    0=normal 1=particle mesh
   IRESTART =      0    0=no restart 2=restart with 2 vectors
   NREBOOT  =      0    no. of reboots
   NMIN     =      0    reboot dimension
   EREF     =   0.00    reference energy to select bands
   IMIX   =      4    mixing-type and parameters
     AMIX     =   0.40;   BMIX     =  1.00
     AMIX_MAG =   1.60;   BMIX_MAG =  1.00
     AMIN     =   0.10
     WC   =   100.;   INIMIX=   1;  MIXPRE=   1;  MAXMIX= -45

 Intra band minimization:
   WEIMIN = 0.0010     energy-eigenvalue tresh-hold
   EBREAK =  0.45E-08  absolut break condition
   DEPER  =   0.30     relativ break condition  

   TIME   =   0.40     timestep for ELM

  volume/ion in A,a.u.               =      25.91       174.85
  Fermi-wavevector in a.u.,A,eV,Ry     =   1.183148  2.235826 19.045982  1.399840
  Thomas-Fermi vector in A             =   2.319389
 
 Write flags
   LWAVE        =      F    write WAVECAR
   LDOWNSAMPLE  =      F    k-point downsampling of WAVECAR
   LCHARG       =      F    write CHGCAR
   LVTOT        =      F    write LOCPOT, total local potential
   LVHAR        =      F    write LOCPOT, Hartree potential only
   LELF         =      F    write electronic localiz. function (ELF)
   LORBIT       =      0    0 simple, 1 ext, 2 COOP (PROOUT), +10 PAW based schemes


 Dipole corrections
   LMONO  =      F    monopole corrections only (constant potential shift)
   LDIPOL =      F    correct potential (dipole corrections)
   IDIPOL =      0    1-x, 2-y, 3-z, 4-all directions 
   EPSILON=  1.0000000 bulk dielectric constant

 Exchange correlation treatment:
   GGA     =    --    GGA type
   LEXCH   =     8    internal setting for exchange type
   VOSKOWN=      0    Vosko Wilk Nusair interpolation
   LHFCALC =     F    Hartree Fock is set to
   LHFONE  =     F    Hartree Fock one center treatment
   AEXX    =    0.0000 exact exchange contribution

 Linear response parameters
   LEPSILON=     F    determine dielectric tensor
   LRPA    =     F    only Hartree local field effects (RPA)
   LNABLA  =     F    use nabla operator in PAW spheres
   LVEL    =     F    velocity operator in full k-point grid
   LINTERFAST=   F  fast interpolation
   KINTER  =     0    interpolate to denser k-point grid
   CSHIFT  =0.1000    complex shift for real part using Kramers Kronig
   OMEGAMAX=  -1.0    maximum frequency
   DEG_THRESHOLD= 0.2000000E-02 threshold for treating states as degnerate
   RTIME   =   -0.100 relaxation time in fs
  (WPLASMAI=    0.000 imaginary part of plasma frequency in eV, 0.658/RTIME)
   DFIELD  = 0.0000000 0.0000000 0.0000000 field for delta impulse in time
 
 Orbital magnetization related:
   ORBITALMAG=     F  switch on orbital magnetization
   LCHIMAG   =     F  perturbation theory with respect to B field
   DQ        =  0.001000  dq finite difference perturbation B field
   LLRAUG    =     F  two centre corrections for induced B field



--------------------------------------------------------------------------------------------------------


 finite differences
   using selective dynamics as specified on POSCAR
   WARNING: If single coordinates had been selected the selection of coordinates
            is made according to the corresponding   d i r e c t   coordinates!
            Don't support selection of single cartesian coordinates -- sorry ...
  !
 charge density and potential will be updated during run
 spin polarized calculation
 RMM-DIIS sequential band-by-band and
  variant of blocked Davidson during initial phase
 perform sub-space diagonalisation
    before iterative eigenvector-optimisation
 modified Broyden-mixing scheme, WC =      100.0
 initial mixing is a Kerker type mixing with AMIX =  0.4000 and BMIX =      1.0000
 Hartree-type preconditioning will be used
 using additional bands          159
 real space projection scheme for non local part
 use partial core corrections
 calculate Harris-corrections to forces 
   (improved forces if not selfconsistent)
 use gradient corrections 
 use of overlap-Matrix (Vanderbilt PP)
 Fermi weights with tetrahedron method with Bloechl corrections


--------------------------------------------------------------------------------------------------------


  energy-cutoff  :      550.00
  volume of cell :     2124.62
      direct lattice vectors                 reciprocal lattice vectors
    10.560000420  0.000000000  0.000000000     0.094696966 -0.054673319  0.000000000
     5.280000210  9.145228627  0.000000000     0.000000000  0.109346638  0.000000000
     0.000000000  0.000000000 22.000000000     0.000000000  0.000000000  0.045454545

  length of vectors
    10.560000420 10.560000420 22.000000000     0.109346638  0.109346638  0.045454545


 
 k-points in units of 2pi/SCALE and weight: mesh auto                               
   0.00000000  0.00000000  0.00000000       0.250
   0.04734848 -0.02733666  0.00000000       0.250
   0.00000000  0.05467332  0.00000000       0.250
   0.04734848  0.02733666  0.00000000       0.250
 
 k-points in reciprocal lattice and weights: mesh auto                               
   0.00000000  0.00000000  0.00000000       0.250
   0.50000000  0.00000000  0.00000000       0.250
   0.00000000  0.50000000  0.00000000       0.250
   0.50000000  0.50000000  0.00000000       0.250
 
 position of ions in fractional coordinates (direct lattice) 
   0.78582625  0.86883228  0.31088384
   0.03588750  0.86896037  0.31084204
   0.03627964  0.61871354  0.31076764
   0.78741642  0.86719742  0.05079528
   0.03718121  0.86761865  0.05089071
   0.03746848  0.61719563  0.05096254
   0.61955406  0.20159273  0.13754729
   0.36950752  0.95182425  0.13751778
   0.03550119  0.36857899  0.31100212
   0.03704415  0.36790874  0.05101225
   0.86968327  0.20177888  0.13759574
   0.95287213  0.53495365  0.22514258
   0.28597636  0.11788876  0.31099776
   0.53526351  0.61804137  0.31204938
   0.28603396  0.36886633  0.31081879
   0.28654380  0.11855176  0.05090361
   0.53631410  0.61782829  0.05077704
   0.28617043  0.36837481  0.05100020
   0.61962349  0.95173358  0.13735891
   0.70244354  0.78527466  0.22498145
   0.86964043  0.70147724  0.13761457
   0.61962996  0.45161655  0.13752038
   0.28918808  0.86257225  0.31297240
   0.28659379  0.86807346  0.05083465
   0.61943357  0.70165557  0.13733944
   0.20327554  0.03366802  0.22552575
   0.53654803  0.37012991  0.31170210
   0.53636708  0.36809334  0.05087323
   0.53574906  0.11915763  0.31074518
   0.53577406  0.11869988  0.05080760
   0.86958892  0.45176640  0.13773701
   0.11946257  0.45169681  0.13792997
   0.03586526  0.11860917  0.31089105
   0.03722948  0.11830690  0.05090843
   0.11942365  0.95191852  0.13762189
   0.45286893  0.53544036  0.22537000
   0.36939774  0.20190437  0.13777412
   0.11962251  0.20181419  0.13782209
   0.95266456  0.78536690  0.22502069
   0.78612381  0.61822448  0.31077509
   0.28746092  0.61934798  0.31180505
   0.78732655  0.61751434  0.05082635
   0.28659969  0.61749987  0.05092547
   0.36925454  0.70178896  0.13754760
   0.36954841  0.45163383  0.13774745
   0.20248462  0.28483366  0.22536341
   0.78047603  0.37165243  0.31276898
   0.78719406  0.36815325  0.05087725
   0.95269161  0.03545945  0.22505492
   0.45225632  0.78529377  0.22515040
   0.70262535  0.53500207  0.22516159
   0.20327620  0.78522981  0.22535522
   0.45237630  0.03548172  0.22499175
   0.11946978  0.70168866  0.13771962
   0.70248714  0.03550919  0.22496284
   0.78602861  0.11878370  0.31082349
   0.53538313  0.86898366  0.31076548
   0.78683365  0.11830804  0.05083868
   0.53651553  0.86825611  0.05071684
   0.20292784  0.53534499  0.22507536
   0.95134412  0.28572776  0.22551719
   0.86948068  0.95178013  0.13750341
   0.70263345  0.28593372  0.22526851
   0.45269617  0.28551733  0.22500934
   0.86908983  0.95194696  0.40827424
   0.11910138  0.45175983  0.40817364
   0.11832730  0.95280444  0.40822461
   0.87108919  0.45165903  0.40836616
   0.36885941  0.95390762  0.40837718
   0.87006097  0.20110258  0.40824409
   0.11925425  0.20197164  0.40795463
   0.61925973  0.95274375  0.40815089
   0.86986960  0.70211666  0.40817299
   0.36891302  0.20198158  0.40818706
   0.36733488  0.70451167  0.41442890
   0.62220295  0.44968659  0.41350514
   0.11774977  0.70272969  0.40767931
   0.61984081  0.20066694  0.40769090
   0.36769368  0.45038349  0.40791398
   0.62124111  0.70394812  0.40691298
   0.46563658  0.55452818  0.47938161
   0.51826563  0.60152692  0.47929062
 
 position of ions in cartesian coordinates  (Angst):
  12.88576014  7.94566985  6.83944453
   4.96708296  7.94684125  6.83852490
   3.64992064  5.65827676  6.83688806
  12.89392030  7.93071864  1.11749627
   4.97366020  7.93457089  1.11959566
   3.65446024  5.64439510  1.12117595
   7.60690073  1.84361156  3.02604042
   8.92763184  8.70465037  3.02539115
   2.32098971  3.37073914  6.84204663
   2.33374452  3.36460958  1.12226958
  10.24924827  1.84531402  3.02710637
  12.88688550  4.89227340  4.95313680
   3.64236313  1.07811964  6.84195073
   8.91564145  5.65212966  6.86508631
   4.96813301  3.37336689  6.83801346
   3.65185596  1.08418299  1.11987945
   8.92561060  5.65018094  1.11709482
   4.96697898  3.36887187  1.12200441
  11.56837780  8.70382115  3.02189609
  11.56405446  7.18151634  4.94959187
  12.88720326  6.41516977  3.02752049
   8.92782818  4.13013662  3.02544834
   7.60820790  7.88842041  6.88539270
   7.60985855  7.93873022  1.11836232
  10.24596031  6.41680062  3.02146762
   2.32435694  0.30790175  4.96156649
   7.62023337  3.38492263  6.85744614
   7.60756953  3.36629775  1.11921113
   6.28666262  1.08972375  6.83639406
   6.28450963  1.08553751  1.11776729
  11.56818608  4.13150705  3.03021432
   3.64648406  4.13087058  3.03445934
   1.00499359  1.08470796  6.83960313
   1.01780373  1.08194362  1.11998552
   6.28724379  8.70551252  3.02768158
   7.60942138  4.89672455  4.95814008
   4.96689545  1.84646162  3.03103057
   2.32879270  1.84563689  3.03208601
  14.20687550  7.18235982  4.95045518
  11.56569317  5.65380417  6.83705206
   6.30574493  5.66407887  6.85971100
  11.57464457  5.64730984  1.11817973
   6.28689233  5.64717752  1.12036035
   7.60477390  6.41802047  3.02604717
   6.28705813  4.13029466  3.03044397
   3.64215943  2.60486893  4.95799496
  10.20415217  3.39884647  6.88091755
  10.25661881  3.36684564  1.11929947
  10.24764966  0.32428475  4.95120830
   8.92217816  7.18169103  4.95330874
  10.24453500  4.89271622  4.95355493
   6.29261029  7.18110618  4.95781491
   4.96443739  0.32448848  4.94981858
   4.96651723  6.41710321  3.02983166
   7.60575306  0.32473964  4.94918252
   8.92764037  1.08630411  6.83811674
  10.24188002  7.94705424  6.83684066
   8.93363021  1.08195409  1.11845107
  10.24999669  7.94040067  1.11577051
   4.96953977  4.89585231  4.95165799
  11.55483693  2.61304570  4.96137817
  14.20711566  8.70424687  3.02507502
   8.92953963  2.61492923  4.95590722
   6.28800325  2.61112124  4.95020559
  14.20386916  8.70577262  8.98203327
   3.64300267  4.13144696  8.97981998
   6.28034403  8.71361446  8.98094133
  11.58346197  4.13052510  8.98405554
   8.93178800  8.72370331  8.98429793
  10.24966592  1.83912909  8.98136998
   2.32573521  1.84707679  8.97500178
  11.56987018  8.71305940  8.97931950
  12.89299943  6.42101736  8.97980567
   4.96218442  1.84716776  8.98011526
   7.59887821  6.44292030  9.11743570
   8.94480868  4.11248664  9.09711305
   4.95385056  6.42662369  8.96894493
   7.60504073  1.83514506  8.96919990
   6.26087028  4.11885996  8.97410762
  10.27715261  6.43776647  8.95208555
   7.84503132  5.07128695 10.54639548
   8.64894752  5.50110119 10.54439363
 


--------------------------------------------------------------------------------------------------------


 k-point  1 :   0.0000 0.0000 0.0000  plane waves:   62167
 k-point  2 :   0.5000 0.0000 0.0000  plane waves:   62242
 k-point  3 :   0.0000 0.5000 0.0000  plane waves:   62242
 k-point  4 :   0.5000 0.5000 0.0000  plane waves:   62242

 maximum and minimum number of plane-waves per node :     62242    62167

 maximum number of plane-waves:     62242
 maximum index in each direction: 
   IXMAX=   20   IYMAX=   20   IZMAX=   42
   IXMIN=  -20   IYMIN=  -20   IZMIN=  -42


 serial   3D FFT for wavefunctions
 parallel 3D FFT for charge:
    minimum data exchange during FFTs selected (reduces bandwidth)


 total amount of memory used by VASP MPI-rank0   364382. kBytes
=======================================================================

   base      :      30000. kBytes
   nonlr-proj:      83564. kBytes
   fftplans  :      13995. kBytes
   grid      :     120016. kBytes
   one-center:       2550. kBytes
   wavefun   :     114257. kBytes
 
     INWAV:  cpu time    0.0000: real time    0.0000
 Broyden mixing: mesh for mixing (old mesh)
   NGX = 41   NGY = 41   NGZ = 85
  (NGX  =168   NGY  =168   NGZ  =336)
  gives a total of 142885 points

 initial charge density was supplied:
 charge density of overlapping atoms calculated
 number of electron     802.0000000 magnetization      82.0000000
 keeping initial charge density in first step


--------------------------------------------------------------------------------------------------------


 Maximum index for non-local projection operator         7542
 Maximum index for augmentation-charges         1323 (set IRDMAX)


--------------------------------------------------------------------------------------------------------


 First call to EWALD:  gamma=   0.138
 Maximum number of real-space cells 4x 4x 2
 Maximum number of reciprocal cells 2x 2x 4

    FEWALD:  cpu time    0.0035: real time    0.0035


--------------------------------------- Iteration      1(   1)  ---------------------------------------


    POTLOK:  cpu time    0.4860: real time    0.5138
    SETDIJ:  cpu time    0.0316: real time    0.0321
     EDDAV:  cpu time   49.6452: real time   49.8688
 BZINTS: Fermi energy: 15.988936;802.000000 electrons
         Band energy:7133.941535;  BLOECHL correction: -0.012292
       DOS:  cpu time    0.0172: real time    0.0173
    --------------------------------------------
      LOOP:  cpu time   50.1801: real time   50.4319

 eigenvalue-minimisations  :  8960
 total energy-change (2. order) : 0.6812699E+04  (-0.3596567E+05)
 number of electron     802.0000000 magnetization      82.0000000
 augmentation part      802.0000000 magnetization      82.0000000

 Free energy of the ion-electron system (eV)
  ---------------------------------------------------
  alpha Z        PSCENC =      1808.03780164
  Ewald energy   TEWEN  =    276849.85862005
  -Hartree energ DENC   =   -357892.22220204
  -exchange      EXHF   =         0.00000000
  -V(xc)+E(xc)   XCENC  =      2076.45978975
  PAW double counting   =     72761.65218721   -76586.80637160
  entropy T*S    EENTRO =         0.00000000
  eigenvalues    EBANDS =      7133.94153523
  atomic energy  EATOM  =     80661.77793577
  Solvation  Ediel_sol  =         0.00000000
  ---------------------------------------------------
  free energy    TOTEN  =      6812.69929601 eV

  energy without entropy =     6812.69929601  energy(sigma->0) =     6812.69929601


--------------------------------------------------------------------------------------------------------




--------------------------------------- Iteration      1(   2)  ---------------------------------------


     EDDAV:  cpu time   49.3008: real time   49.4340
 BZINTS: Fermi energy:  4.626585;802.000000 electrons
         Band energy: 719.242685;  BLOECHL correction: -0.013327
       DOS:  cpu time    0.0160: real time    0.0161
    --------------------------------------------
      LOOP:  cpu time   49.3169: real time   49.4501

 eigenvalue-minimisations  :  8960
 total energy-change (2. order) :-0.6414699E+04  (-0.5907080E+04)
 number of electron     802.0000000 magnetization      82.0000000
 augmentation part      802.0000000 magnetization      82.0000000

 Free energy of the ion-electron system (eV)
  ---------------------------------------------------
  alpha Z        PSCENC =      1808.03780164
  Ewald energy   TEWEN  =    276849.85862005
  -Hartree energ DENC   =   -357892.22220204
  -exchange      EXHF   =         0.00000000
  -V(xc)+E(xc)   XCENC  =      2076.45978975
  PAW double counting   =     72761.65218721   -76586.80637160
  entropy T*S    EENTRO =         0.00000000
  eigenvalues    EBANDS =       719.24268549
  atomic energy  EATOM  =     80661.77793577
  Solvation  Ediel_sol  =         0.00000000
  ---------------------------------------------------
  free energy    TOTEN  =       398.00044626 eV

  energy without entropy =      398.00044626  energy(sigma->0) =      398.00044626


--------------------------------------------------------------------------------------------------------




--------------------------------------- Iteration      1(   3)  ---------------------------------------


     EDDAV:  cpu time   51.7711: real time   51.8944
 BZINTS: Fermi energy:  2.673003;802.000000 electrons
         Band energy:-122.793058;  BLOECHL correction: -0.059382
       DOS:  cpu time    0.0194: real time    0.0194
    --------------------------------------------
      LOOP:  cpu time   51.7904: real time   51.9138

 eigenvalue-minimisations  :  9600
 total energy-change (2. order) :-0.8420357E+03  (-0.7283134E+03)
 number of electron     802.0000000 magnetization      82.0000000
 augmentation part      802.0000000 magnetization      82.0000000

 Free energy of the ion-electron system (eV)
  ---------------------------------------------------
  alpha Z        PSCENC =      1808.03780164
  Ewald energy   TEWEN  =    276849.85862005
  -Hartree energ DENC   =   -357892.22220204
  -exchange      EXHF   =         0.00000000
  -V(xc)+E(xc)   XCENC  =      2076.45978975
  PAW double counting   =     72761.65218721   -76586.80637160
  entropy T*S    EENTRO =         0.00000000
  eigenvalues    EBANDS =      -122.79305778
  atomic energy  EATOM  =     80661.77793577
  Solvation  Ediel_sol  =         0.00000000
  ---------------------------------------------------
  free energy    TOTEN  =      -444.03529700 eV

  energy without entropy =     -444.03529700  energy(sigma->0) =     -444.03529700


--------------------------------------------------------------------------------------------------------




--------------------------------------- Iteration      1(   4)  ---------------------------------------


     EDDAV:  cpu time   53.6934: real time   53.8236
 BZINTS: Fermi energy:  2.598508;802.000000 electrons
         Band energy:-171.305021;  BLOECHL correction: -0.194988
       DOS:  cpu time    0.0204: real time    0.0205
    --------------------------------------------
      LOOP:  cpu time   53.7138: real time   53.8441

 eigenvalue-minimisations  :  9960
 total energy-change (2. order) :-0.4851196E+02  (-0.4689793E+02)
 number of electron     802.0000000 magnetization      82.0000000
 augmentation part      802.0000000 magnetization      82.0000000

 Free energy of the ion-electron system (eV)
  ---------------------------------------------------
  alpha Z        PSCENC =      1808.03780164
  Ewald energy   TEWEN  =    276849.85862005
  -Hartree energ DENC   =   -357892.22220204
  -exchange      EXHF   =         0.00000000
  -V(xc)+E(xc)   XCENC  =      2076.45978975
  PAW double counting   =     72761.65218721   -76586.80637160
  entropy T*S    EENTRO =         0.00000000
  eigenvalues    EBANDS =      -171.30502095
  atomic energy  EATOM  =     80661.77793577
  Solvation  Ediel_sol  =         0.00000000
  ---------------------------------------------------
  free energy    TOTEN  =      -492.54726018 eV

  energy without entropy =     -492.54726018  energy(sigma->0) =     -492.54726018


--------------------------------------------------------------------------------------------------------




--------------------------------------- Iteration      1(   5)  ---------------------------------------


     EDDAV:  cpu time   57.8490: real time   58.0185
 BZINTS: Fermi energy:  2.597333;802.000000 electrons
         Band energy:-172.022987;  BLOECHL correction: -0.196242
       DOS:  cpu time    0.0203: real time    0.0203
    CHARGE:  cpu time    2.8705: real time    2.8792
    MIXING:  cpu time    0.0093: real time    0.0101
    --------------------------------------------
      LOOP:  cpu time   60.7491: real time   60.9282

 eigenvalue-minimisations  : 10960
 total energy-change (2. order) :-0.7179659E+00  (-0.7185654E+00)
 number of electron     801.9999993 magnetization      79.1642804
 augmentation part      407.3004106 magnetization      67.1268490

 Broyden mixing:
  rms(total) = 0.88463E+01    rms(broyden)= 0.88463E+01
  rms(prec ) = 0.91923E+01
  weight for this iteration     100.00

 Free energy of the ion-electron system (eV)
  ---------------------------------------------------
  alpha Z        PSCENC =      1808.03780164
  Ewald energy   TEWEN  =    276849.85862005
  -Hartree energ DENC   =   -357892.22220204
  -exchange      EXHF   =         0.00000000
  -V(xc)+E(xc)   XCENC  =      2076.45978975
  PAW double counting   =     72761.65218721   -76586.80637160
  entropy T*S    EENTRO =         0.00000000
  eigenvalues    EBANDS =      -172.02298689
  atomic energy  EATOM  =     80661.77793577
  Solvation  Ediel_sol  =         0.00000000
  ---------------------------------------------------
  free energy    TOTEN  =      -493.26522611 eV

  energy without entropy =     -493.26522611  energy(sigma->0) =     -493.26522611


--------------------------------------------------------------------------------------------------------




--------------------------------------- Iteration      1(   6)  ---------------------------------------


    POTLOK:  cpu time    0.4379: real time    0.4389
    SETDIJ:  cpu time    0.0328: real time    0.0329
    EDDIAG:  cpu time    8.8356: real time    8.8619
  RMM-DIIS:  cpu time   33.4758: real time   33.5764
    ORTHCH:  cpu time    1.2150: real time    1.2186
 BZINTS: Fermi energy:  0.689416;802.000000 electrons
         Band energy:***********;  BLOECHL correction: -0.010955
       DOS:  cpu time    0.0202: real time    0.0202
    CHARGE:  cpu time    2.8610: real time    2.8694
    MIXING:  cpu time    0.0092: real time    0.0094
    --------------------------------------------
      LOOP:  cpu time   46.8875: real time   47.0279

 eigenvalue-minimisations  :  8998
 total energy-change (2. order) :-0.4469971E+02  (-0.7008737E+02)
 number of electron     801.9999990 magnetization      77.1367878
 augmentation part      476.1133122 magnetization      68.3787975

 Broyden mixing:
  rms(total) = 0.11662E+02    rms(broyden)= 0.11662E+02
  rms(prec ) = 0.14543E+02
  weight for this iteration     100.00

 eigenvalues of (default mixing * dielectric matrix)
  average eigenvalue GAMMA=   0.3560
  0.3560

 Free energy of the ion-electron system (eV)
  ---------------------------------------------------
  alpha Z        PSCENC =      1808.03780164
  Ewald energy   TEWEN  =    276849.85862005
  -Hartree energ DENC   =   -356524.06173953
  -exchange      EXHF   =         0.00000000
  -V(xc)+E(xc)   XCENC  =      2001.75974924
  PAW double counting   =     77219.59785547   -80782.80279720
  entropy T*S    EENTRO =         0.00000000
  eigenvalues    EBANDS =     -1772.13235749
  atomic energy  EATOM  =     80661.77793577
  Solvation  Ediel_sol  =         0.00000000
  ---------------------------------------------------
  free energy    TOTEN  =      -537.96493205 eV

  energy without entropy =     -537.96493205  energy(sigma->0) =     -537.96493205


--------------------------------------------------------------------------------------------------------




--------------------------------------- Iteration      1(   7)  ---------------------------------------


    POTLOK:  cpu time    0.4379: real time    0.4389
    SETDIJ:  cpu time    0.0326: real time    0.0326
    EDDIAG:  cpu time    8.5604: real time    8.5858
  RMM-DIIS:  cpu time   33.3143: real time   33.4128
    ORTHCH:  cpu time    1.2021: real time    1.2055
 BZINTS: Fermi energy:  3.056822;802.000000 electrons
         Band energy:-777.435736;  BLOECHL correction: -0.058887
       DOS:  cpu time    0.0193: real time    0.0194
    CHARGE:  cpu time    2.8760: real time    2.8845
    MIXING:  cpu time    0.0102: real time    0.0102
    --------------------------------------------
      LOOP:  cpu time   46.4527: real time   46.5897

 eigenvalue-minimisations  :  8969
 total energy-change (2. order) :-0.7284933E+02  (-0.1914864E+02)
 number of electron     801.9999999 magnetization      75.9380444
 augmentation part      427.7474341 magnetization      64.4065082

 Broyden mixing:
  rms(total) = 0.14818E+02    rms(broyden)= 0.14818E+02
  rms(prec ) = 0.20302E+02
  weight for this iteration     100.00

 eigenvalues of (default mixing * dielectric matrix)
  average eigenvalue GAMMA=   0.2308
  0.3947  0.0669

 Free energy of the ion-electron system (eV)
  ---------------------------------------------------
  alpha Z        PSCENC =      1808.03780164
  Ewald energy   TEWEN  =    276849.85862005
  -Hartree energ DENC   =   -357395.53010953
  -exchange      EXHF   =         0.00000000
  -V(xc)+E(xc)   XCENC  =      2019.04927817
  PAW double counting   =     78941.22377495   -82717.79582571
  entropy T*S    EENTRO =         0.00000000
  eigenvalues    EBANDS =      -777.43573642
  atomic energy  EATOM  =     80661.77793577
  Solvation  Ediel_sol  =         0.00000000
  ---------------------------------------------------
  free energy    TOTEN  =      -610.81426108 eV

  energy without entropy =     -610.81426108  energy(sigma->0) =     -610.81426108


--------------------------------------------------------------------------------------------------------




--------------------------------------- Iteration      1(   8)  ---------------------------------------


    POTLOK:  cpu time    0.4353: real time    0.4368
    SETDIJ:  cpu time    0.0328: real time    0.0328
    EDDIAG:  cpu time    8.6077: real time    8.6327
  RMM-DIIS:  cpu time   33.2184: real time   33.3177
    ORTHCH:  cpu time    1.2001: real time    1.2035
 BZINTS: Fermi energy:  2.489545;802.000000 electrons
         Band energy:-581.991464;  BLOECHL correction: -0.044803
       DOS:  cpu time    0.0194: real time    0.0195
    CHARGE:  cpu time    2.8834: real time    2.8918
    MIXING:  cpu time    0.0101: real time    0.0102
    --------------------------------------------
      LOOP:  cpu time   46.4072: real time   46.5450

 eigenvalue-minimisations  :  8967
 total energy-change (2. order) : 0.1002836E+03  (-0.4722513E+01)
 number of electron     802.0000001 magnetization      74.7751288
 augmentation part      434.0818516 magnetization      61.8868093

 Broyden mixing:
  rms(total) = 0.12579E+02    rms(broyden)= 0.12579E+02
  rms(prec ) = 0.14517E+02
  weight for this iteration     100.00

 eigenvalues of (default mixing * dielectric matrix)
  average eigenvalue GAMMA=   0.2223
  0.4368  0.1151  0.1151

 Free energy of the ion-electron system (eV)
  ---------------------------------------------------
  alpha Z        PSCENC =      1808.03780164
  Ewald energy   TEWEN  =    276849.85862005
  -Hartree energ DENC   =   -357452.57239472
  -exchange      EXHF   =         0.00000000
  -V(xc)+E(xc)   XCENC  =      2020.86628811
  PAW double counting   =     79808.55828269   -83625.06574724
  entropy T*S    EENTRO =         0.00000000
  eigenvalues    EBANDS =      -581.99146410
  atomic energy  EATOM  =     80661.77793577
  Solvation  Ediel_sol  =         0.00000000
  ---------------------------------------------------
  free energy    TOTEN  =      -510.53067781 eV

  energy without entropy =     -510.53067781  energy(sigma->0) =     -510.53067781


--------------------------------------------------------------------------------------------------------




--------------------------------------- Iteration      1(   9)  ---------------------------------------


    POTLOK:  cpu time    0.4362: real time    0.4372
    SETDIJ:  cpu time    0.0327: real time    0.0327
    EDDIAG:  cpu time    8.5666: real time    8.5921
  RMM-DIIS:  cpu time   33.3338: real time   33.4324
    ORTHCH:  cpu time    1.2035: real time    1.2069
 BZINTS: Fermi energy:  1.696294;802.000000 electrons
         Band energy:-893.916083;  BLOECHL correction: -0.084935
       DOS:  cpu time    0.0194: real time    0.0195
    CHARGE:  cpu time    2.8895: real time    2.8981
    MIXING:  cpu time    0.0120: real time    0.0120
    --------------------------------------------
      LOOP:  cpu time   46.4936: real time   46.6309

 eigenvalue-minimisations  :  8971
 total energy-change (2. order) : 0.4691499E+02  (-0.3389145E+01)
 number of electron     801.9999998 magnetization      73.2152529
 augmentation part      442.5290709 magnetization      58.6607211

 Broyden mixing:
  rms(total) = 0.10804E+02    rms(broyden)= 0.10804E+02
  rms(prec ) = 0.14036E+02
  weight for this iteration     100.00

 eigenvalues of (default mixing * dielectric matrix)
  average eigenvalue GAMMA=   0.2830
  0.5650  0.2512  0.2512  0.0646

 Free energy of the ion-electron system (eV)
  ---------------------------------------------------
  alpha Z        PSCENC =      1808.03780164
  Ewald energy   TEWEN  =    276849.85862005
  -Hartree energ DENC   =   -357084.98394961
  -exchange      EXHF   =         0.00000000
  -V(xc)+E(xc)   XCENC  =      2020.03434593
  PAW double counting   =     80539.73276561   -84364.15712665
  entropy T*S    EENTRO =         0.00000000
  eigenvalues    EBANDS =      -893.91608350
  atomic energy  EATOM  =     80661.77793577
  Solvation  Ediel_sol  =         0.00000000
  ---------------------------------------------------
  free energy    TOTEN  =      -463.61569077 eV

  energy without entropy =     -463.61569077  energy(sigma->0) =     -463.61569077


--------------------------------------------------------------------------------------------------------




--------------------------------------- Iteration      1(  10)  ---------------------------------------


    POTLOK:  cpu time    0.4678: real time    0.4694
    SETDIJ:  cpu time    0.0342: real time    0.0343
    EDDIAG:  cpu time    8.7144: real time    8.7403
  RMM-DIIS:  cpu time   33.4008: real time   33.5000
    ORTHCH:  cpu time    1.2012: real time    1.2046
 BZINTS: Fermi energy:  2.791198;802.000000 electrons
         Band energy:-522.408825;  BLOECHL correction: -0.049404
       DOS:  cpu time    0.0199: real time    0.0200
    CHARGE:  cpu time    2.8584: real time    2.8668
    MIXING:  cpu time    0.0107: real time    0.0107
    --------------------------------------------
      LOOP:  cpu time   46.7075: real time   46.8461

 eigenvalue-minimisations  :  8975
 total energy-change (2. order) :-0.7893787E+02  (-0.7870621E+01)
 number of electron     801.9999993 magnetization      69.1535730
 augmentation part      431.7479028 magnetization      58.1171193

 Broyden mixing:
  rms(total) = 0.15737E+02    rms(broyden)= 0.15737E+02
  rms(prec ) = 0.18635E+02
  weight for this iteration     100.00

 eigenvalues of (default mixing * dielectric matrix)
  average eigenvalue GAMMA=   0.4177
  0.8601  0.8601  0.1970  0.1008  0.0706

 Free energy of the ion-electron system (eV)
  ---------------------------------------------------
  alpha Z        PSCENC =      1808.03780164
  Ewald energy   TEWEN  =    276849.85862005
  -Hartree energ DENC   =   -357484.85768335
  -exchange      EXHF   =         0.00000000
  -V(xc)+E(xc)   XCENC  =      2024.54797511
  PAW double counting   =     81603.82826377   -85483.33764603
  entropy T*S    EENTRO =         0.00000000
  eigenvalues    EBANDS =      -522.40882549
  atomic energy  EATOM  =     80661.77793577
  Solvation  Ediel_sol  =         0.00000000
  ---------------------------------------------------
  free energy    TOTEN  =      -542.55355853 eV

  energy without entropy =     -542.55355853  energy(sigma->0) =     -542.55355853


--------------------------------------------------------------------------------------------------------




--------------------------------------- Iteration      1(  11)  ---------------------------------------


    POTLOK:  cpu time    0.4338: real time    0.4353
    SETDIJ:  cpu time    0.0330: real time    0.0331
    EDDIAG:  cpu time    8.5596: real time    8.5846
  RMM-DIIS:  cpu time   33.7070: real time   33.8064
    ORTHCH:  cpu time    1.2024: real time    1.2058
 BZINTS: Fermi energy:  1.838843;802.000000 electrons
         Band energy:-795.316891;  BLOECHL correction: -0.004888
       DOS:  cpu time    0.0199: real time    0.0200
    CHARGE:  cpu time    2.8403: real time    2.8487
    MIXING:  cpu time    0.0112: real time    0.0112
    --------------------------------------------
      LOOP:  cpu time   46.8071: real time   46.9452

 eigenvalue-minimisations  :  9018
 total energy-change (2. order) : 0.3911730E+02  (-0.9854399E+01)
 number of electron     801.9999991 magnetization      67.5904916
 augmentation part      444.1270613 magnetization      56.2305170

 Broyden mixing:
  rms(total) = 0.12430E+02    rms(broyden)= 0.12430E+02
  rms(prec ) = 0.14037E+02
  weight for this iteration     100.00

 eigenvalues of (default mixing * dielectric matrix)
  average eigenvalue GAMMA=   0.3980
  0.9688  0.9237  0.1668  0.1668  0.0710  0.0906

 Free energy of the ion-electron system (eV)
  ---------------------------------------------------
  alpha Z        PSCENC =      1808.03780164
  Ewald energy   TEWEN  =    276849.85862005
  -Hartree energ DENC   =   -357143.35059308
  -exchange      EXHF   =         0.00000000
  -V(xc)+E(xc)   XCENC  =      2025.77741842
  PAW double counting   =     83081.34085631   -86991.56140671
  entropy T*S    EENTRO =         0.00000000
  eigenvalues    EBANDS =      -795.31689097
  atomic energy  EATOM  =     80661.77793577
  Solvation  Ediel_sol  =         0.00000000
  ---------------------------------------------------
  free energy    TOTEN  =      -503.43625858 eV

  energy without entropy =     -503.43625858  energy(sigma->0) =     -503.43625858


--------------------------------------------------------------------------------------------------------




--------------------------------------- Iteration      1(  12)  ---------------------------------------


    POTLOK:  cpu time    0.4352: real time    0.4368
    SETDIJ:  cpu time    0.0330: real time    0.0331
    EDDIAG:  cpu time    8.5703: real time    8.5952
  RMM-DIIS:  cpu time   33.6538: real time   33.7512
    ORTHCH:  cpu time    1.2058: real time    1.2086
 BZINTS: Fermi energy:  1.588311;802.000000 electrons
         Band energy:-799.709748;  BLOECHL correction: -0.041640
       DOS:  cpu time    0.0208: real time    0.0208
    CHARGE:  cpu time    2.9035: real time    2.9105
    MIXING:  cpu time    0.0115: real time    0.0115
    --------------------------------------------
      LOOP:  cpu time   46.8339: real time   46.9677

 eigenvalue-minimisations  :  9025
 total energy-change (2. order) : 0.5711042E+02  (-0.7344006E+01)
 number of electron     801.9999992 magnetization      65.7800072
 augmentation part      448.5340514 magnetization      52.7994669

 Broyden mixing:
  rms(total) = 0.68318E+01    rms(broyden)= 0.68317E+01
  rms(prec ) = 0.94197E+01
  weight for this iteration     100.00

 eigenvalues of (default mixing * dielectric matrix)
  average eigenvalue GAMMA=   0.3944
  1.3120  0.6925  0.2437  0.2437  0.0697  0.0998  0.0998

 Free energy of the ion-electron system (eV)
  ---------------------------------------------------
  alpha Z        PSCENC =      1808.03780164
  Ewald energy   TEWEN  =    276849.85862005
  -Hartree energ DENC   =   -357068.21493655
  -exchange      EXHF   =         0.00000000
  -V(xc)+E(xc)   XCENC  =      2025.72978142
  PAW double counting   =     83528.14057966   -87451.94587563
  entropy T*S    EENTRO =         0.00000000
  eigenvalues    EBANDS =      -799.70974804
  atomic energy  EATOM  =     80661.77793577
  Solvation  Ediel_sol  =         0.00000000
  ---------------------------------------------------
  free energy    TOTEN  =      -446.32584169 eV

  energy without entropy =     -446.32584169  energy(sigma->0) =     -446.32584169


--------------------------------------------------------------------------------------------------------




--------------------------------------- Iteration      1(  13)  ---------------------------------------


    POTLOK:  cpu time    0.4371: real time    0.4381
    SETDIJ:  cpu time    0.0326: real time    0.0327
    EDDIAG:  cpu time    8.6151: real time    8.6354
  RMM-DIIS:  cpu time   33.6487: real time   33.7283
    ORTHCH:  cpu time    1.2059: real time    1.2088
 BZINTS: Fermi energy:  1.696626;802.000000 electrons
         Band energy:-694.393251;  BLOECHL correction: -0.004579
       DOS:  cpu time    0.0182: real time    0.0183
    CHARGE:  cpu time    2.8516: real time    2.8584
    MIXING:  cpu time    0.0118: real time    0.0118
    --------------------------------------------
      LOOP:  cpu time   46.8210: real time   46.9318

 eigenvalue-minimisations  :  9010
 total energy-change (2. order) : 0.8298853E+01  (-0.1884818E+01)
 number of electron     801.9999992 magnetization      64.2293161
 augmentation part      444.9898765 magnetization      52.2337876

 Broyden mixing:
  rms(total) = 0.86709E+01    rms(broyden)= 0.86708E+01
  rms(prec ) = 0.10527E+02
  weight for this iteration     100.00

 eigenvalues of (default mixing * dielectric matrix)
  average eigenvalue GAMMA=   0.3795
  1.4690  0.6087  0.3076  0.2744  0.0705  0.1074  0.1074  0.0913

 Free energy of the ion-electron system (eV)
  ---------------------------------------------------
  alpha Z        PSCENC =      1808.03780164
  Ewald energy   TEWEN  =    276849.85862005
  -Hartree energ DENC   =   -357139.57569209
  -exchange      EXHF   =         0.00000000
  -V(xc)+E(xc)   XCENC  =      2023.93560322
  PAW double counting   =     84075.60663172   -88023.27463740
  entropy T*S    EENTRO =         0.00000000
  eigenvalues    EBANDS =      -694.39325123
  atomic energy  EATOM  =     80661.77793577
  Solvation  Ediel_sol  =         0.00000000
  ---------------------------------------------------
  free energy    TOTEN  =      -438.02698833 eV

  energy without entropy =     -438.02698833  energy(sigma->0) =     -438.02698833


--------------------------------------------------------------------------------------------------------




--------------------------------------- Iteration      1(  14)  ---------------------------------------


    POTLOK:  cpu time    0.4368: real time    0.4379
    SETDIJ:  cpu time    0.0326: real time    0.0326
    EDDIAG:  cpu time    8.5834: real time    8.6037
  RMM-DIIS:  cpu time   33.6295: real time   33.7091
    ORTHCH:  cpu time    1.2063: real time    1.2092
 BZINTS: Fermi energy:  1.533626;802.000000 electrons
         Band energy:-667.161070;  BLOECHL correction: -0.026419
       DOS:  cpu time    0.0199: real time    0.0199
    CHARGE:  cpu time    2.8832: real time    2.8900
    MIXING:  cpu time    0.0122: real time    0.0123
    --------------------------------------------
      LOOP:  cpu time   46.8039: real time   46.9147

 eigenvalue-minimisations  :  9007
 total energy-change (2. order) : 0.1980935E+02  (-0.1457271E+01)
 number of electron     801.9999993 magnetization      63.4776367
 augmentation part      446.6033659 magnetization      50.0676478

 Broyden mixing:
  rms(total) = 0.62181E+01    rms(broyden)= 0.62180E+01
  rms(prec ) = 0.77037E+01
  weight for this iteration     100.00

 eigenvalues of (default mixing * dielectric matrix)
  average eigenvalue GAMMA=   0.3549
  1.4763  0.5780  0.2974  0.2974  0.2026  0.1023  0.1023  0.0719  0.0660

 Free energy of the ion-electron system (eV)
  ---------------------------------------------------
  alpha Z        PSCENC =      1808.03780164
  Ewald energy   TEWEN  =    276849.85862005
  -Hartree energ DENC   =   -357135.36451069
  -exchange      EXHF   =         0.00000000
  -V(xc)+E(xc)   XCENC  =      2024.08139915
  PAW double counting   =     84440.22762311   -88399.67543386
  entropy T*S    EENTRO =         0.00000000
  eigenvalues    EBANDS =      -667.16106968
  atomic energy  EATOM  =     80661.77793577
  Solvation  Ediel_sol  =         0.00000000
  ---------------------------------------------------
  free energy    TOTEN  =      -418.21763451 eV

  energy without entropy =     -418.21763451  energy(sigma->0) =     -418.21763451


--------------------------------------------------------------------------------------------------------




--------------------------------------- Iteration      1(  15)  ---------------------------------------


    POTLOK:  cpu time    0.4357: real time    0.4367
    SETDIJ:  cpu time    0.0325: real time    0.0326
    EDDIAG:  cpu time    8.8445: real time    8.8655
  RMM-DIIS:  cpu time   33.6629: real time   33.7485
    ORTHCH:  cpu time    1.2016: real time    1.2049
 BZINTS: Fermi energy:  1.540442;802.000000 electrons
         Band energy:-632.286510;  BLOECHL correction: -0.030635
       DOS:  cpu time    0.0200: real time    0.0201
    CHARGE:  cpu time    2.8852: real time    2.8936
    MIXING:  cpu time    0.0126: real time    0.0126
    --------------------------------------------
      LOOP:  cpu time   47.0950: real time   47.2147

 eigenvalue-minimisations  :  9009
 total energy-change (2. order) : 0.1847547E+01  (-0.6762625E+00)
 number of electron     801.9999993 magnetization      63.0030882
 augmentation part      446.5821290 magnetization      49.6762064

 Broyden mixing:
  rms(total) = 0.64661E+01    rms(broyden)= 0.64660E+01
  rms(prec ) = 0.78649E+01
  weight for this iteration     100.00

 eigenvalues of (default mixing * dielectric matrix)
  average eigenvalue GAMMA=   0.3381
  1.4652  0.5709  0.3488  0.3488  0.2190  0.1018  0.1018  0.0708  0.0772  0.0772

 Free energy of the ion-electron system (eV)
  ---------------------------------------------------
  alpha Z        PSCENC =      1808.03780164
  Ewald energy   TEWEN  =    276849.85862005
  -Hartree energ DENC   =   -357163.29445051
  -exchange      EXHF   =         0.00000000
  -V(xc)+E(xc)   XCENC  =      2023.26912511
  PAW double counting   =     84564.72814689   -88528.46075620
  entropy T*S    EENTRO =         0.00000000
[...]
     10.204152  3.398846  6.880918            0           0           0  
     10.256619  3.366846  1.119299            0           0           0  
     10.247650  0.324285  4.951208            0           0           0  
      8.922178  7.181691  4.953309            0           0           0  
     10.244535  4.892716  4.953555            0           0           0  
      6.292610  7.181106  4.957815            0           0           0  
      4.964437  0.324488  4.949819            0           0           0  
      4.966517  6.417103  3.029832            0           0           0  
      7.605753  0.324740  4.949183            0           0           0  
      8.927640  1.086304  6.838117            0           0           0  
     10.241880  7.947054  6.836841            0           0           0  
      8.933630  1.081954  1.118451            0           0           0  
     10.249997  7.940401  1.115771            0           0           0  
      4.969540  4.895852  4.951658            0           0           0  
     11.554837  2.613046  4.961378            0           0           0  
     14.207116  8.704247  3.025075            0           0           0  
      8.929540  2.614929  4.955907            0           0           0  
      6.288003  2.611121  4.950206            0           0           0  
     14.203869  8.705773  8.982033            0           0           0  
      3.643003  4.131447  8.979820            0           0           0  
      6.280344  8.713614  8.980941            0           0           0  
     11.583462  4.130525  8.984056            0           0           0  
      8.931788  8.723703  8.984298            0           0           0  
     10.249666  1.839129  8.981370            0           0           0  
      2.325735  1.847077  8.975002            0           0           0  
     11.569870  8.713059  8.979319            0           0           0  
     12.892999  6.421017  8.979806            0           0           0  
      4.962184  1.847168  8.980115            0           0           0  
      7.598878  6.442920  9.117436            0           0           0  
      8.944809  4.112487  9.097113            0           0           0  
      4.953851  6.426624  8.968945            0           0           0  
      7.605041  1.835145  8.969200            0           0           0  
      6.260870  4.118860  8.974108            0           0           0  
     10.277153  6.437766  8.952086            0           0           0  
      7.845031  5.071287 10.546395     0.394322   -0.709296   -0.067194  
      8.648948  5.501101 10.544394     0.295498   -0.499217   -0.018896  
 
   5 f/i=   16.202339 THz   101.802300 2PiTHz  540.451850 cm-1    67.007513 meV
             X         Y         Z           dx          dy          dz
     12.885760  7.945670  6.839445            0           0           0  
      4.967083  7.946841  6.838525            0           0           0  
      3.649921  5.658277  6.836888            0           0           0  
     12.893920  7.930719  1.117496            0           0           0  
      4.973660  7.934571  1.119596            0           0           0  
      3.654460  5.644395  1.121176            0           0           0  
      7.606901  1.843612  3.026040            0           0           0  
      8.927632  8.704650  3.025391            0           0           0  
      2.320990  3.370739  6.842047            0           0           0  
      2.333745  3.364610  1.122270            0           0           0  
     10.249248  1.845314  3.027106            0           0           0  
     12.886885  4.892273  4.953137            0           0           0  
      3.642363  1.078120  6.841951            0           0           0  
      8.915641  5.652130  6.865086            0           0           0  
      4.968133  3.373367  6.838013            0           0           0  
      3.651856  1.084183  1.119879            0           0           0  
      8.925611  5.650181  1.117095            0           0           0  
      4.966979  3.368872  1.122004            0           0           0  
     11.568378  8.703821  3.021896            0           0           0  
     11.564054  7.181516  4.949592            0           0           0  
     12.887203  6.415170  3.027520            0           0           0  
      8.927828  4.130137  3.025448            0           0           0  
      7.608208  7.888420  6.885393            0           0           0  
      7.609859  7.938730  1.118362            0           0           0  
     10.245960  6.416801  3.021468            0           0           0  
      2.324357  0.307902  4.961566            0           0           0  
      7.620233  3.384923  6.857446            0           0           0  
      7.607570  3.366298  1.119211            0           0           0  
      6.286663  1.089724  6.836394            0           0           0  
      6.284510  1.085538  1.117767            0           0           0  
     11.568186  4.131507  3.030214            0           0           0  
      3.646484  4.130871  3.034459            0           0           0  
      1.004994  1.084708  6.839603            0           0           0  
      1.017804  1.081944  1.119986            0           0           0  
      6.287244  8.705513  3.027682            0           0           0  
      7.609421  4.896725  4.958140            0           0           0  
      4.966895  1.846462  3.031031            0           0           0  
      2.328793  1.845637  3.032086            0           0           0  
     14.206875  7.182360  4.950455            0           0           0  
     11.565693  5.653804  6.837052            0           0           0  
      6.305745  5.664079  6.859711            0           0           0  
     11.574645  5.647310  1.118180            0           0           0  
      6.286892  5.647178  1.120360            0           0           0  
      7.604774  6.418020  3.026047            0           0           0  
      6.287058  4.130295  3.030444            0           0           0  
      3.642159  2.604869  4.957995            0           0           0  
     10.204152  3.398846  6.880918            0           0           0  
     10.256619  3.366846  1.119299            0           0           0  
     10.247650  0.324285  4.951208            0           0           0  
      8.922178  7.181691  4.953309            0           0           0  
     10.244535  4.892716  4.953555            0           0           0  
      6.292610  7.181106  4.957815            0           0           0  
      4.964437  0.324488  4.949819            0           0           0  
      4.966517  6.417103  3.029832            0           0           0  
      7.605753  0.324740  4.949183            0           0           0  
      8.927640  1.086304  6.838117            0           0           0  
     10.241880  7.947054  6.836841            0           0           0  
      8.933630  1.081954  1.118451            0           0           0  
     10.249997  7.940401  1.115771            0           0           0  
      4.969540  4.895852  4.951658            0           0           0  
     11.554837  2.613046  4.961378            0           0           0  
     14.207116  8.704247  3.025075            0           0           0  
      8.929540  2.614929  4.955907            0           0           0  
      6.288003  2.611121  4.950206            0           0           0  
     14.203869  8.705773  8.982033            0           0           0  
      3.643003  4.131447  8.979820            0           0           0  
      6.280344  8.713614  8.980941            0           0           0  
     11.583462  4.130525  8.984056            0           0           0  
      8.931788  8.723703  8.984298            0           0           0  
     10.249666  1.839129  8.981370            0           0           0  
      2.325735  1.847077  8.975002            0           0           0  
     11.569870  8.713059  8.979319            0           0           0  
     12.892999  6.421017  8.979806            0           0           0  
      4.962184  1.847168  8.980115            0           0           0  
      7.598878  6.442920  9.117436            0           0           0  
      8.944809  4.112487  9.097113            0           0           0  
      4.953851  6.426624  8.968945            0           0           0  
      7.605041  1.835145  8.969200            0           0           0  
      6.260870  4.118860  8.974108            0           0           0  
     10.277153  6.437766  8.952086            0           0           0  
      7.845031  5.071287 10.546395     0.262168   -0.515125   -0.051853  
      8.648948  5.501101 10.544394    -0.385948    0.717000    0.013399  
 
   6 f/i=   18.679988 THz   117.369824 2PiTHz  623.097297 cm-1    77.254247 meV
             X         Y         Z           dx          dy          dz
     12.885760  7.945670  6.839445            0           0           0  
      4.967083  7.946841  6.838525            0           0           0  
      3.649921  5.658277  6.836888            0           0           0  
     12.893920  7.930719  1.117496            0           0           0  
      4.973660  7.934571  1.119596            0           0           0  
      3.654460  5.644395  1.121176            0           0           0  
      7.606901  1.843612  3.026040            0           0           0  
      8.927632  8.704650  3.025391            0           0           0  
      2.320990  3.370739  6.842047            0           0           0  
      2.333745  3.364610  1.122270            0           0           0  
     10.249248  1.845314  3.027106            0           0           0  
     12.886885  4.892273  4.953137            0           0           0  
      3.642363  1.078120  6.841951            0           0           0  
      8.915641  5.652130  6.865086            0           0           0  
      4.968133  3.373367  6.838013            0           0           0  
      3.651856  1.084183  1.119879            0           0           0  
      8.925611  5.650181  1.117095            0           0           0  
      4.966979  3.368872  1.122004            0           0           0  
     11.568378  8.703821  3.021896            0           0           0  
     11.564054  7.181516  4.949592            0           0           0  
     12.887203  6.415170  3.027520            0           0           0  
      8.927828  4.130137  3.025448            0           0           0  
      7.608208  7.888420  6.885393            0           0           0  
      7.609859  7.938730  1.118362            0           0           0  
     10.245960  6.416801  3.021468            0           0           0  
      2.324357  0.307902  4.961566            0           0           0  
      7.620233  3.384923  6.857446            0           0           0  
      7.607570  3.366298  1.119211            0           0           0  
      6.286663  1.089724  6.836394            0           0           0  
      6.284510  1.085538  1.117767            0           0           0  
     11.568186  4.131507  3.030214            0           0           0  
      3.646484  4.130871  3.034459            0           0           0  
      1.004994  1.084708  6.839603            0           0           0  
      1.017804  1.081944  1.119986            0           0           0  
      6.287244  8.705513  3.027682            0           0           0  
      7.609421  4.896725  4.958140            0           0           0  
      4.966895  1.846462  3.031031            0           0           0  
      2.328793  1.845637  3.032086            0           0           0  
     14.206875  7.182360  4.950455            0           0           0  
     11.565693  5.653804  6.837052            0           0           0  
      6.305745  5.664079  6.859711            0           0           0  
     11.574645  5.647310  1.118180            0           0           0  
      6.286892  5.647178  1.120360            0           0           0  
      7.604774  6.418020  3.026047            0           0           0  
      6.287058  4.130295  3.030444            0           0           0  
      3.642159  2.604869  4.957995            0           0           0  
     10.204152  3.398846  6.880918            0           0           0  
     10.256619  3.366846  1.119299            0           0           0  
     10.247650  0.324285  4.951208            0           0           0  
      8.922178  7.181691  4.953309            0           0           0  
     10.244535  4.892716  4.953555            0           0           0  
      6.292610  7.181106  4.957815            0           0           0  
      4.964437  0.324488  4.949819            0           0           0  
      4.966517  6.417103  3.029832            0           0           0  
      7.605753  0.324740  4.949183            0           0           0  
      8.927640  1.086304  6.838117            0           0           0  
     10.241880  7.947054  6.836841            0           0           0  
      8.933630  1.081954  1.118451            0           0           0  
     10.249997  7.940401  1.115771            0           0           0  
      4.969540  4.895852  4.951658            0           0           0  
     11.554837  2.613046  4.961378            0           0           0  
     14.207116  8.704247  3.025075            0           0           0  
      8.929540  2.614929  4.955907            0           0           0  
      6.288003  2.611121  4.950206            0           0           0  
     14.203869  8.705773  8.982033            0           0           0  
      3.643003  4.131447  8.979820            0           0           0  
      6.280344  8.713614  8.980941            0           0           0  
     11.583462  4.130525  8.984056            0           0           0  
      8.931788  8.723703  8.984298            0           0           0  
     10.249666  1.839129  8.981370            0           0           0  
      2.325735  1.847077  8.975002            0           0           0  
     11.569870  8.713059  8.979319            0           0           0  
     12.892999  6.421017  8.979806            0           0           0  
      4.962184  1.847168  8.980115            0           0           0  
      7.598878  6.442920  9.117436            0           0           0  
      8.944809  4.112487  9.097113            0           0           0  
      4.953851  6.426624  8.968945            0           0           0  
      7.605041  1.835145  8.969200            0           0           0  
      6.260870  4.118860  8.974108            0           0           0  
     10.277153  6.437766  8.952086            0           0           0  
      7.845031  5.071287 10.546395     0.214178    0.040391    0.682383  
      8.648948  5.501101 10.544394    -0.127354   -0.081228    0.681199  
 
 Finite differences POTIM=  5.000000000000000E-002
  LATTYP: Found a hexagonal cell.
 ALAT       =    10.5600004196
 C/A-ratio  =     2.0833332505
  
  Lattice vectors:
  
 A1 = (   5.2800002098,  -9.1452286274,   0.0000000000)
 A2 = ( -10.5600004196,   0.0000000000,   0.0000000000)
 A3 = (   0.0000000000,   0.0000000000, -22.0000000000)


Analysis of symmetry for initial positions (statically):
=====================================================================
 Subroutine PRICEL returns:
 Original cell was already a primitive cell.
 

 Routine SETGRP: Setting up the symmetry group for a 
 hexagonal supercell.


 Subroutine GETGRP returns: Found  1 space group operations
 (whereof  1 operations were pure point group operations)
 out of a pool of 24 trial point group operations.


The static configuration has the point symmetry C_1 .


Analysis of symmetry for dynamics (positions and initial velocities):
=====================================================================
 Subroutine PRICEL returns:
 Original cell was already a primitive cell.
 

 Routine SETGRP: Setting up the symmetry group for a 
 hexagonal supercell.


 Subroutine GETGRP returns: Found  1 space group operations
 (whereof  1 operations were pure point group operations)
 out of a pool of 24 trial point group operations.


The dynamic configuration has the point symmetry C_1 .


Analysis of constrained symmetry for selective dynamics:
=====================================================================
 Subroutine PRICEL returns:
 Original cell was already a primitive cell.
 

 Routine SETGRP: Setting up the symmetry group for a 
 hexagonal supercell.


 Subroutine GETGRP returns: Found  1 space group operations
 (whereof  1 operations were pure point group operations)
 out of a pool of 24 trial point group operations.


The constrained configuration has the point symmetry C_1 .


Analysis of structural, dynamic, and magnetic symmetry:
=====================================================================
 Subroutine PRICEL returns:
 Original cell was already a primitive cell.
 

 Routine SETGRP: Setting up the symmetry group for a 
 hexagonal supercell.


 Subroutine GETGRP returns: Found  1 space group operations
 (whereof  1 operations were pure point group operations)
 out of a pool of 24 trial point group operations.


The magnetic configuration has the point symmetry C_1 .


 Subroutine INISYM returns: Found  1 space group operations
 (whereof  1 operations are pure point group operations),
 and found     1 'primitive' translations

 
 KPOINTS: mesh auto                               

Automatic generation of k-mesh.
Space group operators:
 irot       det(A)        alpha          n_x          n_y          n_z        tau_x        tau_y        tau_z
    1     1.000000     0.000001     1.000000     0.000000     0.000000     0.000000     0.000000     0.000000
 
 Subroutine IBZKPT returns following result:
 ===========================================
 
 Found      4 irreducible k-points:
 
 Following reciprocal coordinates:
            Coordinates               Weight
  0.000000  0.000000  0.000000      1.000000
  0.500000  0.000000  0.000000      1.000000
  0.000000  0.500000  0.000000      1.000000
  0.500000  0.500000  0.000000      1.000000
 
 Following cartesian coordinates:
            Coordinates               Weight
  0.000000  0.000000  0.000000      1.000000
  0.047348 -0.027337  0.000000      1.000000
  0.000000  0.054673  0.000000      1.000000
  0.047348  0.027337  0.000000      1.000000
 
 TETIRR: Found     12 inequivalent tetrahedra from       24
     LOOP+:  cpu time 1261.8240: real time 1265.2566
    4ORBIT:  cpu time    0.0000: real time    0.0000
 BZINTS: Fermi energy:  1.607056;802.000000 electrons
         Band energy:-601.856244;  BLOECHL correction: -0.329519

 total amount of memory used by VASP MPI-rank0   364382. kBytes
=======================================================================

   base      :      30000. kBytes
   nonlr-proj:      83564. kBytes
   fftplans  :      13995. kBytes
   grid      :     120016. kBytes
   one-center:       2550. kBytes
   wavefun   :     114257. kBytes
 
  
  
 General timing and accounting informations for this job:
 ========================================================
  
                  Total CPU time used (sec):    16693.771
                            User time (sec):    16650.311
                          System time (sec):       43.460
                         Elapsed time (sec):    16740.641
  
                   Maximum memory used (kb):     1335728.
                   Average memory used (kb):           0.
  
                          Minor page faults:      3626316
                          Major page faults:            0
                 Voluntary context switches:         5052
