 vasp.5.4.4.18Apr17-6-g9f103f2a35 (build Oct 25 2019 11:13:22) complex          
  
 executed on             LinuxIFC date 2021.11.08  18:34:29
 running on   48 total cores
 distrk:  each k-point on   48 cores,    1 groups
 distr:  one band on NCORES_PER_BAND=   1 cores,   48 groups


--------------------------------------------------------------------------------------------------------


 INCAR:
 POTCAR:    PAW_PBE Pt 04Feb2005                  
 POTCAR:    PAW_PBE Fe 06Sep2000                  
 POTCAR:    PAW_PBE Co 02Aug2007                  
 POTCAR:    PAW_PBE Cu 22Jun2005                  
 POTCAR:    PAW_PBE Ni 02Aug2007                  
 POTCAR:    PAW_PBE H 15Jun2001                   

 ----------------------------------------------------------------------------- 
|                                                                             |
|           W    W    AA    RRRRR   N    N  II  N    N   GGGG   !!!           |
|           W    W   A  A   R    R  NN   N  II  NN   N  G    G  !!!           |
|           W    W  A    A  R    R  N N  N  II  N N  N  G       !!!           |
|           W WW W  AAAAAA  RRRRR   N  N N  II  N  N N  G  GGG   !            |
|           WW  WW  A    A  R   R   N   NN  II  N   NN  G    G                |
|           W    W  A    A  R    R  N    N  II  N    N   GGGG   !!!           |
|                                                                             |
|      For optimal performance we recommend to set                            |
|        NCORE= 4 - approx SQRT( number of cores)                             |
|      NCORE specifies how many cores store one orbital (NPAR=cpu/NCORE).     |
|      This setting can  greatly improve the performance of VASP for DFT.     |
|      The default,   NCORE=1            might be grossly inefficient         |
|      on modern multi-core architectures or massively parallel machines.     |
|      Do your own testing !!!!                                               |
|      Unfortunately you need to use the default for GW and RPA calculations. |
|      (for HF NCORE is supported but not extensively tested yet)             |
|                                                                             |
 ----------------------------------------------------------------------------- 

 POTCAR:    PAW_PBE Pt 04Feb2005                  
   VRHFIN =Pt: s1d9                                                             
   LEXCH  = PE                                                                  
   EATOM  =   729.1176 eV,   53.5886 Ry                                         
                                                                                
   TITEL  = PAW_PBE Pt 04Feb2005                                                
   LULTRA =        F    use ultrasoft PP ?                                      
   IUNSCR =        1    unscreen: 0-lin 1-nonlin 2-no                           
   RPACOR =    2.330    partial core radius                                     
   POMASS =  195.080; ZVAL   =   10.000    mass and valenz                      
   RCORE  =    2.600    outmost cutoff radius                                   
   RWIGS  =    2.750; RWIGS  =    1.455    wigner-seitz radius (au A)           
   ENMAX  =  230.283; ENMIN  =  172.712 eV                                      
   ICORE  =        3    local potential                                         
   LCOR   =        T    correct aug charges                                     
   LPAW   =        T    paw PP                                                  
   EAUG   =  358.966                                                            
   DEXC   =    0.000                                                            
   RMAX   =    2.658    core radius for proj-oper                               
   RAUG   =    1.300    factor for augmentation sphere                          
   RDEP   =    2.761    radius for radial grids                                 
   RDEPT  =    2.203    core radius for aug-charge                              
                                                                                
   Atomic configuration                                                         
   16 entries                                                                   
     n  l   j            E        occ.                                          
     1  0  0.50    -78401.1885   2.0000                                         
     2  0  0.50    -13770.7750   2.0000                                         
     2  1  1.50    -11931.0468   6.0000                                         
     3  0  0.50     -3234.7234   2.0000                                         
     3  1  1.50     -2699.2216   6.0000                                         
     3  2  2.50     -2119.5714  10.0000                                         
     4  0  0.50      -695.1528   2.0000                                         
     4  1  1.50      -519.6034   6.0000                                         
     4  2  2.50      -306.6786  10.0000                                         
     4  3  3.50       -70.1041  14.0000                                         
     5  0  0.50      -101.7747   2.0000                                         
     5  1  1.50       -55.9873   6.0000                                         
     5  2  2.50        -6.1423   9.0000                                         
     6  0  0.50        -5.6573   1.0000                                         
     6  1  1.50        -6.8029   0.0000                                         
     5  3  2.50        -1.3606   0.0000                                         
   Description                                                                  
     l       E           TYP  RCUT    TYP  RCUT                                 
     2     -6.1423404     23  2.500                                             
     2     -7.5029230     23  2.500                                             
     0     -5.6573207     23  2.500                                             
     0      0.7416693     23  2.500                                             
     1     -2.7211652     23  2.600                                             
     1     20.4087390     23  2.600                                             
     3     -1.3605826     23  2.500                                             
  local pseudopotential read in
  partial core-charges read in
  partial kinetic energy density read in
  atomic valenz-charges read in
  non local Contribution for L=           2  read in
    real space projection operators read in
  non local Contribution for L=           2  read in
    real space projection operators read in
  non local Contribution for L=           0  read in
    real space projection operators read in
  non local Contribution for L=           0  read in
    real space projection operators read in
  non local Contribution for L=           1  read in
    real space projection operators read in
  non local Contribution for L=           1  read in
    real space projection operators read in
    PAW grid and wavefunctions read in
 
   number of l-projection  operators is LMAX  =           6
   number of lm-projection operators is LMMAX =          18
 
 POTCAR:    PAW_PBE Fe 06Sep2000                  
   VRHFIN =Fe:  d7 s1                                                           
   LEXCH  = PE                                                                  
   EATOM  =   594.3153 eV,   43.6809 Ry                                         
                                                                                
   TITEL  = PAW_PBE Fe 06Sep2000                                                
   LULTRA =        F    use ultrasoft PP ?                                      
   IUNSCR =        1    unscreen: 0-lin 1-nonlin 2-no                           
   RPACOR =    2.000    partial core radius                                     
   POMASS =   55.847; ZVAL   =    8.000    mass and valenz                      
   RCORE  =    2.300    outmost cutoff radius                                   
   RWIGS  =    2.460; RWIGS  =    1.302    wigner-seitz radius (au A)           
   ENMAX  =  267.882; ENMIN  =  200.911 eV                                      
   RCLOC  =    1.701    cutoff for local pot                                    
   LCOR   =        T    correct aug charges                                     
   LPAW   =        T    paw PP                                                  
   EAUG   =  511.368                                                            
   DEXC   =    0.000                                                            
   RMAX   =    2.356    core radius for proj-oper                               
   RAUG   =    1.300    factor for augmentation sphere                          
   RDEP   =    2.442    radius for radial grids                                 
   RDEPT  =    1.890    core radius for aug-charge                              
                                                                                
   Atomic configuration                                                         
    9 entries                                                                   
     n  l   j            E        occ.                                          
     1  0  0.50     -6993.8440   2.0000                                         
     2  0  0.50      -814.6047   2.0000                                         
     2  1  1.50      -693.3689   6.0000                                         
     3  0  0.50       -89.4732   2.0000                                         
     3  1  1.50       -55.6373   6.0000                                         
     3  2  2.50        -3.8151   7.0000                                         
     4  0  0.50        -4.2551   1.0000                                         
     4  1  1.50        -3.4015   0.0000                                         
     4  3  2.50        -1.3606   0.0000                                         
   Description                                                                  
     l       E           TYP  RCUT    TYP  RCUT                                 
     2     -3.8151135     23  2.300                                             
     2     -5.1756961     23  2.300                                             
     0     -4.2550963     23  2.300                                             
     0      7.2035603     23  2.300                                             
     1     -2.7211652     23  2.300                                             
     1     18.4316424     23  2.300                                             
  local pseudopotential read in
  partial core-charges read in
  partial kinetic energy density read in
  atomic valenz-charges read in
  non local Contribution for L=           2  read in
    real space projection operators read in
  non local Contribution for L=           2  read in
    real space projection operators read in
  non local Contribution for L=           0  read in
    real space projection operators read in
  non local Contribution for L=           0  read in
    real space projection operators read in
  non local Contribution for L=           1  read in
    real space projection operators read in
  non local Contribution for L=           1  read in
    real space projection operators read in
    PAW grid and wavefunctions read in
 
   number of l-projection  operators is LMAX  =           6
   number of lm-projection operators is LMMAX =          18
 
 POTCAR:    PAW_PBE Co 02Aug2007                  
   VRHFIN =Co: d8 s1                                                            
   LEXCH  = PE                                                                  
   EATOM  =   813.3670 eV,   59.7808 Ry                                         
                                                                                
   TITEL  = PAW_PBE Co 02Aug2007                                                
   LULTRA =        F    use ultrasoft PP ?                                      
   IUNSCR =        1    unscreen: 0-lin 1-nonlin 2-no                           
   RPACOR =    2.000    partial core radius                                     
   POMASS =   58.933; ZVAL   =    9.000    mass and valenz                      
   RCORE  =    2.300    outmost cutoff radius                                   
   RWIGS  =    2.460; RWIGS  =    1.302    wigner-seitz radius (au A)           
   ENMAX  =  267.968; ENMIN  =  200.976 eV                                      
   RCLOC  =    1.203    cutoff for local pot                                    
   LCOR   =        T    correct aug charges                                     
   LPAW   =        T    paw PP                                                  
   EAUG   =  477.818                                                            
   DEXC   =    0.000                                                            
   RMAX   =    2.360    core radius for proj-oper                               
   RAUG   =    1.300    factor for augmentation sphere                          
   RDEP   =    2.393    radius for radial grids                                 
   RDEPT  =    1.864    core radius for aug-charge                              
                                                                                
   Atomic configuration                                                         
    9 entries                                                                   
     n  l   j            E        occ.                                          
     1  0  0.50     -7587.6674   2.0000                                         
     2  0  0.50      -893.6084   2.0000                                         
     2  1  1.50      -764.5805   6.0000                                         
     3  0  0.50       -97.5973   2.0000                                         
     3  1  1.50       -60.9648   6.0000                                         
     3  2  2.50        -4.2382   8.0000                                         
     4  0  0.50        -4.3746   1.0000                                         
     4  1  1.50        -4.0817   0.0000                                         
     4  3  2.50        -1.3606   0.0000                                         
   Description                                                                  
     l       E           TYP  RCUT    TYP  RCUT                                 
     2     -4.2382362     23  2.300                                             
     2     -5.5988188     23  2.300                                             
     0     -4.3745797     23  2.300                                             
     0      5.7660125     23  2.300                                             
     1     -2.7211652     23  2.300                                             
     1     16.9860234     23  2.300                                             
  local pseudopotential read in
  partial core-charges read in
  partial kinetic energy density read in
  atomic valenz-charges read in
  non local Contribution for L=           2  read in
    real space projection operators read in
  non local Contribution for L=           2  read in
    real space projection operators read in
  non local Contribution for L=           0  read in
    real space projection operators read in
  non local Contribution for L=           0  read in
    real space projection operators read in
  non local Contribution for L=           1  read in
    real space projection operators read in
  non local Contribution for L=           1  read in
    real space projection operators read in
    PAW grid and wavefunctions read in
 
   number of l-projection  operators is LMAX  =           6
   number of lm-projection operators is LMMAX =          18
 
 POTCAR:    PAW_PBE Cu 22Jun2005                  
   VRHFIN =Cu: d10 p1                                                           
   LEXCH  = PE                                                                  
   EATOM  =  1390.9808 eV,  102.2342 Ry                                         
                                                                                
   TITEL  = PAW_PBE Cu 22Jun2005                                                
   LULTRA =        F    use ultrasoft PP ?                                      
   IUNSCR =        1    unscreen: 0-lin 1-nonlin 2-no                           
   RPACOR =    2.000    partial core radius                                     
   POMASS =   63.546; ZVAL   =   11.000    mass and valenz                      
   RCORE  =    2.300    outmost cutoff radius                                   
   RWIGS  =    2.200; RWIGS  =    1.164    wigner-seitz radius (au A)           
   ENMAX  =  295.446; ENMIN  =  221.585 eV                                      
   ICORE  =        3    local potential                                         
   LCOR   =        T    correct aug charges                                     
   LPAW   =        T    paw PP                                                  
   EAUG   =  586.980                                                            
   DEXC   =    0.000                                                            
   RMAX   =    2.344    core radius for proj-oper                               
   RAUG   =    1.300    factor for augmentation sphere                          
   RDEP   =    2.302    radius for radial grids                                 
   RDEPT  =    1.771    core radius for aug-charge                              
                                                                                
   Atomic configuration                                                         
    9 entries                                                                   
     n  l   j            E        occ.                                          
     1  0  0.50     -8850.2468   2.0000                                         
     2  0  0.50     -1062.3498   2.0000                                         
     2  1  1.50      -916.8226   6.0000                                         
     3  0  0.50      -114.6929   2.0000                                         
     3  1  1.50       -72.1325   6.0000                                         
     3  2  2.50        -5.0394  10.0000                                         
     4  0  0.50        -4.6097   1.0000                                         
     4  1  0.50        -4.0817   0.0000                                         
     4  3  2.50        -1.3606   0.0000                                         
   Description                                                                  
     l       E           TYP  RCUT    TYP  RCUT                                 
     2     -5.0393973     23  2.200                                             
     2     10.8846608     23  2.200                                             
     0     -4.6097109     23  2.200                                             
     0      8.2520465     23  2.200                                             
     1     -2.7211652     23  2.200                                             
     1     21.7055443     23  2.200                                             
     3      2.7211652     23  2.300                                             
  local pseudopotential read in
  partial core-charges read in
  partial kinetic energy density read in
  atomic valenz-charges read in
  non local Contribution for L=           2  read in
    real space projection operators read in
  non local Contribution for L=           2  read in
    real space projection operators read in
  non local Contribution for L=           0  read in
    real space projection operators read in
  non local Contribution for L=           0  read in
    real space projection operators read in
  non local Contribution for L=           1  read in
    real space projection operators read in
  non local Contribution for L=           1  read in
    real space projection operators read in
    PAW grid and wavefunctions read in
 
   number of l-projection  operators is LMAX  =           6
   number of lm-projection operators is LMMAX =          18
 
 POTCAR:    PAW_PBE Ni 02Aug2007                  
   VRHFIN =Ni:                                                                  
   LEXCH  = PE                                                                  
   EATOM  =  1077.6739 eV,   79.2068 Ry                                         
                                                                                
   TITEL  = PAW_PBE Ni 02Aug2007                                                
   LULTRA =        F    use ultrasoft PP ?                                      
   IUNSCR =        1    unscreen: 0-lin 1-nonlin 2-no                           
   RPACOR =    2.000    partial core radius                                     
   POMASS =   58.690; ZVAL   =   10.000    mass and valenz                      
   RCORE  =    2.300    outmost cutoff radius                                   
   RWIGS  =    2.430; RWIGS  =    1.286    wigner-seitz radius (au A)           
   ENMAX  =  269.532; ENMIN  =  202.149 eV                                      
   RCLOC  =    1.201    cutoff for local pot                                    
   LCOR   =        T    correct aug charges                                     
   LPAW   =        T    paw PP                                                  
   EAUG   =  544.565                                                            
   DEXC   =    0.000                                                            
   RMAX   =    2.357    core radius for proj-oper                               
   RAUG   =    1.300    factor for augmentation sphere                          
   RDEP   =    2.390    radius for radial grids                                 
   RDEPT  =    1.838    core radius for aug-charge                              
                                                                                
   Atomic configuration                                                         
    9 entries                                                                   
     n  l   j            E        occ.                                          
     1  0  0.50     -8206.4253   2.0000                                         
     2  0  0.50      -976.1748   2.0000                                         
     2  1  1.50      -839.0571   6.0000                                         
     3  0  0.50      -105.9991   2.0000                                         
     3  1  1.50       -66.4603   6.0000                                         
     3  2  2.50        -4.6458   9.0000                                         
     4  0  0.50        -4.4926   1.0000                                         
     4  1  1.50        -4.0817   0.0000                                         
     4  3  2.50        -1.3606   0.0000                                         
   Description                                                                  
     l       E           TYP  RCUT    TYP  RCUT                                 
     2     -4.6457903     23  2.300                                             
     2     -6.0063729     23  2.300                                             
     0     -4.4925590     23  2.300                                             
     0      5.0102601     23  2.300                                             
     1     -2.7211652     23  2.300                                             
     1     16.5183231     23  2.300                                             
  local pseudopotential read in
  partial core-charges read in
  partial kinetic energy density read in
  atomic valenz-charges read in
  non local Contribution for L=           2  read in
    real space projection operators read in
  non local Contribution for L=           2  read in
    real space projection operators read in
  non local Contribution for L=           0  read in
    real space projection operators read in
  non local Contribution for L=           0  read in
    real space projection operators read in
  non local Contribution for L=           1  read in
    real space projection operators read in
  non local Contribution for L=           1  read in
    real space projection operators read in
    PAW grid and wavefunctions read in
 
   number of l-projection  operators is LMAX  =           6
   number of lm-projection operators is LMMAX =          18
 
 POTCAR:    PAW_PBE H 15Jun2001                   
   VRHFIN =H: ultrasoft test                                                    
   LEXCH  = PE                                                                  
   EATOM  =    12.4884 eV,    0.9179 Ry                                         
                                                                                
   TITEL  = PAW_PBE H 15Jun2001                                                 
   LULTRA =        F    use ultrasoft PP ?                                      
   IUNSCR =        0    unscreen: 0-lin 1-nonlin 2-no                           
   RPACOR =    0.000    partial core radius                                     
   POMASS =    1.000; ZVAL   =    1.000    mass and valenz                      
   RCORE  =    1.100    outmost cutoff radius                                   
   RWIGS  =    0.700; RWIGS  =    0.370    wigner-seitz radius (au A)           
   ENMAX  =  250.000; ENMIN  =  200.000 eV                                      
   RCLOC  =    0.701    cutoff for local pot                                    
   LCOR   =        T    correct aug charges                                     
   LPAW   =        T    paw PP                                                  
   EAUG   =  400.000                                                            
   RMAX   =    1.123    core radius for proj-oper                               
   RAUG   =    1.200    factor for augmentation sphere                          
   RDEP   =    1.112    radius for radial grids                                 
   RDEPT  =    0.926    core radius for aug-charge                              
                                                                                
   Atomic configuration                                                         
    2 entries                                                                   
     n  l   j            E        occ.                                          
     1  0  0.50        -6.4927   1.0000                                         
     2  1  0.50        -3.4015   0.0000                                         
   Description                                                                  
     l       E           TYP  RCUT    TYP  RCUT                                 
     0     -6.4927494     23  1.100                                             
     0      6.8029130     23  1.100                                             
     1     -4.0817478     23  1.100                                             
  local pseudopotential read in
  atomic valenz-charges read in
  non local Contribution for L=           0  read in
    real space projection operators read in
  non local Contribution for L=           0  read in
    real space projection operators read in
  non local Contribution for L=           1  read in
    real space projection operators read in
    PAW grid and wavefunctions read in
 
   number of l-projection  operators is LMAX  =           3
   number of lm-projection operators is LMMAX =           5
 
 Optimization of the real space projectors (new method)

 maximal supplied QI-value         = 14.36
 optimisation between [QCUT,QGAM] = [ 11.92, 23.98] = [ 39.79,161.09] Ry 
 Optimized for a Real-space Cutoff    1.49 Angstroem

   l    n(q)    QCUT    max X(q) W(low)/X(q) W(high)/X(q)  e(spline) 
   2     10    11.920    66.195    0.79E-04    0.18E-03    0.24E-06
   2     10    11.920    64.643    0.81E-04    0.19E-03    0.24E-06
   0     11    11.920    95.520    0.28E-04    0.54E-04    0.18E-06
   0     11    11.920    63.403    0.27E-04    0.52E-04    0.17E-06
   1     10    11.920    19.961    0.18E-04    0.11E-03    0.23E-06
   1     10    11.920    13.289    0.25E-04    0.87E-04    0.19E-06
 Optimization of the real space projectors (new method)

 maximal supplied QI-value         = 16.25
 optimisation between [QCUT,QGAM] = [ 11.86, 23.89] = [ 39.41,159.82] Ry 
 Optimized for a Real-space Cutoff    1.49 Angstroem

   l    n(q)    QCUT    max X(q) W(low)/X(q) W(high)/X(q)  e(spline) 
   2     10    11.864    80.901    0.13E-03    0.23E-03    0.37E-06
   2     10    11.864    75.754    0.13E-03    0.23E-03    0.38E-06
   0     11    11.864    58.752    0.44E-04    0.11E-04    0.20E-06
   0     11    11.864    30.679    0.36E-04    0.10E-04    0.18E-06
   1     10    11.864    17.977    0.31E-04    0.45E-04    0.10E-06
   1     10    11.864    13.559    0.25E-04    0.37E-04    0.89E-07
 Optimization of the real space projectors (new method)

 maximal supplied QI-value         = 16.25
 optimisation between [QCUT,QGAM] = [ 11.86, 23.89] = [ 39.41,159.82] Ry 
 Optimized for a Real-space Cutoff    1.33 Angstroem

   l    n(q)    QCUT    max X(q) W(low)/X(q) W(high)/X(q)  e(spline) 
   2      9    11.864    65.824    0.22E-03    0.53E-03    0.26E-06
   2      9    11.864    61.429    0.22E-03    0.53E-03    0.26E-06
   0      9    11.864    56.174    0.21E-03    0.32E-04    0.15E-06
   0      9    11.864    31.263    0.19E-03    0.30E-04    0.14E-06
   1      9    11.864    19.828    0.63E-04    0.30E-03    0.16E-06
   1      9    11.864    15.139    0.49E-04    0.25E-03    0.13E-06
 Optimization of the real space projectors (new method)

 maximal supplied QI-value         = 16.25
 optimisation between [QCUT,QGAM] = [ 11.86, 23.89] = [ 39.41,159.82] Ry 
 Optimized for a Real-space Cutoff    1.49 Angstroem

   l    n(q)    QCUT    max X(q) W(low)/X(q) W(high)/X(q)  e(spline) 
   2     10    11.864     4.610    0.10E-03    0.20E-03    0.29E-06
   2     10    11.864     8.522    0.17E-03    0.33E-03    0.50E-06
   0     11    11.864    51.609    0.52E-04    0.55E-04    0.33E-06
   0     11    11.864    27.747    0.46E-04    0.52E-04    0.31E-06
   1     10    11.864    20.408    0.54E-04    0.25E-04    0.21E-06
   1     10    11.864    13.425    0.48E-04    0.22E-04    0.18E-06
 Optimization of the real space projectors (new method)

 maximal supplied QI-value         = 16.25
 optimisation between [QCUT,QGAM] = [ 11.86, 23.89] = [ 39.41,159.82] Ry 
 Optimized for a Real-space Cutoff    1.33 Angstroem

   l    n(q)    QCUT    max X(q) W(low)/X(q) W(high)/X(q)  e(spline) 
   2      9    11.864    60.317    0.21E-03    0.51E-03    0.25E-06
   2      9    11.864    55.921    0.21E-03    0.51E-03    0.26E-06
   0      9    11.864    51.690    0.22E-03    0.30E-04    0.17E-06
   0      9    11.864    30.015    0.20E-03    0.28E-04    0.15E-06
   1      9    11.864    18.849    0.76E-04    0.33E-03    0.17E-06
   1      9    11.864    14.624    0.60E-04    0.28E-03    0.15E-06
 Optimization of the real space projectors (new method)

 maximal supplied QI-value         = 34.20
 optimisation between [QCUT,QGAM] = [ 11.97, 23.94] = [ 40.13,160.53] Ry 
 Optimized for a Real-space Cutoff    1.18 Angstroem

   l    n(q)    QCUT    max X(q) W(low)/X(q) W(high)/X(q)  e(spline) 
   0      8    11.971    19.460    0.15E-03    0.31E-03    0.25E-06
   0      8    11.971    12.209    0.13E-03    0.29E-03    0.25E-06
   1      8    11.971     4.655    0.22E-03    0.24E-03    0.21E-06
  PAW_PBE Pt 04Feb2005                  :
 energy of atom  1       EATOM= -729.1176
 kinetic energy error for atom=    0.0021 (will be added to EATOM!!)
  PAW_PBE Fe 06Sep2000                  :
 energy of atom  2       EATOM= -594.3153
 kinetic energy error for atom=    0.0024 (will be added to EATOM!!)
  PAW_PBE Co 02Aug2007                  :
 energy of atom  3       EATOM= -813.3670
 kinetic energy error for atom=    0.0026 (will be added to EATOM!!)
  PAW_PBE Cu 22Jun2005                  :
 energy of atom  4       EATOM=-1390.9808
 kinetic energy error for atom=    0.0036 (will be added to EATOM!!)
  PAW_PBE Ni 02Aug2007                  :
 energy of atom  5       EATOM=-1077.6739
 kinetic energy error for atom=    0.0027 (will be added to EATOM!!)
  PAW_PBE H 15Jun2001                   :
 energy of atom  6       EATOM=  -12.4884
 kinetic energy error for atom=    0.0008 (will be added to EATOM!!)
 
 
 POSCAR: 10.46-high                              
  positions in cartesian coordinates
  No initial velocities read in
 exchange correlation table for  LEXCH =        8
   RHO(1)=    0.500       N(1)  =     2000
   RHO(2)=  100.500       N(2)  =     4000
 


--------------------------------------------------------------------------------------------------------


 ion  position               nearest neighbor table
   1  0.778  0.868  0.323-  23 2.58  65 2.61  33 2.62   3 2.64  32 2.69  56 2.69  41 2.69   2 2.73
                            15 2.77  40 2.86  16 2.88   8 2.94
   2  0.040  0.867  0.326-  34 2.59  26 2.60  58 2.62   3 2.63  41 2.68  38 2.69   1 2.73  32 2.76
                            10 2.77  79 2.79   8 2.80  20 3.12
   3  0.034  0.618  0.326-   6 2.62   2 2.63   1 2.64   4 2.64  50 2.67  34 2.70  32 2.70  33 2.71
                            68 2.73   9 2.77  16 2.83  20 3.21
   4  0.030  0.367  0.326-  77 2.58  26 2.60   3 2.64  33 2.66  50 2.68   6 2.70   5 2.71  36 2.74
                            11 2.80  42 2.82   9 2.87  14 2.92
   5  0.289  0.108  0.324-  58 2.53  65 2.55  61 2.60  26 2.61  23 2.62   4 2.71   6 2.73  39 2.74
                            36 2.74  12 2.75  17 2.89  14 2.97
   6  0.287  0.369  0.324-  23 2.62   3 2.62  22 2.65  34 2.65  68 2.68   4 2.70  71 2.70  36 2.71
                             5 2.73  17 2.80   9 2.82  29 3.12
   7  0.865  0.705  0.122-  43 2.51  74 2.52  60 2.55  55 2.56  45 2.63  56 2.63  69 2.65  64 2.66
                            72 2.66  32 2.67  25 2.69  50 2.75
   8  0.875  0.953  0.434-  16 2.60  20 2.61  15 2.62  10 2.62  13 2.64  21 2.65   2 2.80  41 2.93
                             1 2.94
   9  0.123  0.456  0.433-  16 2.62  11 2.62  17 2.63  14 2.64  29 2.66  20 2.67   3 2.77   6 2.82
                             4 2.87
  10  0.124  0.956  0.430-  18 2.61  12 2.61  14 2.61   8 2.62  13 2.62  20 2.64   2 2.77  26 2.83
                            58 2.85
  11  0.873  0.455  0.435-  19 2.59  13 2.61  31 2.62   9 2.62  14 2.62  16 2.63   4 2.80  33 2.89
                            77 2.97
  12  0.374  0.954  0.432-  18 2.58  31 2.61  10 2.61  15 2.62  17 2.62  14 2.63   5 2.75  65 2.79
                            58 2.91
  13  0.873  0.206  0.426-  19 2.61  11 2.61  21 2.62  10 2.62  14 2.63   8 2.64  77 2.76  26 2.78
                            41 2.82
  14  0.123  0.205  0.440-  10 2.61  11 2.62  12 2.63  13 2.63  17 2.63   9 2.64   4 2.92   5 2.97
                            26 3.10
  15  0.624  0.955  0.432-  16 2.60  17 2.61  31 2.61   8 2.62  12 2.62  21 2.63   1 2.77  23 2.84
                            65 2.92
  16  0.872  0.706  0.436-   8 2.60  15 2.60  31 2.61   9 2.62  11 2.63  20 2.65   3 2.83   1 2.88
                            33 3.01
  17  0.374  0.205  0.431-  21 2.61  15 2.61  12 2.62   9 2.63  14 2.63  29 2.66   6 2.80  23 2.82
                             5 2.89
  18  0.375  0.708  0.427-  12 2.58  31 2.59  10 2.61  19 2.62  29 2.66  51 2.68  20 2.69  34 2.73
                            58 2.74
  19  0.625  0.457  0.427-  11 2.59  31 2.60  13 2.61  18 2.62  21 2.63  29 2.65  51 2.71  77 2.73
                            22 2.75
  20  0.123  0.708  0.452-  81 1.75   8 2.61  29 2.64  10 2.64  16 2.65   9 2.67  18 2.69   2 3.12
                            34 3.18   3 3.21
  21  0.622  0.207  0.433-  17 2.61  29 2.61  13 2.62  15 2.63  19 2.63   8 2.65  22 2.84  41 2.88
                            23 2.92
  22  0.537  0.374  0.323-  77 2.54  51 2.57  34 2.59  41 2.61   6 2.65  30 2.67  70 2.70  23 2.70
                            19 2.75  71 2.77  21 2.84  29 3.07
  23  0.535  0.117  0.322-   1 2.58   6 2.62   5 2.62  41 2.64  65 2.68  22 2.70  71 2.71  40 2.76
                            39 2.77  17 2.82  15 2.84  21 2.92
  24  0.539  0.118  0.032-  63 2.57  46 2.57  55 2.58  66 2.61  43 2.64  52 2.64  54 2.65  62 2.68
                            67 2.68
  25  0.123  0.448  0.123-  54 2.50  48 2.52  73 2.58  63 2.59  45 2.60  76 2.63  64 2.63  36 2.65
                            68 2.66  72 2.67   7 2.69  50 2.77
  26  0.035  0.117  0.319-  61 2.57   2 2.60   4 2.60  41 2.60   5 2.61  79 2.65  58 2.66  77 2.66
                            42 2.68  13 2.78  10 2.83  14 3.10
  27  0.033  0.126  0.027-  48 2.58  78 2.61  52 2.61  73 2.61  66 2.61  49 2.62  28 2.64  59 2.70
                            44 2.70
  28  0.114  0.959  0.126-  79 2.57  73 2.59  44 2.60  69 2.61  59 2.62  49 2.63  47 2.63  38 2.64
                            27 2.64  61 2.66  64 2.67  35 2.74
  29  0.375  0.456  0.446-  81 1.75  21 2.61  20 2.64  19 2.65  17 2.66   9 2.66  18 2.66  34 3.05
                            22 3.07   6 3.12
  30  0.454  0.529  0.220-  71 2.56  70 2.57  76 2.60  68 2.61  57 2.62  35 2.65  37 2.65  80 2.66
                            22 2.67  38 2.69  34 2.74  51 2.77
  31  0.623  0.706  0.436-  18 2.59  19 2.60  12 2.61  16 2.61  15 2.61  11 2.62  33 2.83  65 2.86
                            51 2.92
  32  0.949  0.783  0.224-  50 2.58  56 2.60  68 2.62  64 2.65  79 2.66   7 2.67   1 2.69  40 2.69
                            38 2.70   3 2.70  69 2.74   2 2.76
  33  0.774  0.619  0.323-  51 2.50  65 2.54  77 2.55   1 2.62  50 2.65   4 2.66  37 2.66   3 2.71
                            56 2.72  31 2.83  11 2.89  16 3.01
  34  0.290  0.621  0.325-  51 2.55  58 2.55  22 2.59   2 2.59   6 2.65   3 2.70  38 2.71  18 2.73
                            30 2.74  68 2.75  29 3.05  20 3.18
  35  0.378  0.700  0.123-  53 2.48  59 2.53  75 2.54  60 2.57  57 2.59  47 2.60  30 2.65  64 2.68
                            76 2.68  80 2.70  38 2.73  28 2.74
  36  0.199  0.285  0.223-  73 2.61  71 2.61  61 2.62  50 2.63  63 2.63  68 2.63  25 2.65  42 2.65
                            39 2.69   6 2.71   4 2.74   5 2.74
  37  0.699  0.545  0.219-  56 2.52  80 2.54  60 2.55  50 2.57  72 2.60  57 2.61  30 2.65  33 2.66
                            42 2.68  70 2.69  77 2.74  51 2.75
  38  0.202  0.792  0.224-  61 2.52  58 2.58  80 2.58  79 2.62  28 2.64  64 2.66  68 2.69  30 2.69
                             2 2.69  32 2.70  34 2.71  35 2.73
  39  0.451  0.023  0.219-  80 2.50  61 2.53  47 2.53  56 2.54  55 2.55  63 2.60  40 2.68  36 2.69
                            65 2.71   5 2.74  71 2.75  23 2.77
  40  0.696  0.043  0.215-  46 2.54  69 2.56  70 2.57  71 2.59  55 2.59  79 2.61  56 2.68  39 2.68
                            32 2.69  41 2.75  23 2.76   1 2.86
  41  0.784  0.122  0.320-  26 2.60  77 2.60  22 2.61  23 2.64  70 2.64  79 2.64   2 2.68   1 2.69
                            40 2.75  13 2.82  21 2.88   8 2.93
  42  0.947  0.281  0.218-  49 2.52  79 2.55  70 2.55  72 2.57  73 2.62  36 2.65  61 2.67  50 2.68
                            26 2.68  37 2.68  77 2.72   4 2.82
  43  0.789  0.864  0.029-   7 2.51  69 2.56  45 2.62  67 2.63  24 2.64  55 2.64  74 2.65  66 2.67
                            44 2.67
  44  0.045  0.863  0.030-  75 2.54  45 2.58  64 2.58  28 2.60  59 2.60  69 2.61  43 2.67  66 2.70
                            27 2.70
  45  0.042  0.618  0.028-  75 2.52  54 2.57  44 2.58  25 2.60  64 2.61  43 2.62  48 2.62   7 2.63
                            74 2.72
  46  0.618  0.214  0.124-  76 2.47  57 2.50  40 2.54  49 2.54  62 2.55  70 2.55  24 2.57  71 2.62
                            66 2.63  69 2.64  63 2.64  55 2.85
  47  0.369  0.952  0.123-  52 2.46  59 2.49  55 2.52  39 2.53  67 2.56  73 2.60  35 2.60  60 2.60
                            63 2.62  28 2.63  61 2.71  80 2.74
  48  0.025  0.377  0.032-  72 2.47  74 2.50  25 2.52  78 2.55  73 2.57  27 2.58  45 2.62  52 2.75
                            54 2.76
  49  0.863  0.211  0.123-  78 2.46  57 2.51  72 2.52  42 2.52  46 2.54  66 2.59  70 2.60  27 2.62
                            28 2.63  69 2.63  79 2.65  73 2.68
  50  0.948  0.537  0.226-  37 2.57  32 2.58  56 2.61  36 2.63  68 2.65  33 2.65   3 2.67   4 2.68
                            42 2.68  72 2.71   7 2.75  25 2.77
  51  0.533  0.622  0.324-  33 2.50  65 2.51  58 2.54  34 2.55  22 2.57  77 2.60  80 2.61  18 2.68
                            19 2.71  37 2.75  30 2.77  31 2.92
  52  0.288  0.114  0.033-  47 2.46  73 2.51  59 2.56  63 2.58  27 2.61  67 2.62  24 2.64  54 2.74
                            48 2.75
  53  0.550  0.613  0.036-  57 2.44  60 2.45  74 2.45  78 2.47  35 2.48  67 2.55  62 2.57  59 2.70
                            75 2.77
  54  0.290  0.375  0.032-  76 2.45  75 2.49  25 2.50  45 2.57  62 2.58  63 2.60  24 2.65  52 2.74
                            48 2.76
  55  0.614  0.943  0.125-  60 2.45  47 2.52  67 2.53  39 2.55  56 2.55   7 2.56  24 2.58  40 2.59
                            63 2.62  43 2.64  69 2.70  46 2.85
  56  0.699  0.786  0.221-  37 2.52  39 2.54  55 2.55  60 2.56  80 2.59  32 2.60  50 2.61   7 2.63
                            40 2.68   1 2.69  33 2.72  65 2.72
  57  0.623  0.450  0.124-  53 2.44  78 2.46  46 2.50  49 2.51  62 2.54  72 2.55  35 2.59  70 2.60
                            37 2.61  76 2.61  30 2.62  60 2.66
  58  0.291  0.865  0.320-  65 2.51   5 2.53  80 2.53  51 2.54  34 2.55  61 2.56  38 2.58   2 2.62
                            26 2.66  18 2.74  10 2.85  12 2.91
  59  0.291  0.868  0.031-  47 2.49  35 2.53  52 2.56  67 2.56  44 2.60  28 2.62  75 2.68  53 2.70
                            27 2.70
  60  0.620  0.706  0.124-  55 2.45  53 2.45  74 2.51  67 2.52  37 2.55   7 2.55  56 2.56  35 2.57
                            47 2.60  72 2.64  57 2.66  80 2.71
  61  0.206  0.031  0.226-  38 2.52  39 2.53  58 2.56  26 2.57  80 2.58   5 2.60  36 2.62  28 2.66
                            79 2.66  42 2.67  47 2.71  73 2.73
  62  0.536  0.375  0.030-  76 2.52  57 2.54  46 2.55  53 2.57  78 2.57  54 2.58  75 2.59  66 2.64
                            24 2.68
  63  0.372  0.201  0.127-  71 2.54  24 2.57  76 2.57  52 2.58  25 2.59  39 2.60  73 2.60  54 2.60
                            55 2.62  47 2.62  36 2.63  46 2.64
  64  0.122  0.700  0.126-  75 2.51  44 2.58  68 2.60  45 2.61  25 2.63  32 2.65  38 2.66   7 2.66
                            28 2.67  76 2.67  35 2.68  69 2.69
  65  0.531  0.862  0.323-  58 2.51  51 2.51  33 2.54   5 2.55  80 2.56   1 2.61  23 2.68  39 2.71
                            56 2.72  12 2.79  31 2.86  15 2.92
  66  0.787  0.121  0.027-  69 2.55  49 2.59  27 2.61  24 2.61  78 2.62  46 2.63  62 2.64  43 2.67
                            44 2.70
  67  0.538  0.862  0.029-  60 2.52  55 2.53  53 2.55  59 2.56  47 2.56  74 2.59  52 2.62  43 2.63
                            24 2.68
  68  0.202  0.535  0.223-  71 2.58  64 2.60  30 2.61  32 2.62  36 2.63  50 2.65  25 2.66   6 2.68
                            38 2.69  76 2.71   3 2.73  34 2.75
  69  0.865  0.958  0.122-  66 2.55  40 2.56  43 2.56  44 2.61  28 2.61  79 2.62  49 2.63  46 2.64
                             7 2.65  64 2.69  55 2.70  32 2.74
  70  0.701  0.286  0.221-  42 2.55  46 2.55  30 2.57  40 2.57  79 2.59  49 2.60  57 2.60  41 2.64
                            71 2.65  77 2.67  37 2.69  22 2.70
  71  0.447  0.288  0.221-  63 2.54  30 2.56  76 2.58  68 2.58  40 2.59  36 2.61  46 2.62  70 2.65
                             6 2.70  23 2.71  39 2.75  22 2.77
  72  0.868  0.449  0.124-  78 2.47  48 2.47  74 2.51  49 2.52  57 2.55  42 2.57  37 2.60  73 2.63
                            60 2.64   7 2.66  25 2.67  50 2.71
  73  0.123  0.202  0.124-  52 2.51  48 2.57  25 2.58  28 2.59  47 2.60  63 2.60  36 2.61  27 2.61
                            42 2.62  72 2.63  49 2.68  61 2.73
  74  0.784  0.614  0.032-  53 2.45  48 2.50  60 2.51  72 2.51   7 2.52  78 2.53  67 2.59  43 2.65
                            45 2.72
  75  0.284  0.616  0.034-  54 2.49  76 2.51  64 2.51  45 2.52  35 2.54  44 2.54  62 2.59  59 2.68
                            53 2.77
  76  0.376  0.444  0.123-  54 2.45  46 2.47  75 2.51  62 2.52  63 2.57  71 2.58  30 2.60  57 2.61
                            25 2.63  64 2.67  35 2.68  68 2.71
  77  0.781  0.372  0.321-  22 2.54  33 2.55   4 2.58  41 2.60  51 2.60  26 2.66  70 2.67  42 2.72
                            19 2.73  37 2.74  13 2.76  11 2.97
  78  0.783  0.373  0.034-  57 2.46  49 2.46  72 2.47  53 2.47  74 2.53  48 2.55  62 2.57  27 2.61
                            66 2.62
  79  0.948  0.038  0.221-  42 2.55  28 2.57  70 2.59  40 2.61  38 2.62  69 2.62  41 2.64  26 2.65
                            49 2.65  32 2.66  61 2.66   2 2.79
  80  0.452  0.784  0.226-  39 2.50  58 2.53  37 2.54  65 2.56  38 2.58  61 2.58  56 2.59  51 2.61
                            30 2.66  35 2.70  60 2.71  47 2.74
  81  0.256  0.578  0.501-  20 1.75  29 1.75
 
  LATTYP: Found a hexagonal cell.
 ALAT       =    10.4600000381
 C/A-ratio  =     2.1032504704
  
  Lattice vectors:
  
 A1 = (   5.2300000190,  -9.0586257566,   0.0000000000)
 A2 = ( -10.4600000381,   0.0000000000,   0.0000000000)
 A3 = (   0.0000000000,   0.0000000000, -22.0000000000)


Analysis of symmetry for initial positions (statically):
=====================================================================
 Subroutine PRICEL returns:
 Original cell was already a primitive cell.
 

 Routine SETGRP: Setting up the symmetry group for a 
 hexagonal supercell.


 Subroutine GETGRP returns: Found  1 space group operations
 (whereof  1 operations were pure point group operations)
 out of a pool of 24 trial point group operations.


The static configuration has the point symmetry C_1 .


Analysis of symmetry for dynamics (positions and initial velocities):
=====================================================================
 Subroutine PRICEL returns:
 Original cell was already a primitive cell.
 

 Routine SETGRP: Setting up the symmetry group for a 
 hexagonal supercell.


 Subroutine GETGRP returns: Found  1 space group operations
 (whereof  1 operations were pure point group operations)
 out of a pool of 24 trial point group operations.


The dynamic configuration has the point symmetry C_1 .


Analysis of constrained symmetry for selective dynamics:
=====================================================================
 Subroutine PRICEL returns:
 Original cell was already a primitive cell.
 

 Routine SETGRP: Setting up the symmetry group for a 
 hexagonal supercell.


 Subroutine GETGRP returns: Found  1 space group operations
 (whereof  1 operations were pure point group operations)
 out of a pool of 24 trial point group operations.


The constrained configuration has the point symmetry C_1 .


Analysis of structural, dynamic, and magnetic symmetry:
=====================================================================
 Subroutine PRICEL returns:
 Original cell was already a primitive cell.
 

 Routine SETGRP: Setting up the symmetry group for a 
 hexagonal supercell.


 Subroutine GETGRP returns: Found  1 space group operations
 (whereof  1 operations were pure point group operations)
 out of a pool of 24 trial point group operations.


The magnetic configuration has the point symmetry C_1 .


 Subroutine INISYM returns: Found  1 space group operations
 (whereof  1 operations are pure point group operations),
 and found     1 'primitive' translations

 
 
 KPOINTS: mesh auto                               

Automatic generation of k-mesh.
Space group operators:
 irot       det(A)        alpha          n_x          n_y          n_z        tau_x        tau_y        tau_z
    1     1.000000     0.000000     1.000000     0.000000     0.000000     0.000000     0.000000     0.000000
 
 Subroutine IBZKPT returns following result:
 ===========================================
 
 Found      4 irreducible k-points:
 
 Following reciprocal coordinates:
            Coordinates               Weight
  0.000000  0.000000  0.000000      1.000000
  0.500000 -0.000000  0.000000      1.000000
  0.000000  0.500000  0.000000      1.000000
  0.500000  0.500000  0.000000      1.000000
 
 Following cartesian coordinates:
            Coordinates               Weight
  0.000000  0.000000  0.000000      1.000000
  0.047801 -0.027598  0.000000      1.000000
  0.000000  0.055196  0.000000      1.000000
  0.047801  0.027598  0.000000      1.000000
 
 TETIRR: Found     12 inequivalent tetrahedra from       24
 
 Subroutine IBZKPT_HF returns following result:
 ==============================================
 
 Found      4 k-points in 1st BZ
 the following      4 k-points will be used (e.g. in the exchange kernel)
 Following reciprocal coordinates:   # in IRBZ
  0.000000  0.000000  0.000000    0.25000000   1 t-inv F
  0.500000 -0.000000  0.000000    0.25000000   2 t-inv F
  0.000000  0.500000  0.000000    0.25000000   3 t-inv F
  0.500000  0.500000  0.000000    0.25000000   4 t-inv F


--------------------------------------------------------------------------------------------------------




 Dimension of arrays:
   k-points           NKPTS =      4   k-points in BZ     NKDIM =      4   number of bands    NBANDS=    624
   number of dos      NEDOS =    301   number of ions     NIONS =     81
   non local maximal  LDIM  =      6   non local SUM 2l+1 LMDIM =     18
   total plane-waves  NPLWV = ******
   max r-space proj   IRMAX =   7217   max aug-charges    IRDMAX=  31436
   dimension x,y,z NGX =    80 NGY =   80 NGZ =  168
   dimension x,y,z NGXF=   160 NGYF=  160 NGZF=  336
   support grid    NGXF=   160 NGYF=  160 NGZF=  336
   ions per type =              42  10   9  10   9   1
   NGX,Y,Z   is equivalent  to a cutoff of  12.71, 12.71, 12.70 a.u.
   NGXF,Y,Z  is equivalent  to a cutoff of  25.43, 25.43, 25.39 a.u.

 SYSTEM =  Pt111                                   
 POSCAR =  10.46-high                              

 Startparameter for this run:
   NWRITE =      2    write-flag & timer
   PREC   = accura    normal or accurate (medium, high low for compatibility)
   ISTART =      0    job   : 0-new  1-cont  2-samecut
   ICHARG =      2    charge: 1-file 2-atom 10-const
   ISPIN  =      2    spin polarized calculation?
   LNONCOLLINEAR =      F non collinear calculations
   LSORBIT =      F    spin-orbit coupling
   INIWAV =      1    electr: 0-lowe 1-rand  2-diag
   LASPH  =      F    aspherical Exc in radial PAW
   METAGGA=      F    non-selfconsistent MetaGGA calc.

 Electronic Relaxation 1
   ENCUT  =  550.0 eV  40.42 Ry    6.36 a.u.  20.00 20.00 42.07*2*pi/ulx,y,z
   ENINI  =  550.0     initial cutoff
   ENAUG  =  587.0 eV  augmentation charge cutoff
   NELM   =    200;   NELMIN=  2; NELMDL= -5     # of ELM steps 
   EDIFF  = 0.1E-04   stopping-criterion for ELM
   LREAL  =      T    real-space projection
   NLSPLINE    = F    spline interpolate recip. space projectors
   LCOMPAT=      F    compatible to vasp.4.4
   GGA_COMPAT  = T    GGA compatible to vasp.4.4-vasp.4.6
   LMAXPAW     = -100 max onsite density
   LMAXMIX     =    2 max onsite mixed and CHGCAR
   VOSKOWN=      0    Vosko Wilk Nusair interpolation
   ROPT   =   -0.00025  -0.00025  -0.00025  -0.00025
   ROPT   =   -0.00025  -0.00025
 Ionic relaxation
   EDIFFG = -.5E-01   stopping-criterion for IOM
   NSW    =   1009    number of steps for IOM
   NBLOCK =      1;   KBLOCK =   1009    inner block; outer block 
   IBRION =      5    ionic relax: 0-MD 1-quasi-New 2-CG
   NFREE  =      2    steps in history (QN), initial steepest desc. (CG)
   ISIF   =      2    stress and relaxation
   IWAVPR =     11    prediction:  0-non 1-charg 2-wave 3-comb
   ISYM   =      2    0-nonsym 1-usesym 2-fastsym
   LCORR  =      T    Harris-Foulkes like correction to forces

   POTIM  = 0.5000    time-step for ionic-motion
   TEIN   =    0.0    initial temperature
   TEBEG  =    0.0;   TEEND  =   0.0 temperature during run
   SMASS  =  -3.00    Nose mass-parameter (am)
   estimated Nose-frequenzy (Omega)   =  0.10E-29 period in steps =****** mass=  -0.250E-26a.u.
   SCALEE = 1.0000    scale energy and forces
   NPACO  =    256;   APACO  = 16.0  distance and # of slots for P.C.
   PSTRESS=    0.0 pullay stress

  Mass of Ions in am
   POMASS = 195.08 55.85 58.93 63.55 58.69  1.00
  Ionic Valenz
   ZVAL   =  10.00  8.00  9.00 11.00 10.00  1.00
  Atomic Wigner-Seitz radii
   RWIGS  =  -1.00 -1.00 -1.00 -1.00 -1.00 -1.00
  virtual crystal weights 
   VCA    =   1.00  1.00  1.00  1.00  1.00  1.00
   NELECT =     782.0000    total number of electrons
   NUPDOWN=      -1.0000    fix difference up-down

 DOS related values:
   EMIN   =  10.00;   EMAX   =-10.00  energy-range for DOS
   EFERMI =   0.00
   ISMEAR =    -5;   SIGMA  =   0.10  broadening in eV -4-tet -1-fermi 0-gaus

 Electronic relaxation 2 (details)
   IALGO  =     68    algorithm
   LDIAG  =      T    sub-space diagonalisation (order eigenvalues)
   LSUBROT=      F    optimize rotation matrix (better conditioning)
   TURBO    =      0    0=normal 1=particle mesh
   IRESTART =      0    0=no restart 2=restart with 2 vectors
   NREBOOT  =      0    no. of reboots
   NMIN     =      0    reboot dimension
   EREF     =   0.00    reference energy to select bands
   IMIX   =      4    mixing-type and parameters
     AMIX     =   0.40;   BMIX     =  1.00
     AMIX_MAG =   1.60;   BMIX_MAG =  1.00
     AMIN     =   0.10
     WC   =   100.;   INIMIX=   1;  MIXPRE=   1;  MAXMIX= -45

 Intra band minimization:
   WEIMIN = 0.0010     energy-eigenvalue tresh-hold
   EBREAK =  0.40E-08  absolut break condition
   DEPER  =   0.30     relativ break condition  

   TIME   =   0.40     timestep for ELM

  volume/ion in A,a.u.               =      25.74       173.67
  Fermi-wavevector in a.u.,A,eV,Ry     =   1.180696  2.231192 18.967115  1.394044
  Thomas-Fermi vector in A             =   2.316984
 
 Write flags
   LWAVE        =      F    write WAVECAR
   LDOWNSAMPLE  =      F    k-point downsampling of WAVECAR
   LCHARG       =      F    write CHGCAR
   LVTOT        =      F    write LOCPOT, total local potential
   LVHAR        =      F    write LOCPOT, Hartree potential only
   LELF         =      F    write electronic localiz. function (ELF)
   LORBIT       =      0    0 simple, 1 ext, 2 COOP (PROOUT), +10 PAW based schemes


 Dipole corrections
   LMONO  =      F    monopole corrections only (constant potential shift)
   LDIPOL =      F    correct potential (dipole corrections)
   IDIPOL =      0    1-x, 2-y, 3-z, 4-all directions 
   EPSILON=  1.0000000 bulk dielectric constant

 Exchange correlation treatment:
   GGA     =    --    GGA type
   LEXCH   =     8    internal setting for exchange type
   VOSKOWN=      0    Vosko Wilk Nusair interpolation
   LHFCALC =     F    Hartree Fock is set to
   LHFONE  =     F    Hartree Fock one center treatment
   AEXX    =    0.0000 exact exchange contribution

 Linear response parameters
   LEPSILON=     F    determine dielectric tensor
   LRPA    =     F    only Hartree local field effects (RPA)
   LNABLA  =     F    use nabla operator in PAW spheres
   LVEL    =     F    velocity operator in full k-point grid
   LINTERFAST=   F  fast interpolation
   KINTER  =     0    interpolate to denser k-point grid
   CSHIFT  =0.1000    complex shift for real part using Kramers Kronig
   OMEGAMAX=  -1.0    maximum frequency
   DEG_THRESHOLD= 0.2000000E-02 threshold for treating states as degnerate
   RTIME   =   -0.100 relaxation time in fs
  (WPLASMAI=    0.000 imaginary part of plasma frequency in eV, 0.658/RTIME)
   DFIELD  = 0.0000000 0.0000000 0.0000000 field for delta impulse in time
 
 Orbital magnetization related:
   ORBITALMAG=     F  switch on orbital magnetization
   LCHIMAG   =     F  perturbation theory with respect to B field
   DQ        =  0.001000  dq finite difference perturbation B field
   LLRAUG    =     F  two centre corrections for induced B field



--------------------------------------------------------------------------------------------------------


 finite differences
   using selective dynamics as specified on POSCAR
   WARNING: If single coordinates had been selected the selection of coordinates
            is made according to the corresponding   d i r e c t   coordinates!
            Don't support selection of single cartesian coordinates -- sorry ...
  !
 charge density and potential will be updated during run
 spin polarized calculation
 RMM-DIIS sequential band-by-band and
  variant of blocked Davidson during initial phase
 perform sub-space diagonalisation
    before iterative eigenvector-optimisation
 modified Broyden-mixing scheme, WC =      100.0
 initial mixing is a Kerker type mixing with AMIX =  0.4000 and BMIX =      1.0000
 Hartree-type preconditioning will be used
 using additional bands          233
 real space projection scheme for non local part
 use partial core corrections
 calculate Harris-corrections to forces 
   (improved forces if not selfconsistent)
 use gradient corrections 
 use of overlap-Matrix (Vanderbilt PP)
 Fermi weights with tetrahedron method with Bloechl corrections


--------------------------------------------------------------------------------------------------------


  energy-cutoff  :      550.00
  volume of cell :     2084.57
      direct lattice vectors                 reciprocal lattice vectors
    10.460000038  0.000000000  0.000000000     0.095602294 -0.055196010  0.000000000
     5.230000019  9.058625757  0.000000000     0.000000000  0.110392020  0.000000000
     0.000000000  0.000000000 22.000000000     0.000000000  0.000000000  0.045454545

  length of vectors
    10.460000038 10.460000038 22.000000000     0.110392020  0.110392020  0.045454545


 
 k-points in units of 2pi/SCALE and weight: mesh auto                               
   0.00000000  0.00000000  0.00000000       0.250
   0.04780115 -0.02759801  0.00000000       0.250
   0.00000000  0.05519601  0.00000000       0.250
   0.04780115  0.02759801  0.00000000       0.250
 
 k-points in reciprocal lattice and weights: mesh auto                               
   0.00000000  0.00000000  0.00000000       0.250
   0.50000000 -0.00000000  0.00000000       0.250
   0.00000000  0.50000000  0.00000000       0.250
   0.50000000  0.50000000  0.00000000       0.250
 
 position of ions in fractional coordinates (direct lattice) 
   0.77810092  0.86753210  0.32344287
   0.03961252  0.86670571  0.32618938
   0.03371746  0.61806642  0.32605698
   0.02982878  0.36726456  0.32599013
   0.28867290  0.10750349  0.32390527
   0.28650425  0.36912944  0.32386533
   0.86466887  0.70498578  0.12229985
   0.87465998  0.95343391  0.43376329
   0.12264867  0.45629010  0.43265385
   0.12385547  0.95554425  0.42981777
   0.87292469  0.45502155  0.43532916
   0.37398230  0.95445950  0.43165656
   0.87282215  0.20603851  0.42639715
   0.12325710  0.20457834  0.44024130
   0.62386470  0.95493251  0.43199310
   0.87243728  0.70632473  0.43634028
   0.37393156  0.20476145  0.43139581
   0.37455027  0.70807859  0.42694950
   0.62486432  0.45671849  0.42700877
   0.12281471  0.70781997  0.45225603
   0.62223983  0.20688505  0.43253912
   0.53737719  0.37404441  0.32328055
   0.53454181  0.11702480  0.32151952
   0.53870884  0.11802236  0.03238527
   0.12290617  0.44825013  0.12290690
   0.03513213  0.11661761  0.31948849
   0.03340525  0.12630506  0.02706319
   0.11402175  0.95923871  0.12562052
   0.37539746  0.45613262  0.44603337
   0.45357461  0.52945729  0.22039910
   0.62302867  0.70552063  0.43588036
   0.94899007  0.78274019  0.22361129
   0.77383369  0.61901441  0.32318278
   0.28993458  0.62102664  0.32506573
   0.37753931  0.69967624  0.12280080
   0.19901484  0.28472268  0.22280739
   0.69852103  0.54491363  0.21919537
   0.20213755  0.79182194  0.22389421
   0.45091369  0.02278376  0.21888536
   0.69637856  0.04264071  0.21542833
   0.78400193  0.12194553  0.31996417
   0.94737029  0.28129730  0.21835173
   0.78867385  0.86442815  0.02878726
   0.04503686  0.86262769  0.02956077
   0.04193819  0.61777677  0.02782942
   0.61761741  0.21403631  0.12433199
   0.36901191  0.95198663  0.12252685
   0.02492865  0.37664404  0.03221703
   0.86253121  0.21067251  0.12328867
   0.94767429  0.53659240  0.22625232
   0.53330184  0.62169191  0.32420697
   0.28837727  0.11371556  0.03253390
   0.55048242  0.61269490  0.03561757
   0.28974452  0.37464223  0.03224820
   0.61422605  0.94303021  0.12459236
   0.69894358  0.78562002  0.22059634
   0.62297436  0.45013935  0.12387038
   0.29082012  0.86452896  0.32028492
   0.29091939  0.86815236  0.03126639
   0.62010444  0.70621322  0.12413992
   0.20561233  0.03070072  0.22592274
   0.53625772  0.37500781  0.02951045
   0.37177867  0.20134982  0.12657237
   0.12154336  0.70027406  0.12608725
   0.53149148  0.86242244  0.32301850
   0.78687558  0.12059423  0.02748769
   0.53843249  0.86226890  0.02935757
   0.20178671  0.53509519  0.22281088
   0.86498126  0.95774808  0.12202558
   0.70149417  0.28590322  0.22086378
   0.44741904  0.28767331  0.22053161
   0.86782523  0.44867072  0.12402034
   0.12291743  0.20202656  0.12405521
   0.78432235  0.61382311  0.03229426
   0.28371978  0.61603863  0.03367972
   0.37614492  0.44431942  0.12290336
   0.78115551  0.37200829  0.32120761
   0.78259347  0.37304269  0.03358731
   0.94800282  0.03754642  0.22055626
   0.45232831  0.78402779  0.22630704
   0.25585897  0.57833022  0.50133312
 
 position of ions in cartesian coordinates  (Angst):
  12.67612853  7.85864861  7.11574312
   4.94721782  7.85116263  7.17616633
   3.58517200  5.59883242  7.17325348
   2.23280266  3.32691222  7.17178295
   3.58176177  0.97383391  7.12591587
   4.92738146  3.34380547  7.12503726
  12.73151207  6.38620234  2.69059659
  14.13540276  8.63680093  9.54279236
   3.66930228  4.13336125  9.51838461
   6.29302473  8.65591778  9.45599084
  11.51055496  4.12186993  9.57724160
   8.90367810  8.64609145  9.49644442
  10.20730107  1.86642572  9.38073727
   2.35921396  1.85319864  9.68530863
  11.51992185  8.65037626  9.50384812
  12.81977237  6.39833139  9.59948618
   4.98222651  1.85485732  9.49070779
   7.62104691  6.41421898  9.39288895
   8.92471849  4.13724190  9.39419285
   4.98654033  6.41187624  9.94963260
   7.59063744  1.87409427  9.51586057
   7.57721765  3.38832832  7.11217205
   6.20334705  1.06008388  7.07342938
   6.25215149  1.06912041  0.71247596
   3.62994671  4.06053018  2.70395184
   0.97739224  1.05639533  7.02874678
   1.00999439  1.14415026  0.59539027
   6.20948601  8.68938446  2.76365137
   6.31223107  4.13193471  9.81273420
   7.51345205  4.79615545  4.84878016
  10.20675279  6.39104733  9.58936796
  14.02016735  7.09055042  4.91944838
  11.33174585  5.60741987  7.11002116
   6.28068501  5.62564790  7.15144603
   7.60836792  6.33810520  2.70161749
   3.57079482  2.57919621  4.90176249
  10.15642833  4.93616867  4.82229805
   6.25558757  7.17281866  4.92567253
   4.83571624  0.20638953  4.81547785
   7.50713062  0.38626620  4.73942328
   8.83843528  1.10465891  7.03921175
  11.38067818  2.54816699  4.80373813
  12.77048778  7.83053112  0.63331979
   4.98262835  7.81422138  0.65033685
   3.66964602  5.59620857  0.61224722
   7.57968807  1.93887484  2.73530387
   8.83875465  8.62369061  2.69559074
   2.23060202  3.41187739  0.70877462
  10.12389374  1.90840340  2.71235085
  12.71905136  4.86078977  4.97755097
   8.82978596  5.63167434  7.13255342
   3.61115860  1.03010666  0.71574569
   8.96244049  5.55017376  0.78358650
   4.99010658  3.39374375  0.70946044
  11.35685253  8.54255771  2.74103188
  11.41974258  7.11663770  4.85311937
   8.87054062  4.07764387  2.72514845
   7.56346492  7.83144434  7.04626823
   7.58345366  7.86426735  0.68786056
  10.17978764  6.39732123  2.73107815
   2.31126976  0.27810636  4.97030019
   7.57054663  3.39705539  0.64922983
   4.94186449  1.82395267  2.78459216
   4.93377686  6.34352065  2.77391959
  10.06987026  7.81236213  7.10640692
   8.86142635  1.09241795  0.60472925
  10.14167022  7.81097126  0.64586645
   4.90923691  4.84722710  4.90183925
  14.05672646  8.67588139  2.68456269
   8.83290291  2.58989025  4.85900307
   6.18453456  2.60592485  4.85169553
  11.42399979  4.06434011  2.72844744
   2.34231520  1.83008301  2.72921466
  11.41430664  5.56039381  0.71047383
   6.18959093  5.58046341  0.74095375
   6.25826645  4.02492332  2.70387388
  10.11649003  3.36988388  7.06656752
  10.13694096  3.37925410  0.73892080
  10.11247730  0.34011900  4.85223770
   8.83181953  7.10221433  4.97875499
   5.70095186  5.23887700 11.02932872
 


--------------------------------------------------------------------------------------------------------


 k-point  1 :   0.0000 0.0000 0.0000  plane waves:   60991
 k-point  2 :   0.5000-0.0000 0.0000  plane waves:   60974
 k-point  3 :   0.0000 0.5000 0.0000  plane waves:   60974
 k-point  4 :   0.5000 0.5000 0.0000  plane waves:   60974

 maximum and minimum number of plane-waves per node :     60991    60974

 maximum number of plane-waves:     60991
 maximum index in each direction: 
   IXMAX=   20   IYMAX=   20   IZMAX=   42
   IXMIN=  -20   IYMIN=  -20   IZMIN=  -42


 serial   3D FFT for wavefunctions
 parallel 3D FFT for charge:
    minimum data exchange during FFTs selected (reduces bandwidth)


 total amount of memory used by VASP MPI-rank0   350549. kBytes
=======================================================================

   base      :      30000. kBytes
   nonlr-proj:      92304. kBytes
   fftplans  :      11305. kBytes
   grid      :     110428. kBytes
   one-center:       2519. kBytes
   wavefun   :     103993. kBytes
 
     INWAV:  cpu time    0.0001: real time    0.0005
 Broyden mixing: mesh for mixing (old mesh)
   NGX = 41   NGY = 41   NGZ = 85
  (NGX  =160   NGY  =160   NGZ  =336)
  gives a total of 142885 points

 initial charge density was supplied:
 charge density of overlapping atoms calculated
 number of electron     782.0000000 magnetization     217.0000000
 keeping initial charge density in first step


--------------------------------------------------------------------------------------------------------


 Maximum index for non-local projection operator         6979
 Maximum index for augmentation-charges         1834 (set IRDMAX)


--------------------------------------------------------------------------------------------------------


 First call to EWALD:  gamma=   0.139
 Maximum number of real-space cells 4x 4x 2
 Maximum number of reciprocal cells 2x 2x 4

    FEWALD:  cpu time    0.0046: real time    0.0049


--------------------------------------- Iteration      1(   1)  ---------------------------------------


    POTLOK:  cpu time    0.4012: real time    0.4421
    SETDIJ:  cpu time    0.0405: real time    0.0500
     EDDAV:  cpu time   53.7714: real time   54.0796
 BZINTS: Fermi energy: 18.615748;782.000000 electrons
         Band energy:8338.801653;  BLOECHL correction: -0.015181
       DOS:  cpu time    0.0267: real time    0.0316
    --------------------------------------------
      LOOP:  cpu time   54.2399: real time   54.6033

 eigenvalue-minimisations  :  9984
 total energy-change (2. order) : 0.7721682E+04  (-0.3380960E+05)
 number of electron     782.0000000 magnetization     217.0000000
 augmentation part      782.0000000 magnetization     217.0000000

 Free energy of the ion-electron system (eV)
  ---------------------------------------------------
  alpha Z        PSCENC =      2403.21136664
  Ewald energy   TEWEN  =    208277.61469658
  -Hartree energ DENC   =   -278938.12419240
  -exchange      EXHF   =         0.00000000
  -V(xc)+E(xc)   XCENC  =      1157.99908202
  PAW double counting   =     62151.42609927   -63176.80815837
  entropy T*S    EENTRO =         0.00000000
  eigenvalues    EBANDS =      8338.80165346
  atomic energy  EATOM  =     67507.56188773
  Solvation  Ediel_sol  =         0.00000000
  ---------------------------------------------------
  free energy    TOTEN  =      7721.68243492 eV

  energy without entropy =     7721.68243492  energy(sigma->0) =     7721.68243492


--------------------------------------------------------------------------------------------------------




--------------------------------------- Iteration      1(   2)  ---------------------------------------


     EDDAV:  cpu time   55.4487: real time   55.6145
 BZINTS: Fermi energy:  6.328661;782.000000 electrons
         Band energy:1184.289991;  BLOECHL correction: -0.007722
       DOS:  cpu time    0.0254: real time    0.0256
    --------------------------------------------
      LOOP:  cpu time   55.4741: real time   55.6400

 eigenvalue-minimisations  : 10368
 total energy-change (2. order) :-0.7154512E+04  (-0.6291729E+04)
 number of electron     782.0000000 magnetization     217.0000000
 augmentation part      782.0000000 magnetization     217.0000000

 Free energy of the ion-electron system (eV)
  ---------------------------------------------------
  alpha Z        PSCENC =      2403.21136664
  Ewald energy   TEWEN  =    208277.61469658
  -Hartree energ DENC   =   -278938.12419240
  -exchange      EXHF   =         0.00000000
  -V(xc)+E(xc)   XCENC  =      1157.99908202
  PAW double counting   =     62151.42609927   -63176.80815837
  entropy T*S    EENTRO =         0.00000000
  eigenvalues    EBANDS =      1184.28999131
  atomic energy  EATOM  =     67507.56188773
  Solvation  Ediel_sol  =         0.00000000
  ---------------------------------------------------
  free energy    TOTEN  =       567.17077277 eV

  energy without entropy =      567.17077277  energy(sigma->0) =      567.17077277


--------------------------------------------------------------------------------------------------------




--------------------------------------- Iteration      1(   3)  ---------------------------------------


     EDDAV:  cpu time   54.8794: real time   55.7478
 BZINTS: Fermi energy:  4.073516;782.000000 electrons
         Band energy: 179.643670;  BLOECHL correction: -0.062634
       DOS:  cpu time    0.0251: real time    0.0253
    --------------------------------------------
      LOOP:  cpu time   54.9045: real time   55.7731

 eigenvalue-minimisations  : 10128
 total energy-change (2. order) :-0.1004646E+04  (-0.8499269E+03)
 number of electron     782.0000000 magnetization     217.0000000
 augmentation part      782.0000000 magnetization     217.0000000

 Free energy of the ion-electron system (eV)
  ---------------------------------------------------
  alpha Z        PSCENC =      2403.21136664
  Ewald energy   TEWEN  =    208277.61469658
  -Hartree energ DENC   =   -278938.12419240
  -exchange      EXHF   =         0.00000000
  -V(xc)+E(xc)   XCENC  =      1157.99908202
  PAW double counting   =     62151.42609927   -63176.80815837
  entropy T*S    EENTRO =         0.00000000
  eigenvalues    EBANDS =       179.64366971
  atomic energy  EATOM  =     67507.56188773
  Solvation  Ediel_sol  =         0.00000000
  ---------------------------------------------------
  free energy    TOTEN  =      -437.47554883 eV

  energy without entropy =     -437.47554883  energy(sigma->0) =     -437.47554883


--------------------------------------------------------------------------------------------------------




--------------------------------------- Iteration      1(   4)  ---------------------------------------


     EDDAV:  cpu time   63.7166: real time   63.9784
 BZINTS: Fermi energy:  3.970482;782.000000 electrons
         Band energy: 124.981290;  BLOECHL correction: -0.050696
       DOS:  cpu time    0.0260: real time    0.0351
    --------------------------------------------
      LOOP:  cpu time   63.7426: real time   64.0136

 eigenvalue-minimisations  : 12336
 total energy-change (2. order) :-0.5466238E+02  (-0.5299193E+02)
 number of electron     782.0000000 magnetization     217.0000000
 augmentation part      782.0000000 magnetization     217.0000000

 Free energy of the ion-electron system (eV)
  ---------------------------------------------------
  alpha Z        PSCENC =      2403.21136664
  Ewald energy   TEWEN  =    208277.61469658
  -Hartree energ DENC   =   -278938.12419240
  -exchange      EXHF   =         0.00000000
  -V(xc)+E(xc)   XCENC  =      1157.99908202
  PAW double counting   =     62151.42609927   -63176.80815837
  entropy T*S    EENTRO =         0.00000000
  eigenvalues    EBANDS =       124.98128995
  atomic energy  EATOM  =     67507.56188773
  Solvation  Ediel_sol  =         0.00000000
  ---------------------------------------------------
  free energy    TOTEN  =      -492.13792859 eV

  energy without entropy =     -492.13792859  energy(sigma->0) =     -492.13792859


--------------------------------------------------------------------------------------------------------




--------------------------------------- Iteration      1(   5)  ---------------------------------------


     EDDAV:  cpu time   67.4278: real time   67.7321
 BZINTS: Fermi energy:  3.966729;782.000000 electrons
         Band energy: 123.026911;  BLOECHL correction: -0.049776
       DOS:  cpu time    0.0241: real time    0.0243
    CHARGE:  cpu time    2.4928: real time    2.5232
    MIXING:  cpu time    0.0111: real time    0.0146
    --------------------------------------------
      LOOP:  cpu time   69.9558: real time   70.2943

 eigenvalue-minimisations  : 13248
 total energy-change (2. order) :-0.1954379E+01  (-0.1951417E+01)
 number of electron     782.0000007 magnetization     202.7917045
 augmentation part      311.7132719 magnetization     172.3540121

 Broyden mixing:
  rms(total) = 0.12473E+02    rms(broyden)= 0.12473E+02
  rms(prec ) = 0.12779E+02
  weight for this iteration     100.00

 Free energy of the ion-electron system (eV)
  ---------------------------------------------------
  alpha Z        PSCENC =      2403.21136664
  Ewald energy   TEWEN  =    208277.61469658
  -Hartree energ DENC   =   -278938.12419240
  -exchange      EXHF   =         0.00000000
  -V(xc)+E(xc)   XCENC  =      1157.99908202
  PAW double counting   =     62151.42609927   -63176.80815837
  entropy T*S    EENTRO =         0.00000000
  eigenvalues    EBANDS =       123.02691127
  atomic energy  EATOM  =     67507.56188773
  Solvation  Ediel_sol  =         0.00000000
  ---------------------------------------------------
  free energy    TOTEN  =      -494.09230727 eV

  energy without entropy =     -494.09230727  energy(sigma->0) =     -494.09230727


--------------------------------------------------------------------------------------------------------




--------------------------------------- Iteration      1(   6)  ---------------------------------------


    POTLOK:  cpu time    0.3737: real time    0.3760
    SETDIJ:  cpu time    0.0335: real time    0.0336
    EDDIAG:  cpu time    8.9960: real time    9.0249
  RMM-DIIS:  cpu time   35.0002: real time   35.1165
    ORTHCH:  cpu time    1.4406: real time    1.4445
 BZINTS: Fermi energy:  2.683383;782.000000 electrons
         Band energy:***********;  BLOECHL correction: -0.019980
       DOS:  cpu time    0.0266: real time    0.0266
    CHARGE:  cpu time    2.4422: real time    2.4487
    MIXING:  cpu time    0.0110: real time    0.0146
    --------------------------------------------
      LOOP:  cpu time   48.3237: real time   48.4853

 eigenvalue-minimisations  : 10242
 total energy-change (2. order) :-0.2397821E+03  (-0.8078581E+02)
 number of electron     782.0000010 magnetization     199.0571445
 augmentation part      372.7279996 magnetization     168.0898298

 Broyden mixing:
  rms(total) = 0.20312E+02    rms(broyden)= 0.20311E+02
  rms(prec ) = 0.27260E+02
  weight for this iteration     100.00

 eigenvalues of (default mixing * dielectric matrix)
  average eigenvalue GAMMA=   0.2237
  0.2237

 Free energy of the ion-electron system (eV)
  ---------------------------------------------------
  alpha Z        PSCENC =      2403.21136664
  Ewald energy   TEWEN  =    208277.61469658
  -Hartree energ DENC   =   -277385.41267375
  -exchange      EXHF   =         0.00000000
  -V(xc)+E(xc)   XCENC  =      1121.81403068
  PAW double counting   =     68059.91124783   -68925.27657172
  entropy T*S    EENTRO =         0.00000000
  eigenvalues    EBANDS =     -1793.29835015
  atomic energy  EATOM  =     67507.56188773
  Solvation  Ediel_sol  =         0.00000000
  ---------------------------------------------------
  free energy    TOTEN  =      -733.87436616 eV

  energy without entropy =     -733.87436616  energy(sigma->0) =     -733.87436616


--------------------------------------------------------------------------------------------------------




--------------------------------------- Iteration      1(   7)  ---------------------------------------


    POTLOK:  cpu time    0.3690: real time    0.3714
    SETDIJ:  cpu time    0.0320: real time    0.0321
    EDDIAG:  cpu time    8.9467: real time    8.9712
  RMM-DIIS:  cpu time   34.0890: real time   34.1811
    ORTHCH:  cpu time    1.4375: real time    1.4418
 BZINTS: Fermi energy:  3.825367;782.000000 electrons
         Band energy:-864.835054;  BLOECHL correction:  0.000000
       DOS:  cpu time    0.0051: real time    0.0051
    CHARGE:  cpu time    2.4471: real time    2.4536
    MIXING:  cpu time    0.0102: real time    0.0102
    --------------------------------------------
      LOOP:  cpu time   47.3365: real time   47.4665

 eigenvalue-minimisations  :  9998
 total energy-change (2. order) : 0.1726665E+03  (-0.1351880E+02)
 number of electron     782.0000005 magnetization     193.6715492
 augmentation part      338.1216725 magnetization     154.6238427

 Broyden mixing:
  rms(total) = 0.15496E+02    rms(broyden)= 0.15496E+02
  rms(prec ) = 0.20764E+02
  weight for this iteration     100.00

 eigenvalues of (default mixing * dielectric matrix)
  average eigenvalue GAMMA=   0.2825
  0.4158  0.1492

 Free energy of the ion-electron system (eV)
  ---------------------------------------------------
  alpha Z        PSCENC =      2403.21136664
  Ewald energy   TEWEN  =    208277.61469658
  -Hartree energ DENC   =   -278013.19632237
  -exchange      EXHF   =         0.00000000
  -V(xc)+E(xc)   XCENC  =      1138.56505205
  PAW double counting   =     69134.86772790   -70144.99717948
  entropy T*S    EENTRO =         0.00000000
  eigenvalues    EBANDS =      -864.83505396
  atomic energy  EATOM  =     67507.56188773
  Solvation  Ediel_sol  =         0.00000000
  ---------------------------------------------------
  free energy    TOTEN  =      -561.20782491 eV

  energy without entropy =     -561.20782491  energy(sigma->0) =     -561.20782491


--------------------------------------------------------------------------------------------------------




--------------------------------------- Iteration      1(   8)  ---------------------------------------


    POTLOK:  cpu time    0.3722: real time    0.3747
    SETDIJ:  cpu time    0.0321: real time    0.0322
    EDDIAG:  cpu time    8.9821: real time    9.0069
  RMM-DIIS:  cpu time   34.0114: real time   34.1510
    ORTHCH:  cpu time    1.4442: real time    1.4479
 BZINTS: Fermi energy:  3.187745;782.000000 electrons
         Band energy:-349.159739;  BLOECHL correction: -0.022435
       DOS:  cpu time    0.0271: real time    0.0272
    CHARGE:  cpu time    2.4382: real time    2.4448
    MIXING:  cpu time    0.0110: real time    0.0112
    --------------------------------------------
      LOOP:  cpu time   47.3184: real time   47.4959

 eigenvalue-minimisations  : 10006
 total energy-change (2. order) : 0.9525126E+02  (-0.8861951E+01)
[...]
      4.982628  7.814221  0.650337            0           0           0  
      3.669646  5.596209  0.612247            0           0           0  
      7.579688  1.938875  2.735304            0           0           0  
      8.838755  8.623691  2.695591            0           0           0  
      2.230602  3.411877  0.708775            0           0           0  
     10.123894  1.908403  2.712351            0           0           0  
     12.719051  4.860790  4.977551            0           0           0  
      8.829786  5.631674  7.132553            0           0           0  
      3.611159  1.030107  0.715746            0           0           0  
      8.962440  5.550174  0.783586            0           0           0  
      4.990107  3.393744  0.709460            0           0           0  
     11.356853  8.542558  2.741032            0           0           0  
     11.419743  7.116638  4.853119            0           0           0  
      8.870541  4.077644  2.725148            0           0           0  
      7.563465  7.831444  7.046268            0           0           0  
      7.583454  7.864267  0.687861            0           0           0  
     10.179788  6.397321  2.731078            0           0           0  
      2.311270  0.278106  4.970300            0           0           0  
      7.570547  3.397055  0.649230            0           0           0  
      4.941864  1.823953  2.784592            0           0           0  
      4.933777  6.343521  2.773920            0           0           0  
     10.069870  7.812362  7.106407            0           0           0  
      8.861426  1.092418  0.604729            0           0           0  
     10.141670  7.810971  0.645866            0           0           0  
      4.909237  4.847227  4.901839            0           0           0  
     14.056726  8.675881  2.684563            0           0           0  
      8.832903  2.589890  4.859003            0           0           0  
      6.184535  2.605925  4.851696            0           0           0  
     11.424000  4.064340  2.728447            0           0           0  
      2.342315  1.830083  2.729215            0           0           0  
     11.414307  5.560394  0.710474            0           0           0  
      6.189591  5.580463  0.740954            0           0           0  
      6.258266  4.024923  2.703874            0           0           0  
     10.116490  3.369884  7.066568            0           0           0  
     10.136941  3.379254  0.738921            0           0           0  
     10.112477  0.340119  4.852238            0           0           0  
      8.831820  7.102214  4.978755            0           0           0  
      5.700952  5.238877 11.029329     0.065044   -0.057820    0.996206  
 
   2 f  =   24.546776 THz   154.231939 2PiTHz  818.792272 cm-1   101.517340 meV
             X         Y         Z           dx          dy          dz
     12.676129  7.858649  7.115743            0           0           0  
      4.947218  7.851163  7.176166            0           0           0  
      3.585172  5.598832  7.173253            0           0           0  
      2.232803  3.326912  7.171783            0           0           0  
      3.581762  0.973834  7.125916            0           0           0  
      4.927381  3.343805  7.125037            0           0           0  
     12.731512  6.386202  2.690597            0           0           0  
     14.135403  8.636801  9.542792            0           0           0  
      3.669302  4.133361  9.518385            0           0           0  
      6.293025  8.655918  9.455991            0           0           0  
     11.510555  4.121870  9.577242            0           0           0  
      8.903678  8.646091  9.496444            0           0           0  
     10.207301  1.866426  9.380737            0           0           0  
      2.359214  1.853199  9.685309            0           0           0  
     11.519922  8.650376  9.503848            0           0           0  
     12.819772  6.398331  9.599486            0           0           0  
      4.982227  1.854857  9.490708            0           0           0  
      7.621047  6.414219  9.392889            0           0           0  
      8.924718  4.137242  9.394193            0           0           0  
      4.986540  6.411876  9.949633            0           0           0  
      7.590637  1.874094  9.515861            0           0           0  
      7.577218  3.388328  7.112172            0           0           0  
      6.203347  1.060084  7.073429            0           0           0  
      6.252151  1.069120  0.712476            0           0           0  
      3.629947  4.060530  2.703952            0           0           0  
      0.977392  1.056395  7.028747            0           0           0  
      1.009994  1.144150  0.595390            0           0           0  
      6.209486  8.689384  2.763651            0           0           0  
      6.312231  4.131935  9.812734            0           0           0  
      7.513452  4.796155  4.848780            0           0           0  
     10.206753  6.391047  9.589368            0           0           0  
     14.020167  7.090550  4.919448            0           0           0  
     11.331746  5.607420  7.110021            0           0           0  
      6.280685  5.625648  7.151446            0           0           0  
      7.608368  6.338105  2.701617            0           0           0  
      3.570795  2.579196  4.901762            0           0           0  
     10.156428  4.936169  4.822298            0           0           0  
      6.255588  7.172819  4.925673            0           0           0  
      4.835716  0.206390  4.815478            0           0           0  
      7.507131  0.386266  4.739423            0           0           0  
      8.838435  1.104659  7.039212            0           0           0  
     11.380678  2.548167  4.803738            0           0           0  
     12.770488  7.830531  0.633320            0           0           0  
      4.982628  7.814221  0.650337            0           0           0  
      3.669646  5.596209  0.612247            0           0           0  
      7.579688  1.938875  2.735304            0           0           0  
      8.838755  8.623691  2.695591            0           0           0  
      2.230602  3.411877  0.708775            0           0           0  
     10.123894  1.908403  2.712351            0           0           0  
     12.719051  4.860790  4.977551            0           0           0  
      8.829786  5.631674  7.132553            0           0           0  
      3.611159  1.030107  0.715746            0           0           0  
      8.962440  5.550174  0.783586            0           0           0  
      4.990107  3.393744  0.709460            0           0           0  
     11.356853  8.542558  2.741032            0           0           0  
     11.419743  7.116638  4.853119            0           0           0  
      8.870541  4.077644  2.725148            0           0           0  
      7.563465  7.831444  7.046268            0           0           0  
      7.583454  7.864267  0.687861            0           0           0  
     10.179788  6.397321  2.731078            0           0           0  
      2.311270  0.278106  4.970300            0           0           0  
      7.570547  3.397055  0.649230            0           0           0  
      4.941864  1.823953  2.784592            0           0           0  
      4.933777  6.343521  2.773920            0           0           0  
     10.069870  7.812362  7.106407            0           0           0  
      8.861426  1.092418  0.604729            0           0           0  
     10.141670  7.810971  0.645866            0           0           0  
      4.909237  4.847227  4.901839            0           0           0  
     14.056726  8.675881  2.684563            0           0           0  
      8.832903  2.589890  4.859003            0           0           0  
      6.184535  2.605925  4.851696            0           0           0  
     11.424000  4.064340  2.728447            0           0           0  
      2.342315  1.830083  2.729215            0           0           0  
     11.414307  5.560394  0.710474            0           0           0  
      6.189591  5.580463  0.740954            0           0           0  
      6.258266  4.024923  2.703874            0           0           0  
     10.116490  3.369884  7.066568            0           0           0  
     10.136941  3.379254  0.738921            0           0           0  
     10.112477  0.340119  4.852238            0           0           0  
      8.831820  7.102214  4.978755            0           0           0  
      5.700952  5.238877 11.029329    -0.510282    0.855993    0.082999  
 
   3 f  =   12.836143 THz    80.651866 2PiTHz  428.167637 cm-1    53.086040 meV
             X         Y         Z           dx          dy          dz
     12.676129  7.858649  7.115743            0           0           0  
      4.947218  7.851163  7.176166            0           0           0  
      3.585172  5.598832  7.173253            0           0           0  
      2.232803  3.326912  7.171783            0           0           0  
      3.581762  0.973834  7.125916            0           0           0  
      4.927381  3.343805  7.125037            0           0           0  
     12.731512  6.386202  2.690597            0           0           0  
     14.135403  8.636801  9.542792            0           0           0  
      3.669302  4.133361  9.518385            0           0           0  
      6.293025  8.655918  9.455991            0           0           0  
     11.510555  4.121870  9.577242            0           0           0  
      8.903678  8.646091  9.496444            0           0           0  
     10.207301  1.866426  9.380737            0           0           0  
      2.359214  1.853199  9.685309            0           0           0  
     11.519922  8.650376  9.503848            0           0           0  
     12.819772  6.398331  9.599486            0           0           0  
      4.982227  1.854857  9.490708            0           0           0  
      7.621047  6.414219  9.392889            0           0           0  
      8.924718  4.137242  9.394193            0           0           0  
      4.986540  6.411876  9.949633            0           0           0  
      7.590637  1.874094  9.515861            0           0           0  
      7.577218  3.388328  7.112172            0           0           0  
      6.203347  1.060084  7.073429            0           0           0  
      6.252151  1.069120  0.712476            0           0           0  
      3.629947  4.060530  2.703952            0           0           0  
      0.977392  1.056395  7.028747            0           0           0  
      1.009994  1.144150  0.595390            0           0           0  
      6.209486  8.689384  2.763651            0           0           0  
      6.312231  4.131935  9.812734            0           0           0  
      7.513452  4.796155  4.848780            0           0           0  
     10.206753  6.391047  9.589368            0           0           0  
     14.020167  7.090550  4.919448            0           0           0  
     11.331746  5.607420  7.110021            0           0           0  
      6.280685  5.625648  7.151446            0           0           0  
      7.608368  6.338105  2.701617            0           0           0  
      3.570795  2.579196  4.901762            0           0           0  
     10.156428  4.936169  4.822298            0           0           0  
      6.255588  7.172819  4.925673            0           0           0  
      4.835716  0.206390  4.815478            0           0           0  
      7.507131  0.386266  4.739423            0           0           0  
      8.838435  1.104659  7.039212            0           0           0  
     11.380678  2.548167  4.803738            0           0           0  
     12.770488  7.830531  0.633320            0           0           0  
      4.982628  7.814221  0.650337            0           0           0  
      3.669646  5.596209  0.612247            0           0           0  
      7.579688  1.938875  2.735304            0           0           0  
      8.838755  8.623691  2.695591            0           0           0  
      2.230602  3.411877  0.708775            0           0           0  
     10.123894  1.908403  2.712351            0           0           0  
     12.719051  4.860790  4.977551            0           0           0  
      8.829786  5.631674  7.132553            0           0           0  
      3.611159  1.030107  0.715746            0           0           0  
      8.962440  5.550174  0.783586            0           0           0  
      4.990107  3.393744  0.709460            0           0           0  
     11.356853  8.542558  2.741032            0           0           0  
     11.419743  7.116638  4.853119            0           0           0  
      8.870541  4.077644  2.725148            0           0           0  
      7.563465  7.831444  7.046268            0           0           0  
      7.583454  7.864267  0.687861            0           0           0  
     10.179788  6.397321  2.731078            0           0           0  
      2.311270  0.278106  4.970300            0           0           0  
      7.570547  3.397055  0.649230            0           0           0  
      4.941864  1.823953  2.784592            0           0           0  
      4.933777  6.343521  2.773920            0           0           0  
     10.069870  7.812362  7.106407            0           0           0  
      8.861426  1.092418  0.604729            0           0           0  
     10.141670  7.810971  0.645866            0           0           0  
      4.909237  4.847227  4.901839            0           0           0  
     14.056726  8.675881  2.684563            0           0           0  
      8.832903  2.589890  4.859003            0           0           0  
      6.184535  2.605925  4.851696            0           0           0  
     11.424000  4.064340  2.728447            0           0           0  
      2.342315  1.830083  2.729215            0           0           0  
     11.414307  5.560394  0.710474            0           0           0  
      6.189591  5.580463  0.740954            0           0           0  
      6.258266  4.024923  2.703874            0           0           0  
     10.116490  3.369884  7.066568            0           0           0  
     10.136941  3.379254  0.738921            0           0           0  
     10.112477  0.340119  4.852238            0           0           0  
      8.831820  7.102214  4.978755            0           0           0  
      5.700952  5.238877 11.029329     0.857544    0.513744   -0.026172  
 
 Finite differences POTIM=  1.500000000000000E-002
  LATTYP: Found a hexagonal cell.
 ALAT       =    10.4600000381
 C/A-ratio  =     2.1032504704
  
  Lattice vectors:
  
 A1 = (   5.2300000190,  -9.0586257566,   0.0000000000)
 A2 = ( -10.4600000381,   0.0000000000,   0.0000000000)
 A3 = (   0.0000000000,   0.0000000000, -22.0000000000)


Analysis of symmetry for initial positions (statically):
=====================================================================
 Subroutine PRICEL returns:
 Original cell was already a primitive cell.
 

 Routine SETGRP: Setting up the symmetry group for a 
 hexagonal supercell.


 Subroutine GETGRP returns: Found  1 space group operations
 (whereof  1 operations were pure point group operations)
 out of a pool of 24 trial point group operations.


The static configuration has the point symmetry C_1 .


Analysis of symmetry for dynamics (positions and initial velocities):
=====================================================================
 Subroutine PRICEL returns:
 Original cell was already a primitive cell.
 

 Routine SETGRP: Setting up the symmetry group for a 
 hexagonal supercell.


 Subroutine GETGRP returns: Found  1 space group operations
 (whereof  1 operations were pure point group operations)
 out of a pool of 24 trial point group operations.


The dynamic configuration has the point symmetry C_1 .


Analysis of constrained symmetry for selective dynamics:
=====================================================================
 Subroutine PRICEL returns:
 Original cell was already a primitive cell.
 

 Routine SETGRP: Setting up the symmetry group for a 
 hexagonal supercell.


 Subroutine GETGRP returns: Found  1 space group operations
 (whereof  1 operations were pure point group operations)
 out of a pool of 24 trial point group operations.


The constrained configuration has the point symmetry C_1 .


Analysis of structural, dynamic, and magnetic symmetry:
=====================================================================
 Subroutine PRICEL returns:
 Original cell was already a primitive cell.
 

 Routine SETGRP: Setting up the symmetry group for a 
 hexagonal supercell.


 Subroutine GETGRP returns: Found  1 space group operations
 (whereof  1 operations were pure point group operations)
 out of a pool of 24 trial point group operations.


The magnetic configuration has the point symmetry C_1 .


 Subroutine INISYM returns: Found  1 space group operations
 (whereof  1 operations are pure point group operations),
 and found     1 'primitive' translations

 
 KPOINTS: mesh auto                               

Automatic generation of k-mesh.
Space group operators:
 irot       det(A)        alpha          n_x          n_y          n_z        tau_x        tau_y        tau_z
    1     1.000000     0.000000     1.000000     0.000000     0.000000     0.000000     0.000000     0.000000
 
 Subroutine IBZKPT returns following result:
 ===========================================
 
 Found      4 irreducible k-points:
 
 Following reciprocal coordinates:
            Coordinates               Weight
  0.000000  0.000000  0.000000      1.000000
  0.500000 -0.000000  0.000000      1.000000
  0.000000  0.500000  0.000000      1.000000
  0.500000  0.500000  0.000000      1.000000
 
 Following cartesian coordinates:
            Coordinates               Weight
  0.000000  0.000000  0.000000      1.000000
  0.047801 -0.027598  0.000000      1.000000
  0.000000  0.055196  0.000000      1.000000
  0.047801  0.027598  0.000000      1.000000
 
 TETIRR: Found     12 inequivalent tetrahedra from       24
     LOOP+:  cpu time  651.7420: real time  655.6802
    4ORBIT:  cpu time    0.0000: real time    0.0000
 BZINTS: Fermi energy:  2.594145;782.000000 electrons
         Band energy:-398.651280;  BLOECHL correction: -0.162544

 total amount of memory used by VASP MPI-rank0   350549. kBytes
=======================================================================

   base      :      30000. kBytes
   nonlr-proj:      92304. kBytes
   fftplans  :      11305. kBytes
   grid      :     110428. kBytes
   one-center:       2519. kBytes
   wavefun   :     103993. kBytes
 
  
  
 General timing and accounting informations for this job:
 ========================================================
  
                  Total CPU time used (sec):     7030.107
                            User time (sec):     7005.407
                          System time (sec):       24.700
                         Elapsed time (sec):     7080.008
  
                   Maximum memory used (kb):      657444.
                   Average memory used (kb):           0.
  
                          Minor page faults:      2654033
                          Major page faults:          195
                 Voluntary context switches:         6779
