 vasp.5.4.4.18Apr17-6-g9f103f2a35 (build Oct 25 2019 11:13:22) complex          
  
 executed on             LinuxIFC date 2021.11.08  09:42:01
 running on   48 total cores
 distrk:  each k-point on   48 cores,    1 groups
 distr:  one band on NCORES_PER_BAND=   1 cores,   48 groups


--------------------------------------------------------------------------------------------------------


 INCAR:
 POTCAR:    PAW_PBE Pt 04Feb2005                  
 POTCAR:    PAW_PBE Fe 06Sep2000                  
 POTCAR:    PAW_PBE Co 02Aug2007                  
 POTCAR:    PAW_PBE Cu 22Jun2005                  
 POTCAR:    PAW_PBE Ni 02Aug2007                  
 POTCAR:    PAW_PBE H 15Jun2001                   

 ----------------------------------------------------------------------------- 
|                                                                             |
|           W    W    AA    RRRRR   N    N  II  N    N   GGGG   !!!           |
|           W    W   A  A   R    R  NN   N  II  NN   N  G    G  !!!           |
|           W    W  A    A  R    R  N N  N  II  N N  N  G       !!!           |
|           W WW W  AAAAAA  RRRRR   N  N N  II  N  N N  G  GGG   !            |
|           WW  WW  A    A  R   R   N   NN  II  N   NN  G    G                |
|           W    W  A    A  R    R  N    N  II  N    N   GGGG   !!!           |
|                                                                             |
|      For optimal performance we recommend to set                            |
|        NCORE= 4 - approx SQRT( number of cores)                             |
|      NCORE specifies how many cores store one orbital (NPAR=cpu/NCORE).     |
|      This setting can  greatly improve the performance of VASP for DFT.     |
|      The default,   NCORE=1            might be grossly inefficient         |
|      on modern multi-core architectures or massively parallel machines.     |
|      Do your own testing !!!!                                               |
|      Unfortunately you need to use the default for GW and RPA calculations. |
|      (for HF NCORE is supported but not extensively tested yet)             |
|                                                                             |
 ----------------------------------------------------------------------------- 

 POTCAR:    PAW_PBE Pt 04Feb2005                  
   VRHFIN =Pt: s1d9                                                             
   LEXCH  = PE                                                                  
   EATOM  =   729.1176 eV,   53.5886 Ry                                         
                                                                                
   TITEL  = PAW_PBE Pt 04Feb2005                                                
   LULTRA =        F    use ultrasoft PP ?                                      
   IUNSCR =        1    unscreen: 0-lin 1-nonlin 2-no                           
   RPACOR =    2.330    partial core radius                                     
   POMASS =  195.080; ZVAL   =   10.000    mass and valenz                      
   RCORE  =    2.600    outmost cutoff radius                                   
   RWIGS  =    2.750; RWIGS  =    1.455    wigner-seitz radius (au A)           
   ENMAX  =  230.283; ENMIN  =  172.712 eV                                      
   ICORE  =        3    local potential                                         
   LCOR   =        T    correct aug charges                                     
   LPAW   =        T    paw PP                                                  
   EAUG   =  358.966                                                            
   DEXC   =    0.000                                                            
   RMAX   =    2.658    core radius for proj-oper                               
   RAUG   =    1.300    factor for augmentation sphere                          
   RDEP   =    2.761    radius for radial grids                                 
   RDEPT  =    2.203    core radius for aug-charge                              
                                                                                
   Atomic configuration                                                         
   16 entries                                                                   
     n  l   j            E        occ.                                          
     1  0  0.50    -78401.1885   2.0000                                         
     2  0  0.50    -13770.7750   2.0000                                         
     2  1  1.50    -11931.0468   6.0000                                         
     3  0  0.50     -3234.7234   2.0000                                         
     3  1  1.50     -2699.2216   6.0000                                         
     3  2  2.50     -2119.5714  10.0000                                         
     4  0  0.50      -695.1528   2.0000                                         
     4  1  1.50      -519.6034   6.0000                                         
     4  2  2.50      -306.6786  10.0000                                         
     4  3  3.50       -70.1041  14.0000                                         
     5  0  0.50      -101.7747   2.0000                                         
     5  1  1.50       -55.9873   6.0000                                         
     5  2  2.50        -6.1423   9.0000                                         
     6  0  0.50        -5.6573   1.0000                                         
     6  1  1.50        -6.8029   0.0000                                         
     5  3  2.50        -1.3606   0.0000                                         
   Description                                                                  
     l       E           TYP  RCUT    TYP  RCUT                                 
     2     -6.1423404     23  2.500                                             
     2     -7.5029230     23  2.500                                             
     0     -5.6573207     23  2.500                                             
     0      0.7416693     23  2.500                                             
     1     -2.7211652     23  2.600                                             
     1     20.4087390     23  2.600                                             
     3     -1.3605826     23  2.500                                             
  local pseudopotential read in
  partial core-charges read in
  partial kinetic energy density read in
  atomic valenz-charges read in
  non local Contribution for L=           2  read in
    real space projection operators read in
  non local Contribution for L=           2  read in
    real space projection operators read in
  non local Contribution for L=           0  read in
    real space projection operators read in
  non local Contribution for L=           0  read in
    real space projection operators read in
  non local Contribution for L=           1  read in
    real space projection operators read in
  non local Contribution for L=           1  read in
    real space projection operators read in
    PAW grid and wavefunctions read in
 
   number of l-projection  operators is LMAX  =           6
   number of lm-projection operators is LMMAX =          18
 
 POTCAR:    PAW_PBE Fe 06Sep2000                  
   VRHFIN =Fe:  d7 s1                                                           
   LEXCH  = PE                                                                  
   EATOM  =   594.3153 eV,   43.6809 Ry                                         
                                                                                
   TITEL  = PAW_PBE Fe 06Sep2000                                                
   LULTRA =        F    use ultrasoft PP ?                                      
   IUNSCR =        1    unscreen: 0-lin 1-nonlin 2-no                           
   RPACOR =    2.000    partial core radius                                     
   POMASS =   55.847; ZVAL   =    8.000    mass and valenz                      
   RCORE  =    2.300    outmost cutoff radius                                   
   RWIGS  =    2.460; RWIGS  =    1.302    wigner-seitz radius (au A)           
   ENMAX  =  267.882; ENMIN  =  200.911 eV                                      
   RCLOC  =    1.701    cutoff for local pot                                    
   LCOR   =        T    correct aug charges                                     
   LPAW   =        T    paw PP                                                  
   EAUG   =  511.368                                                            
   DEXC   =    0.000                                                            
   RMAX   =    2.356    core radius for proj-oper                               
   RAUG   =    1.300    factor for augmentation sphere                          
   RDEP   =    2.442    radius for radial grids                                 
   RDEPT  =    1.890    core radius for aug-charge                              
                                                                                
   Atomic configuration                                                         
    9 entries                                                                   
     n  l   j            E        occ.                                          
     1  0  0.50     -6993.8440   2.0000                                         
     2  0  0.50      -814.6047   2.0000                                         
     2  1  1.50      -693.3689   6.0000                                         
     3  0  0.50       -89.4732   2.0000                                         
     3  1  1.50       -55.6373   6.0000                                         
     3  2  2.50        -3.8151   7.0000                                         
     4  0  0.50        -4.2551   1.0000                                         
     4  1  1.50        -3.4015   0.0000                                         
     4  3  2.50        -1.3606   0.0000                                         
   Description                                                                  
     l       E           TYP  RCUT    TYP  RCUT                                 
     2     -3.8151135     23  2.300                                             
     2     -5.1756961     23  2.300                                             
     0     -4.2550963     23  2.300                                             
     0      7.2035603     23  2.300                                             
     1     -2.7211652     23  2.300                                             
     1     18.4316424     23  2.300                                             
  local pseudopotential read in
  partial core-charges read in
  partial kinetic energy density read in
  atomic valenz-charges read in
  non local Contribution for L=           2  read in
    real space projection operators read in
  non local Contribution for L=           2  read in
    real space projection operators read in
  non local Contribution for L=           0  read in
    real space projection operators read in
  non local Contribution for L=           0  read in
    real space projection operators read in
  non local Contribution for L=           1  read in
    real space projection operators read in
  non local Contribution for L=           1  read in
    real space projection operators read in
    PAW grid and wavefunctions read in
 
   number of l-projection  operators is LMAX  =           6
   number of lm-projection operators is LMMAX =          18
 
 POTCAR:    PAW_PBE Co 02Aug2007                  
   VRHFIN =Co: d8 s1                                                            
   LEXCH  = PE                                                                  
   EATOM  =   813.3670 eV,   59.7808 Ry                                         
                                                                                
   TITEL  = PAW_PBE Co 02Aug2007                                                
   LULTRA =        F    use ultrasoft PP ?                                      
   IUNSCR =        1    unscreen: 0-lin 1-nonlin 2-no                           
   RPACOR =    2.000    partial core radius                                     
   POMASS =   58.933; ZVAL   =    9.000    mass and valenz                      
   RCORE  =    2.300    outmost cutoff radius                                   
   RWIGS  =    2.460; RWIGS  =    1.302    wigner-seitz radius (au A)           
   ENMAX  =  267.968; ENMIN  =  200.976 eV                                      
   RCLOC  =    1.203    cutoff for local pot                                    
   LCOR   =        T    correct aug charges                                     
   LPAW   =        T    paw PP                                                  
   EAUG   =  477.818                                                            
   DEXC   =    0.000                                                            
   RMAX   =    2.360    core radius for proj-oper                               
   RAUG   =    1.300    factor for augmentation sphere                          
   RDEP   =    2.393    radius for radial grids                                 
   RDEPT  =    1.864    core radius for aug-charge                              
                                                                                
   Atomic configuration                                                         
    9 entries                                                                   
     n  l   j            E        occ.                                          
     1  0  0.50     -7587.6674   2.0000                                         
     2  0  0.50      -893.6084   2.0000                                         
     2  1  1.50      -764.5805   6.0000                                         
     3  0  0.50       -97.5973   2.0000                                         
     3  1  1.50       -60.9648   6.0000                                         
     3  2  2.50        -4.2382   8.0000                                         
     4  0  0.50        -4.3746   1.0000                                         
     4  1  1.50        -4.0817   0.0000                                         
     4  3  2.50        -1.3606   0.0000                                         
   Description                                                                  
     l       E           TYP  RCUT    TYP  RCUT                                 
     2     -4.2382362     23  2.300                                             
     2     -5.5988188     23  2.300                                             
     0     -4.3745797     23  2.300                                             
     0      5.7660125     23  2.300                                             
     1     -2.7211652     23  2.300                                             
     1     16.9860234     23  2.300                                             
  local pseudopotential read in
  partial core-charges read in
  partial kinetic energy density read in
  atomic valenz-charges read in
  non local Contribution for L=           2  read in
    real space projection operators read in
  non local Contribution for L=           2  read in
    real space projection operators read in
  non local Contribution for L=           0  read in
    real space projection operators read in
  non local Contribution for L=           0  read in
    real space projection operators read in
  non local Contribution for L=           1  read in
    real space projection operators read in
  non local Contribution for L=           1  read in
    real space projection operators read in
    PAW grid and wavefunctions read in
 
   number of l-projection  operators is LMAX  =           6
   number of lm-projection operators is LMMAX =          18
 
 POTCAR:    PAW_PBE Cu 22Jun2005                  
   VRHFIN =Cu: d10 p1                                                           
   LEXCH  = PE                                                                  
   EATOM  =  1390.9808 eV,  102.2342 Ry                                         
                                                                                
   TITEL  = PAW_PBE Cu 22Jun2005                                                
   LULTRA =        F    use ultrasoft PP ?                                      
   IUNSCR =        1    unscreen: 0-lin 1-nonlin 2-no                           
   RPACOR =    2.000    partial core radius                                     
   POMASS =   63.546; ZVAL   =   11.000    mass and valenz                      
   RCORE  =    2.300    outmost cutoff radius                                   
   RWIGS  =    2.200; RWIGS  =    1.164    wigner-seitz radius (au A)           
   ENMAX  =  295.446; ENMIN  =  221.585 eV                                      
   ICORE  =        3    local potential                                         
   LCOR   =        T    correct aug charges                                     
   LPAW   =        T    paw PP                                                  
   EAUG   =  586.980                                                            
   DEXC   =    0.000                                                            
   RMAX   =    2.344    core radius for proj-oper                               
   RAUG   =    1.300    factor for augmentation sphere                          
   RDEP   =    2.302    radius for radial grids                                 
   RDEPT  =    1.771    core radius for aug-charge                              
                                                                                
   Atomic configuration                                                         
    9 entries                                                                   
     n  l   j            E        occ.                                          
     1  0  0.50     -8850.2468   2.0000                                         
     2  0  0.50     -1062.3498   2.0000                                         
     2  1  1.50      -916.8226   6.0000                                         
     3  0  0.50      -114.6929   2.0000                                         
     3  1  1.50       -72.1325   6.0000                                         
     3  2  2.50        -5.0394  10.0000                                         
     4  0  0.50        -4.6097   1.0000                                         
     4  1  0.50        -4.0817   0.0000                                         
     4  3  2.50        -1.3606   0.0000                                         
   Description                                                                  
     l       E           TYP  RCUT    TYP  RCUT                                 
     2     -5.0393973     23  2.200                                             
     2     10.8846608     23  2.200                                             
     0     -4.6097109     23  2.200                                             
     0      8.2520465     23  2.200                                             
     1     -2.7211652     23  2.200                                             
     1     21.7055443     23  2.200                                             
     3      2.7211652     23  2.300                                             
  local pseudopotential read in
  partial core-charges read in
  partial kinetic energy density read in
  atomic valenz-charges read in
  non local Contribution for L=           2  read in
    real space projection operators read in
  non local Contribution for L=           2  read in
    real space projection operators read in
  non local Contribution for L=           0  read in
    real space projection operators read in
  non local Contribution for L=           0  read in
    real space projection operators read in
  non local Contribution for L=           1  read in
    real space projection operators read in
  non local Contribution for L=           1  read in
    real space projection operators read in
    PAW grid and wavefunctions read in
 
   number of l-projection  operators is LMAX  =           6
   number of lm-projection operators is LMMAX =          18
 
 POTCAR:    PAW_PBE Ni 02Aug2007                  
   VRHFIN =Ni:                                                                  
   LEXCH  = PE                                                                  
   EATOM  =  1077.6739 eV,   79.2068 Ry                                         
                                                                                
   TITEL  = PAW_PBE Ni 02Aug2007                                                
   LULTRA =        F    use ultrasoft PP ?                                      
   IUNSCR =        1    unscreen: 0-lin 1-nonlin 2-no                           
   RPACOR =    2.000    partial core radius                                     
   POMASS =   58.690; ZVAL   =   10.000    mass and valenz                      
   RCORE  =    2.300    outmost cutoff radius                                   
   RWIGS  =    2.430; RWIGS  =    1.286    wigner-seitz radius (au A)           
   ENMAX  =  269.532; ENMIN  =  202.149 eV                                      
   RCLOC  =    1.201    cutoff for local pot                                    
   LCOR   =        T    correct aug charges                                     
   LPAW   =        T    paw PP                                                  
   EAUG   =  544.565                                                            
   DEXC   =    0.000                                                            
   RMAX   =    2.357    core radius for proj-oper                               
   RAUG   =    1.300    factor for augmentation sphere                          
   RDEP   =    2.390    radius for radial grids                                 
   RDEPT  =    1.838    core radius for aug-charge                              
                                                                                
   Atomic configuration                                                         
    9 entries                                                                   
     n  l   j            E        occ.                                          
     1  0  0.50     -8206.4253   2.0000                                         
     2  0  0.50      -976.1748   2.0000                                         
     2  1  1.50      -839.0571   6.0000                                         
     3  0  0.50      -105.9991   2.0000                                         
     3  1  1.50       -66.4603   6.0000                                         
     3  2  2.50        -4.6458   9.0000                                         
     4  0  0.50        -4.4926   1.0000                                         
     4  1  1.50        -4.0817   0.0000                                         
     4  3  2.50        -1.3606   0.0000                                         
   Description                                                                  
     l       E           TYP  RCUT    TYP  RCUT                                 
     2     -4.6457903     23  2.300                                             
     2     -6.0063729     23  2.300                                             
     0     -4.4925590     23  2.300                                             
     0      5.0102601     23  2.300                                             
     1     -2.7211652     23  2.300                                             
     1     16.5183231     23  2.300                                             
  local pseudopotential read in
  partial core-charges read in
  partial kinetic energy density read in
  atomic valenz-charges read in
  non local Contribution for L=           2  read in
    real space projection operators read in
  non local Contribution for L=           2  read in
    real space projection operators read in
  non local Contribution for L=           0  read in
    real space projection operators read in
  non local Contribution for L=           0  read in
    real space projection operators read in
  non local Contribution for L=           1  read in
    real space projection operators read in
  non local Contribution for L=           1  read in
    real space projection operators read in
    PAW grid and wavefunctions read in
 
   number of l-projection  operators is LMAX  =           6
   number of lm-projection operators is LMMAX =          18
 
 POTCAR:    PAW_PBE H 15Jun2001                   
   VRHFIN =H: ultrasoft test                                                    
   LEXCH  = PE                                                                  
   EATOM  =    12.4884 eV,    0.9179 Ry                                         
                                                                                
   TITEL  = PAW_PBE H 15Jun2001                                                 
   LULTRA =        F    use ultrasoft PP ?                                      
   IUNSCR =        0    unscreen: 0-lin 1-nonlin 2-no                           
   RPACOR =    0.000    partial core radius                                     
   POMASS =    1.000; ZVAL   =    1.000    mass and valenz                      
   RCORE  =    1.100    outmost cutoff radius                                   
   RWIGS  =    0.700; RWIGS  =    0.370    wigner-seitz radius (au A)           
   ENMAX  =  250.000; ENMIN  =  200.000 eV                                      
   RCLOC  =    0.701    cutoff for local pot                                    
   LCOR   =        T    correct aug charges                                     
   LPAW   =        T    paw PP                                                  
   EAUG   =  400.000                                                            
   RMAX   =    1.123    core radius for proj-oper                               
   RAUG   =    1.200    factor for augmentation sphere                          
   RDEP   =    1.112    radius for radial grids                                 
   RDEPT  =    0.926    core radius for aug-charge                              
                                                                                
   Atomic configuration                                                         
    2 entries                                                                   
     n  l   j            E        occ.                                          
     1  0  0.50        -6.4927   1.0000                                         
     2  1  0.50        -3.4015   0.0000                                         
   Description                                                                  
     l       E           TYP  RCUT    TYP  RCUT                                 
     0     -6.4927494     23  1.100                                             
     0      6.8029130     23  1.100                                             
     1     -4.0817478     23  1.100                                             
  local pseudopotential read in
  atomic valenz-charges read in
  non local Contribution for L=           0  read in
    real space projection operators read in
  non local Contribution for L=           0  read in
    real space projection operators read in
  non local Contribution for L=           1  read in
    real space projection operators read in
    PAW grid and wavefunctions read in
 
   number of l-projection  operators is LMAX  =           3
   number of lm-projection operators is LMMAX =           5
 
 Optimization of the real space projectors (new method)

 maximal supplied QI-value         = 14.36
 optimisation between [QCUT,QGAM] = [ 11.92, 23.98] = [ 39.79,161.09] Ry 
 Optimized for a Real-space Cutoff    1.49 Angstroem

   l    n(q)    QCUT    max X(q) W(low)/X(q) W(high)/X(q)  e(spline) 
   2     10    11.920    66.195    0.79E-04    0.18E-03    0.24E-06
   2     10    11.920    64.643    0.81E-04    0.19E-03    0.24E-06
   0     11    11.920    95.520    0.28E-04    0.54E-04    0.18E-06
   0     11    11.920    63.403    0.27E-04    0.52E-04    0.17E-06
   1     10    11.920    19.961    0.18E-04    0.11E-03    0.23E-06
   1     10    11.920    13.289    0.25E-04    0.87E-04    0.19E-06
 Optimization of the real space projectors (new method)

 maximal supplied QI-value         = 16.25
 optimisation between [QCUT,QGAM] = [ 11.86, 23.89] = [ 39.41,159.82] Ry 
 Optimized for a Real-space Cutoff    1.49 Angstroem

   l    n(q)    QCUT    max X(q) W(low)/X(q) W(high)/X(q)  e(spline) 
   2     10    11.864    80.901    0.13E-03    0.23E-03    0.37E-06
   2     10    11.864    75.754    0.13E-03    0.23E-03    0.38E-06
   0     11    11.864    58.752    0.44E-04    0.11E-04    0.20E-06
   0     11    11.864    30.679    0.36E-04    0.10E-04    0.18E-06
   1     10    11.864    17.977    0.31E-04    0.45E-04    0.10E-06
   1     10    11.864    13.559    0.25E-04    0.37E-04    0.89E-07
 Optimization of the real space projectors (new method)

 maximal supplied QI-value         = 16.25
 optimisation between [QCUT,QGAM] = [ 11.86, 23.89] = [ 39.41,159.82] Ry 
 Optimized for a Real-space Cutoff    1.33 Angstroem

   l    n(q)    QCUT    max X(q) W(low)/X(q) W(high)/X(q)  e(spline) 
   2      9    11.864    65.824    0.22E-03    0.53E-03    0.26E-06
   2      9    11.864    61.429    0.22E-03    0.53E-03    0.26E-06
   0      9    11.864    56.174    0.21E-03    0.32E-04    0.15E-06
   0      9    11.864    31.263    0.19E-03    0.30E-04    0.14E-06
   1      9    11.864    19.828    0.63E-04    0.30E-03    0.16E-06
   1      9    11.864    15.139    0.49E-04    0.25E-03    0.13E-06
 Optimization of the real space projectors (new method)

 maximal supplied QI-value         = 16.25
 optimisation between [QCUT,QGAM] = [ 11.86, 23.89] = [ 39.41,159.82] Ry 
 Optimized for a Real-space Cutoff    1.49 Angstroem

   l    n(q)    QCUT    max X(q) W(low)/X(q) W(high)/X(q)  e(spline) 
   2     10    11.864     4.610    0.10E-03    0.20E-03    0.29E-06
   2     10    11.864     8.522    0.17E-03    0.33E-03    0.50E-06
   0     11    11.864    51.609    0.52E-04    0.55E-04    0.33E-06
   0     11    11.864    27.747    0.46E-04    0.52E-04    0.31E-06
   1     10    11.864    20.408    0.54E-04    0.25E-04    0.21E-06
   1     10    11.864    13.425    0.48E-04    0.22E-04    0.18E-06
 Optimization of the real space projectors (new method)

 maximal supplied QI-value         = 16.25
 optimisation between [QCUT,QGAM] = [ 11.86, 23.89] = [ 39.41,159.82] Ry 
 Optimized for a Real-space Cutoff    1.33 Angstroem

   l    n(q)    QCUT    max X(q) W(low)/X(q) W(high)/X(q)  e(spline) 
   2      9    11.864    60.317    0.21E-03    0.51E-03    0.25E-06
   2      9    11.864    55.921    0.21E-03    0.51E-03    0.26E-06
   0      9    11.864    51.690    0.22E-03    0.30E-04    0.17E-06
   0      9    11.864    30.015    0.20E-03    0.28E-04    0.15E-06
   1      9    11.864    18.849    0.76E-04    0.33E-03    0.17E-06
   1      9    11.864    14.624    0.60E-04    0.28E-03    0.15E-06
 Optimization of the real space projectors (new method)

 maximal supplied QI-value         = 34.20
 optimisation between [QCUT,QGAM] = [ 11.97, 23.94] = [ 40.13,160.53] Ry 
 Optimized for a Real-space Cutoff    1.18 Angstroem

   l    n(q)    QCUT    max X(q) W(low)/X(q) W(high)/X(q)  e(spline) 
   0      8    11.971    19.460    0.15E-03    0.31E-03    0.25E-06
   0      8    11.971    12.209    0.13E-03    0.29E-03    0.25E-06
   1      8    11.971     4.655    0.22E-03    0.24E-03    0.21E-06
  PAW_PBE Pt 04Feb2005                  :
 energy of atom  1       EATOM= -729.1176
 kinetic energy error for atom=    0.0021 (will be added to EATOM!!)
  PAW_PBE Fe 06Sep2000                  :
 energy of atom  2       EATOM= -594.3153
 kinetic energy error for atom=    0.0024 (will be added to EATOM!!)
  PAW_PBE Co 02Aug2007                  :
 energy of atom  3       EATOM= -813.3670
 kinetic energy error for atom=    0.0026 (will be added to EATOM!!)
  PAW_PBE Cu 22Jun2005                  :
 energy of atom  4       EATOM=-1390.9808
 kinetic energy error for atom=    0.0036 (will be added to EATOM!!)
  PAW_PBE Ni 02Aug2007                  :
 energy of atom  5       EATOM=-1077.6739
 kinetic energy error for atom=    0.0027 (will be added to EATOM!!)
  PAW_PBE H 15Jun2001                   :
 energy of atom  6       EATOM=  -12.4884
 kinetic energy error for atom=    0.0008 (will be added to EATOM!!)
 
 
 POSCAR: 10.46-high                              
  positions in cartesian coordinates
  No initial velocities read in
 exchange correlation table for  LEXCH =        8
   RHO(1)=    0.500       N(1)  =     2000
   RHO(2)=  100.500       N(2)  =     4000
 


--------------------------------------------------------------------------------------------------------


 ion  position               nearest neighbor table
   1  0.777  0.868  0.323-  23 2.58  65 2.60  33 2.63   3 2.64  56 2.67  32 2.69  41 2.71   2 2.74
                            15 2.75  40 2.85   8 2.90  16 2.93
   2  0.038  0.868  0.325-  26 2.60  34 2.60  58 2.62   3 2.64  41 2.66  38 2.67  32 2.73   1 2.74
                            10 2.75  79 2.76   8 2.80  20 3.05
   3  0.032  0.619  0.326-   6 2.63   4 2.64   1 2.64   2 2.64  50 2.67  32 2.70  34 2.71  33 2.71
                            68 2.74   9 2.78  16 2.85  20 3.06
   4  0.027  0.369  0.326-  77 2.57  26 2.59  33 2.63   3 2.64  50 2.67   6 2.70   5 2.73  36 2.76
                            42 2.81  14 2.85   9 2.85  11 3.01
   5  0.288  0.108  0.323-  58 2.53  65 2.55  61 2.59  26 2.61  23 2.62   6 2.71   4 2.73  36 2.73
                            39 2.74  12 2.75  14 2.88  17 2.91
   6  0.285  0.369  0.323-  23 2.61   3 2.63  22 2.67  34 2.67  68 2.68  36 2.70  71 2.70   4 2.70
                             5 2.71   9 2.83  17 2.87  29 2.88
   7  0.865  0.705  0.122-  43 2.51  74 2.52  60 2.55  55 2.56  45 2.63  56 2.63  69 2.65  64 2.66
                            72 2.66  32 2.67  25 2.69  50 2.75
   8  0.871  0.951  0.432-  16 2.61  15 2.62  10 2.62  13 2.62  20 2.62  21 2.63   2 2.80  41 2.89
                             1 2.90
   9  0.120  0.454  0.433-  16 2.61  29 2.62  20 2.63  14 2.63  11 2.63  17 2.64   3 2.78   6 2.83
                             4 2.85
  10  0.122  0.952  0.429-  18 2.61  12 2.61  14 2.62   8 2.62  20 2.62  13 2.63   2 2.75  58 2.83
                            26 2.83
  11  0.870  0.454  0.447-  81 1.77  16 2.61  31 2.62  19 2.63   9 2.63  13 2.64  14 2.66   4 3.01
                            33 3.08  77 3.17
  12  0.372  0.951  0.430-  18 2.58  31 2.60  10 2.61  14 2.62  15 2.62  17 2.62   5 2.75  65 2.77
                            58 2.85
  13  0.870  0.202  0.436-  81 1.75  21 2.61   8 2.62  19 2.62  10 2.63  14 2.63  11 2.64  26 2.94
                            41 2.94  77 2.95
  14  0.122  0.201  0.435-  17 2.61  12 2.62  10 2.62   9 2.63  13 2.63  11 2.66   4 2.85   5 2.88
                            26 2.97
  15  0.621  0.951  0.430-  16 2.61  31 2.61  17 2.62  12 2.62   8 2.62  21 2.63   1 2.75  23 2.83
                            65 2.87
  16  0.870  0.702  0.437-  15 2.61  11 2.61  31 2.61   9 2.61   8 2.61  20 2.64   3 2.85   1 2.93
                            33 2.97
  17  0.371  0.201  0.434-  14 2.61  21 2.61  15 2.62  12 2.62  29 2.63   9 2.64   6 2.87  23 2.87
                             5 2.91
  18  0.372  0.704  0.430-  12 2.58  31 2.59  10 2.61  19 2.62  29 2.63  20 2.64  51 2.72  34 2.75
                            58 2.83
  19  0.622  0.454  0.426-  31 2.60  18 2.62  13 2.62  11 2.63  21 2.64  29 2.64  51 2.68  77 2.71
                            22 2.75
  20  0.121  0.703  0.445-  29 2.62   8 2.62  10 2.62   9 2.63  18 2.64  16 2.64   2 3.05  34 3.06
                             3 3.06
  21  0.620  0.203  0.432-  13 2.61  17 2.61  29 2.62  15 2.63   8 2.63  19 2.64  41 2.86  22 2.88
                            23 2.88
  22  0.538  0.373  0.322-  77 2.53  51 2.58  41 2.60  34 2.61  30 2.64  70 2.66   6 2.67  23 2.69
                            71 2.73  19 2.75  21 2.88  29 2.90
  23  0.533  0.118  0.322-   1 2.58   6 2.61   5 2.62  41 2.65  65 2.69  22 2.69  71 2.71  40 2.77
                            39 2.78  15 2.83  17 2.87  21 2.88
  24  0.539  0.118  0.032-  63 2.57  46 2.57  55 2.58  66 2.61  43 2.64  52 2.64  54 2.65  62 2.68
                            67 2.68
  25  0.123  0.448  0.123-  54 2.50  48 2.52  73 2.58  63 2.59  45 2.60  76 2.63  64 2.63  36 2.65
                            68 2.66  72 2.67   7 2.69  50 2.77
  26  0.033  0.119  0.320-  41 2.58   4 2.59   2 2.60  61 2.60   5 2.61  77 2.64  79 2.66  58 2.67
                            42 2.68  10 2.83  13 2.94  14 2.97
  27  0.033  0.126  0.027-  48 2.58  78 2.61  52 2.61  73 2.61  66 2.61  49 2.62  28 2.64  59 2.70
                            44 2.70
  28  0.114  0.959  0.126-  79 2.57  73 2.59  44 2.60  69 2.61  59 2.62  49 2.63  47 2.63  38 2.64
                            27 2.64  61 2.66  64 2.67  35 2.74
  29  0.370  0.453  0.434-  21 2.62   9 2.62  20 2.62  18 2.63  17 2.63  19 2.64  34 2.85   6 2.88
                            22 2.90
  30  0.454  0.529  0.220-  71 2.56  70 2.57  76 2.60  68 2.61  57 2.62  22 2.64  35 2.65  37 2.65
                            80 2.66  38 2.69  34 2.74  51 2.79
  31  0.620  0.703  0.436-  18 2.59  12 2.60  19 2.60  15 2.61  16 2.61  11 2.62  33 2.81  51 2.86
                            65 2.87
  32  0.949  0.783  0.224-  50 2.58  56 2.60  68 2.62  64 2.65  79 2.66   7 2.67   1 2.69  40 2.69
                            38 2.70   3 2.70   2 2.73  69 2.74
  33  0.773  0.618  0.324-  51 2.50  77 2.54  65 2.55   1 2.63   4 2.63  37 2.67  50 2.68   3 2.71
                            56 2.74  31 2.81  16 2.97  11 3.08
  34  0.289  0.622  0.325-  51 2.54  58 2.55   2 2.60  22 2.61   6 2.67  38 2.70   3 2.71  30 2.74
                            68 2.74  18 2.75  29 2.85  20 3.06
  35  0.378  0.700  0.123-  53 2.48  59 2.53  75 2.54  60 2.57  57 2.59  47 2.60  30 2.65  64 2.68
                            76 2.68  80 2.70  38 2.73  28 2.74
  36  0.199  0.285  0.223-  73 2.61  71 2.61  61 2.62  50 2.63  63 2.63  68 2.63  25 2.65  42 2.65
                            39 2.69   6 2.70   5 2.73   4 2.76
  37  0.699  0.545  0.219-  56 2.52  80 2.54  60 2.55  50 2.57  72 2.60  57 2.61  30 2.65  33 2.67
                            42 2.68  70 2.69  77 2.74  51 2.79
  38  0.202  0.792  0.224-  61 2.52  80 2.58  58 2.58  79 2.62  28 2.64  64 2.66   2 2.67  68 2.69
                            30 2.69  32 2.70  34 2.70  35 2.73
  39  0.451  0.023  0.219-  80 2.50  61 2.53  47 2.53  56 2.54  55 2.55  63 2.60  40 2.68  36 2.69
                            65 2.71   5 2.74  71 2.75  23 2.78
  40  0.696  0.043  0.215-  46 2.54  69 2.56  70 2.57  71 2.59  55 2.59  79 2.61  56 2.68  39 2.68
                            32 2.69  23 2.77  41 2.78   1 2.85
  41  0.784  0.122  0.321-  26 2.58  77 2.59  22 2.60  23 2.65  70 2.66   2 2.66  79 2.67   1 2.71
                            40 2.78  21 2.86   8 2.89  13 2.94
  42  0.947  0.281  0.218-  49 2.52  79 2.55  70 2.55  72 2.57  73 2.62  36 2.65  61 2.67  50 2.68
                            37 2.68  26 2.68  77 2.73   4 2.81
  43  0.789  0.864  0.029-   7 2.51  69 2.56  45 2.62  67 2.63  24 2.64  55 2.64  74 2.65  66 2.67
                            44 2.67
  44  0.045  0.863  0.030-  75 2.54  45 2.58  64 2.58  28 2.60  59 2.60  69 2.61  43 2.67  66 2.70
                            27 2.70
  45  0.042  0.618  0.028-  75 2.52  54 2.57  44 2.58  25 2.60  64 2.61  43 2.62  48 2.62   7 2.63
                            74 2.72
  46  0.618  0.214  0.124-  76 2.47  57 2.50  40 2.54  49 2.54  62 2.55  70 2.55  24 2.57  71 2.62
                            66 2.63  69 2.64  63 2.64  55 2.85
  47  0.369  0.952  0.123-  52 2.46  59 2.49  55 2.52  39 2.53  67 2.56  73 2.60  35 2.60  60 2.60
                            63 2.62  28 2.63  61 2.71  80 2.74
  48  0.025  0.377  0.032-  72 2.47  74 2.50  25 2.52  78 2.55  73 2.57  27 2.58  45 2.62  52 2.75
                            54 2.76
  49  0.863  0.211  0.123-  78 2.46  57 2.51  72 2.52  42 2.52  46 2.54  66 2.59  70 2.60  27 2.62
                            28 2.63  69 2.63  79 2.65  73 2.68
  50  0.948  0.537  0.226-  37 2.57  32 2.58  56 2.61  36 2.63  68 2.65   3 2.67   4 2.67  33 2.68
                            42 2.68  72 2.71   7 2.75  25 2.77
  51  0.532  0.622  0.326-  33 2.50  65 2.51  34 2.54  58 2.55  22 2.58  77 2.61  80 2.63  19 2.68
                            18 2.72  37 2.79  30 2.79  31 2.86
  52  0.288  0.114  0.033-  47 2.46  73 2.51  59 2.56  63 2.58  27 2.61  67 2.62  24 2.64  54 2.74
                            48 2.75
  53  0.550  0.613  0.036-  57 2.44  60 2.45  74 2.45  78 2.47  35 2.48  67 2.55  62 2.57  59 2.70
                            75 2.77
  54  0.290  0.375  0.032-  76 2.45  75 2.49  25 2.50  45 2.57  62 2.58  63 2.60  24 2.65  52 2.74
                            48 2.76
  55  0.614  0.943  0.125-  60 2.45  47 2.52  67 2.53  39 2.55  56 2.55   7 2.56  24 2.58  40 2.59
                            63 2.62  43 2.64  69 2.70  46 2.85
  56  0.699  0.786  0.221-  37 2.52  39 2.54  55 2.55  60 2.56  80 2.59  32 2.60  50 2.61   7 2.63
                             1 2.67  40 2.68  65 2.72  33 2.74
  57  0.623  0.450  0.124-  53 2.44  78 2.46  46 2.50  49 2.51  62 2.54  72 2.55  35 2.59  70 2.60
                            37 2.61  76 2.61  30 2.62  60 2.66
  58  0.289  0.866  0.321-  65 2.50   5 2.53  80 2.55  51 2.55  34 2.55  61 2.56  38 2.58   2 2.62
                            26 2.67  18 2.83  10 2.83  12 2.85
  59  0.291  0.868  0.031-  47 2.49  35 2.53  52 2.56  67 2.56  44 2.60  28 2.62  75 2.68  53 2.70
                            27 2.70
  60  0.620  0.706  0.124-  55 2.45  53 2.45  74 2.51  67 2.52  37 2.55   7 2.55  56 2.56  35 2.57
                            47 2.60  72 2.64  57 2.66  80 2.71
  61  0.206  0.031  0.226-  38 2.52  39 2.53  58 2.56  80 2.58   5 2.59  26 2.60  36 2.62  28 2.66
                            79 2.66  42 2.67  47 2.71  73 2.73
  62  0.536  0.375  0.030-  76 2.52  57 2.54  46 2.55  53 2.57  78 2.57  54 2.58  75 2.59  66 2.64
                            24 2.68
  63  0.372  0.201  0.127-  71 2.54  24 2.57  76 2.57  52 2.58  25 2.59  39 2.60  73 2.60  54 2.60
                            55 2.62  47 2.62  36 2.63  46 2.64
  64  0.122  0.700  0.126-  75 2.51  44 2.58  68 2.60  45 2.61  25 2.63  32 2.65  38 2.66   7 2.66
                            28 2.67  76 2.67  35 2.68  69 2.69
  65  0.530  0.863  0.323-  58 2.50  51 2.51  33 2.55  80 2.55   5 2.55   1 2.60  23 2.69  39 2.71
                            56 2.72  12 2.77  15 2.87  31 2.87
  66  0.787  0.121  0.027-  69 2.55  49 2.59  27 2.61  24 2.61  78 2.62  46 2.63  62 2.64  43 2.67
                            44 2.70
  67  0.538  0.862  0.029-  60 2.52  55 2.53  53 2.55  59 2.56  47 2.56  74 2.59  52 2.62  43 2.63
                            24 2.68
  68  0.202  0.535  0.223-  71 2.58  64 2.60  30 2.61  32 2.62  36 2.63  50 2.65  25 2.66   6 2.68
                            38 2.69  76 2.71  34 2.74   3 2.74
  69  0.865  0.958  0.122-  66 2.55  40 2.56  43 2.56  44 2.61  28 2.61  79 2.62  49 2.63  46 2.64
                             7 2.65  64 2.69  55 2.70  32 2.74
  70  0.701  0.286  0.221-  42 2.55  46 2.55  30 2.57  40 2.57  79 2.59  49 2.60  57 2.60  71 2.65
                            41 2.66  22 2.66  77 2.67  37 2.69
  71  0.447  0.288  0.221-  63 2.54  30 2.56  76 2.58  68 2.58  40 2.59  36 2.61  46 2.62  70 2.65
                             6 2.70  23 2.71  22 2.73  39 2.75
  72  0.868  0.449  0.124-  78 2.47  48 2.47  74 2.51  49 2.52  57 2.55  42 2.57  37 2.60  73 2.63
                            60 2.64   7 2.66  25 2.67  50 2.71
  73  0.123  0.202  0.124-  52 2.51  48 2.57  25 2.58  28 2.59  47 2.60  63 2.60  36 2.61  27 2.61
                            42 2.62  72 2.63  49 2.68  61 2.73
  74  0.784  0.614  0.032-  53 2.45  48 2.50  60 2.51  72 2.51   7 2.52  78 2.53  67 2.59  43 2.65
                            45 2.72
  75  0.284  0.616  0.034-  54 2.49  76 2.51  64 2.51  45 2.52  35 2.54  44 2.54  62 2.59  59 2.68
                            53 2.77
  76  0.376  0.444  0.123-  54 2.45  46 2.47  75 2.51  62 2.52  63 2.57  71 2.58  30 2.60  57 2.61
                            25 2.63  64 2.67  35 2.68  68 2.71
  77  0.780  0.372  0.321-  22 2.53  33 2.54   4 2.57  41 2.59  51 2.61  26 2.64  70 2.67  19 2.71
                            42 2.73  37 2.74  13 2.95  11 3.17
  78  0.783  0.373  0.034-  57 2.46  49 2.46  72 2.47  53 2.47  74 2.53  48 2.55  62 2.57  27 2.61
                            66 2.62
  79  0.948  0.038  0.221-  42 2.55  28 2.57  70 2.59  40 2.61  38 2.62  69 2.62  49 2.65  32 2.66
                            26 2.66  61 2.66  41 2.67   2 2.76
  80  0.452  0.784  0.226-  39 2.50  37 2.54  58 2.55  65 2.55  38 2.58  61 2.58  56 2.59  51 2.63
                            30 2.66  35 2.70  60 2.71  47 2.74
  81  0.881  0.311  0.494-  13 1.75  11 1.77
 
  LATTYP: Found a hexagonal cell.
 ALAT       =    10.4600000381
 C/A-ratio  =     2.1032504704
  
  Lattice vectors:
  
 A1 = (   5.2300000190,  -9.0586257566,   0.0000000000)
 A2 = ( -10.4600000381,   0.0000000000,   0.0000000000)
 A3 = (   0.0000000000,   0.0000000000, -22.0000000000)


Analysis of symmetry for initial positions (statically):
=====================================================================
 Subroutine PRICEL returns:
 Original cell was already a primitive cell.
 

 Routine SETGRP: Setting up the symmetry group for a 
 hexagonal supercell.


 Subroutine GETGRP returns: Found  1 space group operations
 (whereof  1 operations were pure point group operations)
 out of a pool of 24 trial point group operations.


The static configuration has the point symmetry C_1 .


Analysis of symmetry for dynamics (positions and initial velocities):
=====================================================================
 Subroutine PRICEL returns:
 Original cell was already a primitive cell.
 

 Routine SETGRP: Setting up the symmetry group for a 
 hexagonal supercell.


 Subroutine GETGRP returns: Found  1 space group operations
 (whereof  1 operations were pure point group operations)
 out of a pool of 24 trial point group operations.


The dynamic configuration has the point symmetry C_1 .


Analysis of constrained symmetry for selective dynamics:
=====================================================================
 Subroutine PRICEL returns:
 Original cell was already a primitive cell.
 

 Routine SETGRP: Setting up the symmetry group for a 
 hexagonal supercell.


 Subroutine GETGRP returns: Found  1 space group operations
 (whereof  1 operations were pure point group operations)
 out of a pool of 24 trial point group operations.


The constrained configuration has the point symmetry C_1 .


Analysis of structural, dynamic, and magnetic symmetry:
=====================================================================
 Subroutine PRICEL returns:
 Original cell was already a primitive cell.
 

 Routine SETGRP: Setting up the symmetry group for a 
 hexagonal supercell.


 Subroutine GETGRP returns: Found  1 space group operations
 (whereof  1 operations were pure point group operations)
 out of a pool of 24 trial point group operations.


The magnetic configuration has the point symmetry C_1 .


 Subroutine INISYM returns: Found  1 space group operations
 (whereof  1 operations are pure point group operations),
 and found     1 'primitive' translations

 
 
 KPOINTS: mesh auto                               

Automatic generation of k-mesh.
Space group operators:
 irot       det(A)        alpha          n_x          n_y          n_z        tau_x        tau_y        tau_z
    1     1.000000     0.000000     1.000000     0.000000     0.000000     0.000000     0.000000     0.000000
 
 Subroutine IBZKPT returns following result:
 ===========================================
 
 Found      4 irreducible k-points:
 
 Following reciprocal coordinates:
            Coordinates               Weight
  0.000000  0.000000  0.000000      1.000000
  0.500000 -0.000000  0.000000      1.000000
  0.000000  0.500000  0.000000      1.000000
  0.500000  0.500000  0.000000      1.000000
 
 Following cartesian coordinates:
            Coordinates               Weight
  0.000000  0.000000  0.000000      1.000000
  0.047801 -0.027598  0.000000      1.000000
  0.000000  0.055196  0.000000      1.000000
  0.047801  0.027598  0.000000      1.000000
 
 TETIRR: Found     12 inequivalent tetrahedra from       24
 
 Subroutine IBZKPT_HF returns following result:
 ==============================================
 
 Found      4 k-points in 1st BZ
 the following      4 k-points will be used (e.g. in the exchange kernel)
 Following reciprocal coordinates:   # in IRBZ
  0.000000  0.000000  0.000000    0.25000000   1 t-inv F
  0.500000 -0.000000  0.000000    0.25000000   2 t-inv F
  0.000000  0.500000  0.000000    0.25000000   3 t-inv F
  0.500000  0.500000  0.000000    0.25000000   4 t-inv F


--------------------------------------------------------------------------------------------------------




 Dimension of arrays:
   k-points           NKPTS =      4   k-points in BZ     NKDIM =      4   number of bands    NBANDS=    624
   number of dos      NEDOS =    301   number of ions     NIONS =     81
   non local maximal  LDIM  =      6   non local SUM 2l+1 LMDIM =     18
   total plane-waves  NPLWV = ******
   max r-space proj   IRMAX =   7217   max aug-charges    IRDMAX=  31436
   dimension x,y,z NGX =    80 NGY =   80 NGZ =  168
   dimension x,y,z NGXF=   160 NGYF=  160 NGZF=  336
   support grid    NGXF=   160 NGYF=  160 NGZF=  336
   ions per type =              42  10   9  10   9   1
   NGX,Y,Z   is equivalent  to a cutoff of  12.71, 12.71, 12.70 a.u.
   NGXF,Y,Z  is equivalent  to a cutoff of  25.43, 25.43, 25.39 a.u.

 SYSTEM =  Pt111                                   
 POSCAR =  10.46-high                              

 Startparameter for this run:
   NWRITE =      2    write-flag & timer
   PREC   = accura    normal or accurate (medium, high low for compatibility)
   ISTART =      0    job   : 0-new  1-cont  2-samecut
   ICHARG =      2    charge: 1-file 2-atom 10-const
   ISPIN  =      2    spin polarized calculation?
   LNONCOLLINEAR =      F non collinear calculations
   LSORBIT =      F    spin-orbit coupling
   INIWAV =      1    electr: 0-lowe 1-rand  2-diag
   LASPH  =      F    aspherical Exc in radial PAW
   METAGGA=      F    non-selfconsistent MetaGGA calc.

 Electronic Relaxation 1
   ENCUT  =  550.0 eV  40.42 Ry    6.36 a.u.  20.00 20.00 42.07*2*pi/ulx,y,z
   ENINI  =  550.0     initial cutoff
   ENAUG  =  587.0 eV  augmentation charge cutoff
   NELM   =    200;   NELMIN=  2; NELMDL= -5     # of ELM steps 
   EDIFF  = 0.1E-04   stopping-criterion for ELM
   LREAL  =      T    real-space projection
   NLSPLINE    = F    spline interpolate recip. space projectors
   LCOMPAT=      F    compatible to vasp.4.4
   GGA_COMPAT  = T    GGA compatible to vasp.4.4-vasp.4.6
   LMAXPAW     = -100 max onsite density
   LMAXMIX     =    2 max onsite mixed and CHGCAR
   VOSKOWN=      0    Vosko Wilk Nusair interpolation
   ROPT   =   -0.00025  -0.00025  -0.00025  -0.00025
   ROPT   =   -0.00025  -0.00025
 Ionic relaxation
   EDIFFG = -.5E-01   stopping-criterion for IOM
   NSW    =   1009    number of steps for IOM
   NBLOCK =      1;   KBLOCK =   1009    inner block; outer block 
   IBRION =      5    ionic relax: 0-MD 1-quasi-New 2-CG
   NFREE  =      2    steps in history (QN), initial steepest desc. (CG)
   ISIF   =      2    stress and relaxation
   IWAVPR =     11    prediction:  0-non 1-charg 2-wave 3-comb
   ISYM   =      2    0-nonsym 1-usesym 2-fastsym
   LCORR  =      T    Harris-Foulkes like correction to forces

   POTIM  = 0.5000    time-step for ionic-motion
   TEIN   =    0.0    initial temperature
   TEBEG  =    0.0;   TEEND  =   0.0 temperature during run
   SMASS  =  -3.00    Nose mass-parameter (am)
   estimated Nose-frequenzy (Omega)   =  0.10E-29 period in steps =****** mass=  -0.250E-26a.u.
   SCALEE = 1.0000    scale energy and forces
   NPACO  =    256;   APACO  = 16.0  distance and # of slots for P.C.
   PSTRESS=    0.0 pullay stress

  Mass of Ions in am
   POMASS = 195.08 55.85 58.93 63.55 58.69  1.00
  Ionic Valenz
   ZVAL   =  10.00  8.00  9.00 11.00 10.00  1.00
  Atomic Wigner-Seitz radii
   RWIGS  =  -1.00 -1.00 -1.00 -1.00 -1.00 -1.00
  virtual crystal weights 
   VCA    =   1.00  1.00  1.00  1.00  1.00  1.00
   NELECT =     782.0000    total number of electrons
   NUPDOWN=      -1.0000    fix difference up-down

 DOS related values:
   EMIN   =  10.00;   EMAX   =-10.00  energy-range for DOS
   EFERMI =   0.00
   ISMEAR =    -5;   SIGMA  =   0.10  broadening in eV -4-tet -1-fermi 0-gaus

 Electronic relaxation 2 (details)
   IALGO  =     68    algorithm
   LDIAG  =      T    sub-space diagonalisation (order eigenvalues)
   LSUBROT=      F    optimize rotation matrix (better conditioning)
   TURBO    =      0    0=normal 1=particle mesh
   IRESTART =      0    0=no restart 2=restart with 2 vectors
   NREBOOT  =      0    no. of reboots
   NMIN     =      0    reboot dimension
   EREF     =   0.00    reference energy to select bands
   IMIX   =      4    mixing-type and parameters
     AMIX     =   0.40;   BMIX     =  1.00
     AMIX_MAG =   1.60;   BMIX_MAG =  1.00
     AMIN     =   0.10
     WC   =   100.;   INIMIX=   1;  MIXPRE=   1;  MAXMIX= -45

 Intra band minimization:
   WEIMIN = 0.0010     energy-eigenvalue tresh-hold
   EBREAK =  0.40E-08  absolut break condition
   DEPER  =   0.30     relativ break condition  

   TIME   =   0.40     timestep for ELM

  volume/ion in A,a.u.               =      25.74       173.67
  Fermi-wavevector in a.u.,A,eV,Ry     =   1.180696  2.231192 18.967115  1.394044
  Thomas-Fermi vector in A             =   2.316984
 
 Write flags
   LWAVE        =      F    write WAVECAR
   LDOWNSAMPLE  =      F    k-point downsampling of WAVECAR
   LCHARG       =      F    write CHGCAR
   LVTOT        =      F    write LOCPOT, total local potential
   LVHAR        =      F    write LOCPOT, Hartree potential only
   LELF         =      F    write electronic localiz. function (ELF)
   LORBIT       =      0    0 simple, 1 ext, 2 COOP (PROOUT), +10 PAW based schemes


 Dipole corrections
   LMONO  =      F    monopole corrections only (constant potential shift)
   LDIPOL =      F    correct potential (dipole corrections)
   IDIPOL =      0    1-x, 2-y, 3-z, 4-all directions 
   EPSILON=  1.0000000 bulk dielectric constant

 Exchange correlation treatment:
   GGA     =    --    GGA type
   LEXCH   =     8    internal setting for exchange type
   VOSKOWN=      0    Vosko Wilk Nusair interpolation
   LHFCALC =     F    Hartree Fock is set to
   LHFONE  =     F    Hartree Fock one center treatment
   AEXX    =    0.0000 exact exchange contribution

 Linear response parameters
   LEPSILON=     F    determine dielectric tensor
   LRPA    =     F    only Hartree local field effects (RPA)
   LNABLA  =     F    use nabla operator in PAW spheres
   LVEL    =     F    velocity operator in full k-point grid
   LINTERFAST=   F  fast interpolation
   KINTER  =     0    interpolate to denser k-point grid
   CSHIFT  =0.1000    complex shift for real part using Kramers Kronig
   OMEGAMAX=  -1.0    maximum frequency
   DEG_THRESHOLD= 0.2000000E-02 threshold for treating states as degnerate
   RTIME   =   -0.100 relaxation time in fs
  (WPLASMAI=    0.000 imaginary part of plasma frequency in eV, 0.658/RTIME)
   DFIELD  = 0.0000000 0.0000000 0.0000000 field for delta impulse in time
 
 Orbital magnetization related:
   ORBITALMAG=     F  switch on orbital magnetization
   LCHIMAG   =     F  perturbation theory with respect to B field
   DQ        =  0.001000  dq finite difference perturbation B field
   LLRAUG    =     F  two centre corrections for induced B field



--------------------------------------------------------------------------------------------------------


 finite differences
   using selective dynamics as specified on POSCAR
   WARNING: If single coordinates had been selected the selection of coordinates
            is made according to the corresponding   d i r e c t   coordinates!
            Don't support selection of single cartesian coordinates -- sorry ...
  !
 charge density and potential will be updated during run
 spin polarized calculation
 RMM-DIIS sequential band-by-band and
  variant of blocked Davidson during initial phase
 perform sub-space diagonalisation
    before iterative eigenvector-optimisation
 modified Broyden-mixing scheme, WC =      100.0
 initial mixing is a Kerker type mixing with AMIX =  0.4000 and BMIX =      1.0000
 Hartree-type preconditioning will be used
 using additional bands          233
 real space projection scheme for non local part
 use partial core corrections
 calculate Harris-corrections to forces 
   (improved forces if not selfconsistent)
 use gradient corrections 
 use of overlap-Matrix (Vanderbilt PP)
 Fermi weights with tetrahedron method with Bloechl corrections


--------------------------------------------------------------------------------------------------------


  energy-cutoff  :      550.00
  volume of cell :     2084.57
      direct lattice vectors                 reciprocal lattice vectors
    10.460000038  0.000000000  0.000000000     0.095602294 -0.055196010  0.000000000
     5.230000019  9.058625757  0.000000000     0.000000000  0.110392020  0.000000000
     0.000000000  0.000000000 22.000000000     0.000000000  0.000000000  0.045454545

  length of vectors
    10.460000038 10.460000038 22.000000000     0.110392020  0.110392020  0.045454545


 
 k-points in units of 2pi/SCALE and weight: mesh auto                               
   0.00000000  0.00000000  0.00000000       0.250
   0.04780115 -0.02759801  0.00000000       0.250
   0.00000000  0.05519601  0.00000000       0.250
   0.04780115  0.02759801  0.00000000       0.250
 
 k-points in reciprocal lattice and weights: mesh auto                               
   0.00000000  0.00000000  0.00000000       0.250
   0.50000000 -0.00000000  0.00000000       0.250
   0.00000000  0.50000000  0.00000000       0.250
   0.50000000  0.50000000  0.00000000       0.250
 
 position of ions in fractional coordinates (direct lattice) 
   0.77657096  0.86750405  0.32288543
   0.03773104  0.86826797  0.32481507
   0.03208952  0.61869455  0.32618130
   0.02670541  0.36918687  0.32601009
   0.28751726  0.10823962  0.32348132
   0.28505416  0.36888819  0.32338672
   0.86466887  0.70498578  0.12229985
   0.87148018  0.95134017  0.43226363
   0.11996888  0.45382538  0.43264389
   0.12159782  0.95152797  0.42917587
   0.86977306  0.45391048  0.44670789
   0.37151696  0.95061520  0.43026912
   0.86991475  0.20232730  0.43604967
   0.12237321  0.20104591  0.43517492
   0.62130446  0.95121851  0.43023275
   0.86975806  0.70242382  0.43711484
   0.37145301  0.20125857  0.43409208
   0.37180340  0.70366720  0.43024232
   0.62219518  0.45419469  0.42609021
   0.12143811  0.70316541  0.44546433
   0.62022660  0.20304654  0.43208590
   0.53803343  0.37296361  0.32151658
   0.53325989  0.11805258  0.32174286
   0.53870884  0.11802236  0.03238527
   0.12290617  0.44825013  0.12290690
   0.03263556  0.11880229  0.32037659
   0.03340525  0.12630506  0.02706319
   0.11402175  0.95923871  0.12562052
   0.37037678  0.45338057  0.43391006
   0.45357461  0.52945729  0.22039910
   0.61994289  0.70296604  0.43550222
   0.94899007  0.78274019  0.22361129
   0.77280595  0.61832650  0.32434023
   0.28917023  0.62212507  0.32484118
   0.37753931  0.69967624  0.12280080
   0.19901484  0.28472268  0.22280739
   0.69852103  0.54491363  0.21919537
   0.20213755  0.79182194  0.22389421
   0.45091369  0.02278376  0.21888536
   0.69637856  0.04264071  0.21542833
   0.78396012  0.12232876  0.32111881
   0.94737029  0.28129730  0.21835173
   0.78867385  0.86442815  0.02878726
   0.04503686  0.86262769  0.02956077
   0.04193819  0.61777677  0.02782942
   0.61761741  0.21403631  0.12433199
   0.36901191  0.95198663  0.12252685
   0.02492865  0.37664404  0.03221703
   0.86253121  0.21067251  0.12328867
   0.94767429  0.53659240  0.22625232
   0.53219843  0.62216241  0.32565201
   0.28837727  0.11371556  0.03253390
   0.55048242  0.61269490  0.03561757
   0.28974452  0.37464223  0.03224820
   0.61422605  0.94303021  0.12459236
   0.69894358  0.78562002  0.22059634
   0.62297436  0.45013935  0.12387038
   0.28932788  0.86577236  0.32053303
   0.29091939  0.86815236  0.03126639
   0.62010444  0.70621322  0.12413992
   0.20561233  0.03070072  0.22592274
   0.53625772  0.37500781  0.02951045
   0.37177867  0.20134982  0.12657237
   0.12154336  0.70027406  0.12608725
   0.53027621  0.86259804  0.32275791
   0.78687558  0.12059423  0.02748769
   0.53843249  0.86226890  0.02935757
   0.20178671  0.53509519  0.22281088
   0.86498126  0.95774808  0.12202558
   0.70149417  0.28590322  0.22086378
   0.44741904  0.28767331  0.22053161
   0.86782523  0.44867072  0.12402034
   0.12291743  0.20202656  0.12405521
   0.78432235  0.61382311  0.03229426
   0.28371978  0.61603863  0.03367972
   0.37614492  0.44431942  0.12290336
   0.78040078  0.37162771  0.32140974
   0.78259347  0.37304269  0.03358731
   0.94800282  0.03754642  0.22055626
   0.45232831  0.78402779  0.22630704
   0.88148721  0.31146154  0.49359536
 
 position of ions in cartesian coordinates  (Angst):
  12.65997842  7.85839453  7.10347954
   4.93570817  7.86531464  7.14593157
   3.57142888  5.60452234  7.17598853
   2.21018586  3.34432565  7.17222197
   3.57352373  0.98050222  7.11658893
   4.91095172  3.34162006  7.11450776
  12.73151207  6.38620234  2.69059659
  14.09119182  8.61783453  9.50979983
   3.62838129  4.11103432  9.51816557
   6.24840457  8.61953581  9.44186917
  11.47177802  4.11180518  9.82757349
   8.85778494  8.61126732  9.46592067
  10.15748014  1.83280732  9.59309264
   2.33149386  1.82119964  9.57384819
  11.47371754  8.61673250  9.46512048
  12.77134595  6.36299449  9.61652654
   4.93798087  1.82312610  9.55002580
   7.56924303  6.37425785  9.46533112
   8.88359989  4.11437973  9.37398461
   4.94779771  6.36971228  9.80021520
   7.54950362  1.83932262  9.50588982
   7.57842932  3.37853772  7.07336486
   6.19531347  1.06939412  7.07834293
   6.25215149  1.06912041  0.71247596
   3.62994671  4.06053018  2.70395184
   0.96270399  1.07618553  7.04828505
   1.00999439  1.14415026  0.59539027
   6.20948601  8.68938446  2.76365137
   6.24532147  4.10700488  9.54602129
   7.51345205  4.79615545  4.84878016
  10.16111507  6.36790623  9.58104886
  14.02016735  7.09055042  4.91944838
  11.31739788  5.60118833  7.13548502
   6.27843472  5.63559818  7.14650590
   7.60836792  6.33810520  2.70161749
   3.57079482  2.57919621  4.90176249
  10.15642833  4.93616867  4.82229805
   6.25558757  7.17281866  4.92567253
   4.83571624  0.20638953  4.81547785
   7.50713062  0.38626620  4.73942328
   8.84000224  1.10813043  7.06461385
  11.38067818  2.54816699  4.80373813
  12.77048778  7.83053112  0.63331979
   4.98262835  7.81422138  0.65033685
   3.66964602  5.59620857  0.61224722
   7.57968807  1.93887484  2.73530387
   8.83875465  8.62369061  2.69559074
   2.23060202  3.41187739  0.70877462
  10.12389374  1.90840340  2.71235085
  12.71905136  4.86078977  4.97755097
   8.82070501  5.63593643  7.16434417
   3.61115860  1.03010666  0.71574569
   8.96244049  5.55017376  0.78358650
   4.99010658  3.39374375  0.70946044
  11.35685253  8.54255771  2.74103188
  11.41974258  7.11663770  4.85311937
   8.87054062  4.07764387  2.72514845
   7.55435906  7.84270778  7.05172662
   7.58345366  7.86426735  0.68786056
  10.17978764  6.39732123  2.73107815
   2.31126976  0.27810636  4.97030019
   7.57054663  3.39705539  0.64922983
   4.94186449  1.82395267  2.78459216
   4.93377686  6.34352065  2.77391959
  10.05807694  7.81395285  7.10067396
   8.86142635  1.09241795  0.60472925
  10.14167022  7.81097126  0.64586645
   4.90923691  4.84722710  4.90183925
  14.05672646  8.67588139  2.68456269
   8.83290291  2.58989025  4.85900307
   6.18453456  2.60592485  4.85169553
  11.42399979  4.06434011  2.72844744
   2.34231520  1.83008301  2.72921466
  11.41430664  5.56039381  0.71047383
   6.18959093  5.58046341  0.74095375
   6.25826645  4.02492332  2.70387388
  10.10660516  3.36643636  7.07101419
  10.13694096  3.37925410  0.73892080
  10.11247730  0.34011900  4.85223770
   8.83181953  7.10221433  4.97875499
  10.84930009  2.82141351 10.85909794
 


--------------------------------------------------------------------------------------------------------


 k-point  1 :   0.0000 0.0000 0.0000  plane waves:   60991
 k-point  2 :   0.5000-0.0000 0.0000  plane waves:   60974
 k-point  3 :   0.0000 0.5000 0.0000  plane waves:   60974
 k-point  4 :   0.5000 0.5000 0.0000  plane waves:   60974

 maximum and minimum number of plane-waves per node :     60991    60974

 maximum number of plane-waves:     60991
 maximum index in each direction: 
   IXMAX=   20   IYMAX=   20   IZMAX=   42
   IXMIN=  -20   IYMIN=  -20   IZMIN=  -42


 serial   3D FFT for wavefunctions
 parallel 3D FFT for charge:
    minimum data exchange during FFTs selected (reduces bandwidth)


 total amount of memory used by VASP MPI-rank0   350526. kBytes
=======================================================================

   base      :      30000. kBytes
   nonlr-proj:      92281. kBytes
   fftplans  :      11305. kBytes
   grid      :     110428. kBytes
   one-center:       2519. kBytes
   wavefun   :     103993. kBytes
 
     INWAV:  cpu time    0.0000: real time    0.0000
 Broyden mixing: mesh for mixing (old mesh)
   NGX = 41   NGY = 41   NGZ = 85
  (NGX  =160   NGY  =160   NGZ  =336)
  gives a total of 142885 points

 initial charge density was supplied:
 charge density of overlapping atoms calculated
 number of electron     782.0000000 magnetization     217.0000000
 keeping initial charge density in first step


--------------------------------------------------------------------------------------------------------


 Maximum index for non-local projection operator         6979
 Maximum index for augmentation-charges         1834 (set IRDMAX)


--------------------------------------------------------------------------------------------------------


 First call to EWALD:  gamma=   0.139
 Maximum number of real-space cells 4x 4x 2
 Maximum number of reciprocal cells 2x 2x 4

    FEWALD:  cpu time    0.0045: real time    0.0045


--------------------------------------- Iteration      1(   1)  ---------------------------------------


    POTLOK:  cpu time    0.3961: real time    0.4080
    SETDIJ:  cpu time    0.0325: real time    0.0328
     EDDAV:  cpu time   53.4782: real time   54.9910
 BZINTS: Fermi energy: 18.611811;782.000000 electrons
         Band energy:8338.343172;  BLOECHL correction: -0.010716
       DOS:  cpu time    0.0258: real time    0.0266
    --------------------------------------------
      LOOP:  cpu time   53.9326: real time   55.4585

 eigenvalue-minimisations  :  9984
 total energy-change (2. order) : 0.7722760E+04  (-0.3380905E+05)
 number of electron     782.0000000 magnetization     217.0000000
 augmentation part      782.0000000 magnetization     217.0000000

 Free energy of the ion-electron system (eV)
  ---------------------------------------------------
  alpha Z        PSCENC =      2403.21136664
  Ewald energy   TEWEN  =    208553.28921541
  -Hartree energ DENC   =   -279212.47653519
  -exchange      EXHF   =         0.00000000
  -V(xc)+E(xc)   XCENC  =      1158.21261248
  PAW double counting   =     62151.42609927   -63176.80815837
  entropy T*S    EENTRO =         0.00000000
  eigenvalues    EBANDS =      8338.34317250
  atomic energy  EATOM  =     67507.56188773
  Solvation  Ediel_sol  =         0.00000000
  ---------------------------------------------------
  free energy    TOTEN  =      7722.75966046 eV

  energy without entropy =     7722.75966046  energy(sigma->0) =     7722.75966046


--------------------------------------------------------------------------------------------------------




--------------------------------------- Iteration      1(   2)  ---------------------------------------


     EDDAV:  cpu time   54.8977: real time   55.0463
 BZINTS: Fermi energy:  6.352030;782.000000 electrons
         Band energy:1183.471560;  BLOECHL correction: -0.011918
       DOS:  cpu time    0.0228: real time    0.0230
    --------------------------------------------
      LOOP:  cpu time   54.9205: real time   55.0693

 eigenvalue-minimisations  : 10368
 total energy-change (2. order) :-0.7154872E+04  (-0.6291987E+04)
 number of electron     782.0000000 magnetization     217.0000000
 augmentation part      782.0000000 magnetization     217.0000000

 Free energy of the ion-electron system (eV)
  ---------------------------------------------------
  alpha Z        PSCENC =      2403.21136664
  Ewald energy   TEWEN  =    208553.28921541
  -Hartree energ DENC   =   -279212.47653519
  -exchange      EXHF   =         0.00000000
  -V(xc)+E(xc)   XCENC  =      1158.21261248
  PAW double counting   =     62151.42609927   -63176.80815837
  entropy T*S    EENTRO =         0.00000000
  eigenvalues    EBANDS =      1183.47156032
  atomic energy  EATOM  =     67507.56188773
  Solvation  Ediel_sol  =         0.00000000
  ---------------------------------------------------
  free energy    TOTEN  =       567.88804829 eV

  energy without entropy =      567.88804829  energy(sigma->0) =      567.88804829


--------------------------------------------------------------------------------------------------------




--------------------------------------- Iteration      1(   3)  ---------------------------------------


     EDDAV:  cpu time   54.2877: real time   54.4446
 BZINTS: Fermi energy:  4.071768;782.000000 electrons
         Band energy: 178.059030;  BLOECHL correction: -0.075860
       DOS:  cpu time    0.0229: real time    0.0231
    --------------------------------------------
      LOOP:  cpu time   54.3106: real time   54.4677

 eigenvalue-minimisations  : 10224
 total energy-change (2. order) :-0.1005413E+04  (-0.8501085E+03)
 number of electron     782.0000000 magnetization     217.0000000
 augmentation part      782.0000000 magnetization     217.0000000

 Free energy of the ion-electron system (eV)
  ---------------------------------------------------
  alpha Z        PSCENC =      2403.21136664
  Ewald energy   TEWEN  =    208553.28921541
  -Hartree energ DENC   =   -279212.47653519
  -exchange      EXHF   =         0.00000000
  -V(xc)+E(xc)   XCENC  =      1158.21261248
  PAW double counting   =     62151.42609927   -63176.80815837
  entropy T*S    EENTRO =         0.00000000
  eigenvalues    EBANDS =       178.05902960
  atomic energy  EATOM  =     67507.56188773
  Solvation  Ediel_sol  =         0.00000000
  ---------------------------------------------------
  free energy    TOTEN  =      -437.52448243 eV

  energy without entropy =     -437.52448243  energy(sigma->0) =     -437.52448243


--------------------------------------------------------------------------------------------------------




--------------------------------------- Iteration      1(   4)  ---------------------------------------


     EDDAV:  cpu time   62.7556: real time   62.9251
 BZINTS: Fermi energy:  3.975312;782.000000 electrons
         Band energy: 123.537770;  BLOECHL correction: -0.060341
       DOS:  cpu time    0.0247: real time    0.0250
    --------------------------------------------
      LOOP:  cpu time   62.7803: real time   62.9501

 eigenvalue-minimisations  : 12240
 total energy-change (2. order) :-0.5452126E+02  (-0.5291752E+02)
 number of electron     782.0000000 magnetization     217.0000000
 augmentation part      782.0000000 magnetization     217.0000000

 Free energy of the ion-electron system (eV)
  ---------------------------------------------------
  alpha Z        PSCENC =      2403.21136664
  Ewald energy   TEWEN  =    208553.28921541
  -Hartree energ DENC   =   -279212.47653519
  -exchange      EXHF   =         0.00000000
  -V(xc)+E(xc)   XCENC  =      1158.21261248
  PAW double counting   =     62151.42609927   -63176.80815837
  entropy T*S    EENTRO =         0.00000000
  eigenvalues    EBANDS =       123.53776971
  atomic energy  EATOM  =     67507.56188773
  Solvation  Ediel_sol  =         0.00000000
  ---------------------------------------------------
  free energy    TOTEN  =      -492.04574232 eV

  energy without entropy =     -492.04574232  energy(sigma->0) =     -492.04574232


--------------------------------------------------------------------------------------------------------




--------------------------------------- Iteration      1(   5)  ---------------------------------------


     EDDAV:  cpu time   67.9641: real time   68.1636
 BZINTS: Fermi energy:  3.971676;782.000000 electrons
         Band energy: 121.569874;  BLOECHL correction: -0.060923
       DOS:  cpu time    0.0233: real time    0.0433
    CHARGE:  cpu time    2.4951: real time    2.5018
    MIXING:  cpu time    0.0099: real time    0.0102
    --------------------------------------------
      LOOP:  cpu time   70.4923: real time   70.7189

 eigenvalue-minimisations  : 13488
 total energy-change (2. order) :-0.1967896E+01  (-0.1964290E+01)
 number of electron     782.0000007 magnetization     202.7713685
 augmentation part      311.7387861 magnetization     172.4146311

 Broyden mixing:
  rms(total) = 0.12493E+02    rms(broyden)= 0.12493E+02
  rms(prec ) = 0.12797E+02
  weight for this iteration     100.00

 Free energy of the ion-electron system (eV)
  ---------------------------------------------------
  alpha Z        PSCENC =      2403.21136664
  Ewald energy   TEWEN  =    208553.28921541
  -Hartree energ DENC   =   -279212.47653519
  -exchange      EXHF   =         0.00000000
  -V(xc)+E(xc)   XCENC  =      1158.21261248
  PAW double counting   =     62151.42609927   -63176.80815837
  entropy T*S    EENTRO =         0.00000000
  eigenvalues    EBANDS =       121.56987408
  atomic energy  EATOM  =     67507.56188773
  Solvation  Ediel_sol  =         0.00000000
  ---------------------------------------------------
  free energy    TOTEN  =      -494.01363796 eV

  energy without entropy =     -494.01363796  energy(sigma->0) =     -494.01363796


--------------------------------------------------------------------------------------------------------




--------------------------------------- Iteration      1(   6)  ---------------------------------------


    POTLOK:  cpu time    0.3710: real time    0.3728
    SETDIJ:  cpu time    0.0323: real time    0.0324
    EDDIAG:  cpu time    8.8901: real time    8.9138
  RMM-DIIS:  cpu time   35.0966: real time   35.1943
    ORTHCH:  cpu time    1.3917: real time    1.3959
 BZINTS: Fermi energy:  2.678093;782.000000 electrons
         Band energy:***********;  BLOECHL correction: -0.032874
       DOS:  cpu time    0.0268: real time    0.0269
    CHARGE:  cpu time    2.4515: real time    2.4582
    MIXING:  cpu time    0.0099: real time    0.0107
    --------------------------------------------
      LOOP:  cpu time   48.2698: real time   48.4051

 eigenvalue-minimisations  : 10238
 total energy-change (2. order) :-0.2370529E+03  (-0.8080627E+02)
 number of electron     782.0000009 magnetization     199.0068672
 augmentation part      372.7452105 magnetization     168.2040128

 Broyden mixing:
  rms(total) = 0.20279E+02    rms(broyden)= 0.20279E+02
  rms(prec ) = 0.27170E+02
  weight for this iteration     100.00

 eigenvalues of (default mixing * dielectric matrix)
  average eigenvalue GAMMA=   0.2249
  0.2249

 Free energy of the ion-electron system (eV)
  ---------------------------------------------------
  alpha Z        PSCENC =      2403.21136664
  Ewald energy   TEWEN  =    208553.28921541
  -Hartree energ DENC   =   -277663.35983234
  -exchange      EXHF   =         0.00000000
  -V(xc)+E(xc)   XCENC  =      1122.25814806
  PAW double counting   =     68074.92933825   -68940.57611838
  entropy T*S    EENTRO =         0.00000000
  eigenvalues    EBANDS =     -1788.38055175
  atomic energy  EATOM  =     67507.56188773
  Solvation  Ediel_sol  =         0.00000000
  ---------------------------------------------------
  free energy    TOTEN  =      -731.06654638 eV

  energy without entropy =     -731.06654638  energy(sigma->0) =     -731.06654638


--------------------------------------------------------------------------------------------------------




--------------------------------------- Iteration      1(   7)  ---------------------------------------


    POTLOK:  cpu time    0.3668: real time    0.3688
    SETDIJ:  cpu time    0.0320: real time    0.0320
    EDDIAG:  cpu time    8.8737: real time    8.8976
  RMM-DIIS:  cpu time   34.1072: real time   34.2020
    ORTHCH:  cpu time    1.3868: real time    1.3933
 BZINTS: Fermi energy:  3.840892;782.000000 electrons
         Band energy:-865.223138;  BLOECHL correction: -0.002718
       DOS:  cpu time    0.0266: real time    0.0266
    CHARGE:  cpu time    2.4480: real time    2.4562
    MIXING:  cpu time    0.0098: real time    0.0100
    --------------------------------------------
      LOOP:  cpu time   47.2508: real time   47.3867

 eigenvalue-minimisations  : 10001
 total energy-change (2. order) : 0.1676249E+03  (-0.1360795E+02)
 number of electron     782.0000003 magnetization     193.6894207
 augmentation part      337.8220586 magnetization     154.5672639

 Broyden mixing:
  rms(total) = 0.15653E+02    rms(broyden)= 0.15652E+02
  rms(prec ) = 0.20971E+02
  weight for this iteration     100.00

 eigenvalues of (default mixing * dielectric matrix)
  average eigenvalue GAMMA=   0.2806
  0.4124  0.1488

 Free energy of the ion-electron system (eV)
  ---------------------------------------------------
  alpha Z        PSCENC =      2403.21136664
  Ewald energy   TEWEN  =    208553.28921541
  -Hartree energ DENC   =   -278290.35447580
  -exchange      EXHF   =         0.00000000
  -V(xc)+E(xc)   XCENC  =      1139.12067219
  PAW double counting   =     69156.25115291   -70167.29829019
  entropy T*S    EENTRO =         0.00000000
  eigenvalues    EBANDS =      -865.22313783
  atomic energy  EATOM  =     67507.56188773
  Solvation  Ediel_sol  =         0.00000000
  ---------------------------------------------------
  free energy    TOTEN  =      -563.44160893 eV

  energy without entropy =     -563.44160893  energy(sigma->0) =     -563.44160893


--------------------------------------------------------------------------------------------------------




--------------------------------------- Iteration      1(   8)  ---------------------------------------


    POTLOK:  cpu time    0.3708: real time    0.3733
    SETDIJ:  cpu time    0.0320: real time    0.0321
    EDDIAG:  cpu time    8.9189: real time    8.9484
  RMM-DIIS:  cpu time   33.9828: real time   34.0764
    ORTHCH:  cpu time    1.3909: real time    1.3965
 BZINTS: Fermi energy:  3.192178;782.000000 electrons
         Band energy:-348.039868;  BLOECHL correction: -0.029066
       DOS:  cpu time    0.0232: real time    0.0232
    CHARGE:  cpu time    2.4522: real time    2.4590
    MIXING:  cpu time    0.0104: real time    0.0107
    --------------------------------------------
      LOOP:  cpu time   47.1814: real time   47.3198

 eigenvalue-minimisations  : 10005
 total energy-change (2. order) : 0.1009632E+03  (-0.8652877E+01)
[...]
      4.982628  7.814221  0.650337            0           0           0  
      3.669646  5.596209  0.612247            0           0           0  
      7.579688  1.938875  2.735304            0           0           0  
      8.838755  8.623691  2.695591            0           0           0  
      2.230602  3.411877  0.708775            0           0           0  
     10.123894  1.908403  2.712351            0           0           0  
     12.719051  4.860790  4.977551            0           0           0  
      8.820705  5.635936  7.164344            0           0           0  
      3.611159  1.030107  0.715746            0           0           0  
      8.962440  5.550174  0.783586            0           0           0  
      4.990107  3.393744  0.709460            0           0           0  
     11.356853  8.542558  2.741032            0           0           0  
     11.419743  7.116638  4.853119            0           0           0  
      8.870541  4.077644  2.725148            0           0           0  
      7.554359  7.842708  7.051727            0           0           0  
      7.583454  7.864267  0.687861            0           0           0  
     10.179788  6.397321  2.731078            0           0           0  
      2.311270  0.278106  4.970300            0           0           0  
      7.570547  3.397055  0.649230            0           0           0  
      4.941864  1.823953  2.784592            0           0           0  
      4.933777  6.343521  2.773920            0           0           0  
     10.058077  7.813953  7.100674            0           0           0  
      8.861426  1.092418  0.604729            0           0           0  
     10.141670  7.810971  0.645866            0           0           0  
      4.909237  4.847227  4.901839            0           0           0  
     14.056726  8.675881  2.684563            0           0           0  
      8.832903  2.589890  4.859003            0           0           0  
      6.184535  2.605925  4.851696            0           0           0  
     11.424000  4.064340  2.728447            0           0           0  
      2.342315  1.830083  2.729215            0           0           0  
     11.414307  5.560394  0.710474            0           0           0  
      6.189591  5.580463  0.740954            0           0           0  
      6.258266  4.024923  2.703874            0           0           0  
     10.106605  3.366436  7.071014            0           0           0  
     10.136941  3.379254  0.738921            0           0           0  
     10.112477  0.340119  4.852238            0           0           0  
      8.831820  7.102214  4.978755            0           0           0  
     10.849300  2.821414 10.859098     0.033491   -0.071206    0.996899  
 
   2 f  =   22.488284 THz   141.298054 2PiTHz  750.128377 cm-1    93.004099 meV
             X         Y         Z           dx          dy          dz
     12.659978  7.858395  7.103480            0           0           0  
      4.935708  7.865315  7.145932            0           0           0  
      3.571429  5.604522  7.175989            0           0           0  
      2.210186  3.344326  7.172222            0           0           0  
      3.573524  0.980502  7.116589            0           0           0  
      4.910952  3.341620  7.114508            0           0           0  
     12.731512  6.386202  2.690597            0           0           0  
     14.091192  8.617835  9.509800            0           0           0  
      3.628381  4.111034  9.518166            0           0           0  
      6.248405  8.619536  9.441869            0           0           0  
     11.471778  4.111805  9.827573            0           0           0  
      8.857785  8.611267  9.465921            0           0           0  
     10.157480  1.832807  9.593093            0           0           0  
      2.331494  1.821200  9.573848            0           0           0  
     11.473718  8.616732  9.465120            0           0           0  
     12.771346  6.362994  9.616527            0           0           0  
      4.937981  1.823126  9.550026            0           0           0  
      7.569243  6.374258  9.465331            0           0           0  
      8.883600  4.114380  9.373985            0           0           0  
      4.947798  6.369712  9.800215            0           0           0  
      7.549504  1.839323  9.505890            0           0           0  
      7.578429  3.378538  7.073365            0           0           0  
      6.195313  1.069394  7.078343            0           0           0  
      6.252151  1.069120  0.712476            0           0           0  
      3.629947  4.060530  2.703952            0           0           0  
      0.962704  1.076186  7.048285            0           0           0  
      1.009994  1.144150  0.595390            0           0           0  
      6.209486  8.689384  2.763651            0           0           0  
      6.245321  4.107005  9.546021            0           0           0  
      7.513452  4.796155  4.848780            0           0           0  
     10.161115  6.367906  9.581049            0           0           0  
     14.020167  7.090550  4.919448            0           0           0  
     11.317398  5.601188  7.135485            0           0           0  
      6.278435  5.635598  7.146506            0           0           0  
      7.608368  6.338105  2.701617            0           0           0  
      3.570795  2.579196  4.901762            0           0           0  
     10.156428  4.936169  4.822298            0           0           0  
      6.255588  7.172819  4.925673            0           0           0  
      4.835716  0.206390  4.815478            0           0           0  
      7.507131  0.386266  4.739423            0           0           0  
      8.840002  1.108130  7.064614            0           0           0  
     11.380678  2.548167  4.803738            0           0           0  
     12.770488  7.830531  0.633320            0           0           0  
      4.982628  7.814221  0.650337            0           0           0  
      3.669646  5.596209  0.612247            0           0           0  
      7.579688  1.938875  2.735304            0           0           0  
      8.838755  8.623691  2.695591            0           0           0  
      2.230602  3.411877  0.708775            0           0           0  
     10.123894  1.908403  2.712351            0           0           0  
     12.719051  4.860790  4.977551            0           0           0  
      8.820705  5.635936  7.164344            0           0           0  
      3.611159  1.030107  0.715746            0           0           0  
      8.962440  5.550174  0.783586            0           0           0  
      4.990107  3.393744  0.709460            0           0           0  
     11.356853  8.542558  2.741032            0           0           0  
     11.419743  7.116638  4.853119            0           0           0  
      8.870541  4.077644  2.725148            0           0           0  
      7.554359  7.842708  7.051727            0           0           0  
      7.583454  7.864267  0.687861            0           0           0  
     10.179788  6.397321  2.731078            0           0           0  
      2.311270  0.278106  4.970300            0           0           0  
      7.570547  3.397055  0.649230            0           0           0  
      4.941864  1.823953  2.784592            0           0           0  
      4.933777  6.343521  2.773920            0           0           0  
     10.058077  7.813953  7.100674            0           0           0  
      8.861426  1.092418  0.604729            0           0           0  
     10.141670  7.810971  0.645866            0           0           0  
      4.909237  4.847227  4.901839            0           0           0  
     14.056726  8.675881  2.684563            0           0           0  
      8.832903  2.589890  4.859003            0           0           0  
      6.184535  2.605925  4.851696            0           0           0  
     11.424000  4.064340  2.728447            0           0           0  
      2.342315  1.830083  2.729215            0           0           0  
     11.414307  5.560394  0.710474            0           0           0  
      6.189591  5.580463  0.740954            0           0           0  
      6.258266  4.024923  2.703874            0           0           0  
     10.106605  3.366436  7.071014            0           0           0  
     10.136941  3.379254  0.738921            0           0           0  
     10.112477  0.340119  4.852238            0           0           0  
      8.831820  7.102214  4.978755            0           0           0  
     10.849300  2.821414 10.859098     0.481543    0.875197    0.046335  
 
   3 f  =    9.629634 THz    60.504776 2PiTHz  321.210009 cm-1    39.824980 meV
             X         Y         Z           dx          dy          dz
     12.659978  7.858395  7.103480            0           0           0  
      4.935708  7.865315  7.145932            0           0           0  
      3.571429  5.604522  7.175989            0           0           0  
      2.210186  3.344326  7.172222            0           0           0  
      3.573524  0.980502  7.116589            0           0           0  
      4.910952  3.341620  7.114508            0           0           0  
     12.731512  6.386202  2.690597            0           0           0  
     14.091192  8.617835  9.509800            0           0           0  
      3.628381  4.111034  9.518166            0           0           0  
      6.248405  8.619536  9.441869            0           0           0  
     11.471778  4.111805  9.827573            0           0           0  
      8.857785  8.611267  9.465921            0           0           0  
     10.157480  1.832807  9.593093            0           0           0  
      2.331494  1.821200  9.573848            0           0           0  
     11.473718  8.616732  9.465120            0           0           0  
     12.771346  6.362994  9.616527            0           0           0  
      4.937981  1.823126  9.550026            0           0           0  
      7.569243  6.374258  9.465331            0           0           0  
      8.883600  4.114380  9.373985            0           0           0  
      4.947798  6.369712  9.800215            0           0           0  
      7.549504  1.839323  9.505890            0           0           0  
      7.578429  3.378538  7.073365            0           0           0  
      6.195313  1.069394  7.078343            0           0           0  
      6.252151  1.069120  0.712476            0           0           0  
      3.629947  4.060530  2.703952            0           0           0  
      0.962704  1.076186  7.048285            0           0           0  
      1.009994  1.144150  0.595390            0           0           0  
      6.209486  8.689384  2.763651            0           0           0  
      6.245321  4.107005  9.546021            0           0           0  
      7.513452  4.796155  4.848780            0           0           0  
     10.161115  6.367906  9.581049            0           0           0  
     14.020167  7.090550  4.919448            0           0           0  
     11.317398  5.601188  7.135485            0           0           0  
      6.278435  5.635598  7.146506            0           0           0  
      7.608368  6.338105  2.701617            0           0           0  
      3.570795  2.579196  4.901762            0           0           0  
     10.156428  4.936169  4.822298            0           0           0  
      6.255588  7.172819  4.925673            0           0           0  
      4.835716  0.206390  4.815478            0           0           0  
      7.507131  0.386266  4.739423            0           0           0  
      8.840002  1.108130  7.064614            0           0           0  
     11.380678  2.548167  4.803738            0           0           0  
     12.770488  7.830531  0.633320            0           0           0  
      4.982628  7.814221  0.650337            0           0           0  
      3.669646  5.596209  0.612247            0           0           0  
      7.579688  1.938875  2.735304            0           0           0  
      8.838755  8.623691  2.695591            0           0           0  
      2.230602  3.411877  0.708775            0           0           0  
     10.123894  1.908403  2.712351            0           0           0  
     12.719051  4.860790  4.977551            0           0           0  
      8.820705  5.635936  7.164344            0           0           0  
      3.611159  1.030107  0.715746            0           0           0  
      8.962440  5.550174  0.783586            0           0           0  
      4.990107  3.393744  0.709460            0           0           0  
     11.356853  8.542558  2.741032            0           0           0  
     11.419743  7.116638  4.853119            0           0           0  
      8.870541  4.077644  2.725148            0           0           0  
      7.554359  7.842708  7.051727            0           0           0  
      7.583454  7.864267  0.687861            0           0           0  
     10.179788  6.397321  2.731078            0           0           0  
      2.311270  0.278106  4.970300            0           0           0  
      7.570547  3.397055  0.649230            0           0           0  
      4.941864  1.823953  2.784592            0           0           0  
      4.933777  6.343521  2.773920            0           0           0  
     10.058077  7.813953  7.100674            0           0           0  
      8.861426  1.092418  0.604729            0           0           0  
     10.141670  7.810971  0.645866            0           0           0  
      4.909237  4.847227  4.901839            0           0           0  
     14.056726  8.675881  2.684563            0           0           0  
      8.832903  2.589890  4.859003            0           0           0  
      6.184535  2.605925  4.851696            0           0           0  
     11.424000  4.064340  2.728447            0           0           0  
      2.342315  1.830083  2.729215            0           0           0  
     11.414307  5.560394  0.710474            0           0           0  
      6.189591  5.580463  0.740954            0           0           0  
      6.258266  4.024923  2.703874            0           0           0  
     10.106605  3.366436  7.071014            0           0           0  
     10.136941  3.379254  0.738921            0           0           0  
     10.112477  0.340119  4.852238            0           0           0  
      8.831820  7.102214  4.978755            0           0           0  
     10.849300  2.821414 10.859098    -0.875782    0.478498    0.063600  
 
 Finite differences POTIM=  1.500000000000000E-002
  LATTYP: Found a hexagonal cell.
 ALAT       =    10.4600000381
 C/A-ratio  =     2.1032504704
  
  Lattice vectors:
  
 A1 = (   5.2300000190,  -9.0586257566,   0.0000000000)
 A2 = ( -10.4600000381,   0.0000000000,   0.0000000000)
 A3 = (   0.0000000000,   0.0000000000, -22.0000000000)


Analysis of symmetry for initial positions (statically):
=====================================================================
 Subroutine PRICEL returns:
 Original cell was already a primitive cell.
 

 Routine SETGRP: Setting up the symmetry group for a 
 hexagonal supercell.


 Subroutine GETGRP returns: Found  1 space group operations
 (whereof  1 operations were pure point group operations)
 out of a pool of 24 trial point group operations.


The static configuration has the point symmetry C_1 .


Analysis of symmetry for dynamics (positions and initial velocities):
=====================================================================
 Subroutine PRICEL returns:
 Original cell was already a primitive cell.
 

 Routine SETGRP: Setting up the symmetry group for a 
 hexagonal supercell.


 Subroutine GETGRP returns: Found  1 space group operations
 (whereof  1 operations were pure point group operations)
 out of a pool of 24 trial point group operations.


The dynamic configuration has the point symmetry C_1 .


Analysis of constrained symmetry for selective dynamics:
=====================================================================
 Subroutine PRICEL returns:
 Original cell was already a primitive cell.
 

 Routine SETGRP: Setting up the symmetry group for a 
 hexagonal supercell.


 Subroutine GETGRP returns: Found  1 space group operations
 (whereof  1 operations were pure point group operations)
 out of a pool of 24 trial point group operations.


The constrained configuration has the point symmetry C_1 .


Analysis of structural, dynamic, and magnetic symmetry:
=====================================================================
 Subroutine PRICEL returns:
 Original cell was already a primitive cell.
 

 Routine SETGRP: Setting up the symmetry group for a 
 hexagonal supercell.


 Subroutine GETGRP returns: Found  1 space group operations
 (whereof  1 operations were pure point group operations)
 out of a pool of 24 trial point group operations.


The magnetic configuration has the point symmetry C_1 .


 Subroutine INISYM returns: Found  1 space group operations
 (whereof  1 operations are pure point group operations),
 and found     1 'primitive' translations

 
 KPOINTS: mesh auto                               

Automatic generation of k-mesh.
Space group operators:
 irot       det(A)        alpha          n_x          n_y          n_z        tau_x        tau_y        tau_z
    1     1.000000     0.000000     1.000000     0.000000     0.000000     0.000000     0.000000     0.000000
 
 Subroutine IBZKPT returns following result:
 ===========================================
 
 Found      4 irreducible k-points:
 
 Following reciprocal coordinates:
            Coordinates               Weight
  0.000000  0.000000  0.000000      1.000000
  0.500000 -0.000000  0.000000      1.000000
  0.000000  0.500000  0.000000      1.000000
  0.500000  0.500000  0.000000      1.000000
 
 Following cartesian coordinates:
            Coordinates               Weight
  0.000000  0.000000  0.000000      1.000000
  0.047801 -0.027598  0.000000      1.000000
  0.000000  0.055196  0.000000      1.000000
  0.047801  0.027598  0.000000      1.000000
 
 TETIRR: Found     12 inequivalent tetrahedra from       24
     LOOP+:  cpu time  472.2152: real time  473.9424
    4ORBIT:  cpu time    0.0000: real time    0.0000
 BZINTS: Fermi energy:  2.593462;782.000000 electrons
         Band energy:-398.951277;  BLOECHL correction: -0.138961

 total amount of memory used by VASP MPI-rank0   350526. kBytes
=======================================================================

   base      :      30000. kBytes
   nonlr-proj:      92281. kBytes
   fftplans  :      11305. kBytes
   grid      :     110428. kBytes
   one-center:       2519. kBytes
   wavefun   :     103993. kBytes
 
  
  
 General timing and accounting informations for this job:
 ========================================================
  
                  Total CPU time used (sec):     6721.561
                            User time (sec):     6696.975
                          System time (sec):       24.586
                         Elapsed time (sec):     6755.966
  
                   Maximum memory used (kb):      663088.
                   Average memory used (kb):           0.
  
                          Minor page faults:      2410416
                          Major page faults:          239
                 Voluntary context switches:         6386
