 vasp.5.4.4.18Apr17-6-g9f103f2a35 (build Oct 25 2019 11:13:22) complex          
  
 executed on             LinuxIFC date 2021.11.04  04:08:31
 running on   48 total cores
 distrk:  each k-point on   48 cores,    1 groups
 distr:  one band on NCORES_PER_BAND=   4 cores,   12 groups


--------------------------------------------------------------------------------------------------------


 INCAR:
 POTCAR:    PAW_PBE Pt 04Feb2005                  
 POTCAR:    PAW_PBE Fe 06Sep2000                  
 POTCAR:    PAW_PBE Co 02Aug2007                  
 POTCAR:    PAW_PBE Cu 22Jun2005                  
 POTCAR:    PAW_PBE Ni 02Aug2007                  
 POTCAR:    PAW_PBE H 15Jun2001                   
 POTCAR:    PAW_PBE Pt 04Feb2005                  
   VRHFIN =Pt: s1d9                                                             
   LEXCH  = PE                                                                  
   EATOM  =   729.1176 eV,   53.5886 Ry                                         
                                                                                
   TITEL  = PAW_PBE Pt 04Feb2005                                                
   LULTRA =        F    use ultrasoft PP ?                                      
   IUNSCR =        1    unscreen: 0-lin 1-nonlin 2-no                           
   RPACOR =    2.330    partial core radius                                     
   POMASS =  195.080; ZVAL   =   10.000    mass and valenz                      
   RCORE  =    2.600    outmost cutoff radius                                   
   RWIGS  =    2.750; RWIGS  =    1.455    wigner-seitz radius (au A)           
   ENMAX  =  230.283; ENMIN  =  172.712 eV                                      
   ICORE  =        3    local potential                                         
   LCOR   =        T    correct aug charges                                     
   LPAW   =        T    paw PP                                                  
   EAUG   =  358.966                                                            
   DEXC   =    0.000                                                            
   RMAX   =    2.658    core radius for proj-oper                               
   RAUG   =    1.300    factor for augmentation sphere                          
   RDEP   =    2.761    radius for radial grids                                 
   RDEPT  =    2.203    core radius for aug-charge                              
                                                                                
   Atomic configuration                                                         
   16 entries                                                                   
     n  l   j            E        occ.                                          
     1  0  0.50    -78401.1885   2.0000                                         
     2  0  0.50    -13770.7750   2.0000                                         
     2  1  1.50    -11931.0468   6.0000                                         
     3  0  0.50     -3234.7234   2.0000                                         
     3  1  1.50     -2699.2216   6.0000                                         
     3  2  2.50     -2119.5714  10.0000                                         
     4  0  0.50      -695.1528   2.0000                                         
     4  1  1.50      -519.6034   6.0000                                         
     4  2  2.50      -306.6786  10.0000                                         
     4  3  3.50       -70.1041  14.0000                                         
     5  0  0.50      -101.7747   2.0000                                         
     5  1  1.50       -55.9873   6.0000                                         
     5  2  2.50        -6.1423   9.0000                                         
     6  0  0.50        -5.6573   1.0000                                         
     6  1  1.50        -6.8029   0.0000                                         
     5  3  2.50        -1.3606   0.0000                                         
   Description                                                                  
     l       E           TYP  RCUT    TYP  RCUT                                 
     2     -6.1423404     23  2.500                                             
     2     -7.5029230     23  2.500                                             
     0     -5.6573207     23  2.500                                             
     0      0.7416693     23  2.500                                             
     1     -2.7211652     23  2.600                                             
     1     20.4087390     23  2.600                                             
     3     -1.3605826     23  2.500                                             
  local pseudopotential read in
  partial core-charges read in
  partial kinetic energy density read in
  atomic valenz-charges read in
  non local Contribution for L=           2  read in
    real space projection operators read in
  non local Contribution for L=           2  read in
    real space projection operators read in
  non local Contribution for L=           0  read in
    real space projection operators read in
  non local Contribution for L=           0  read in
    real space projection operators read in
  non local Contribution for L=           1  read in
    real space projection operators read in
  non local Contribution for L=           1  read in
    real space projection operators read in
    PAW grid and wavefunctions read in
 
   number of l-projection  operators is LMAX  =           6
   number of lm-projection operators is LMMAX =          18
 
 POTCAR:    PAW_PBE Fe 06Sep2000                  
   VRHFIN =Fe:  d7 s1                                                           
   LEXCH  = PE                                                                  
   EATOM  =   594.3153 eV,   43.6809 Ry                                         
                                                                                
   TITEL  = PAW_PBE Fe 06Sep2000                                                
   LULTRA =        F    use ultrasoft PP ?                                      
   IUNSCR =        1    unscreen: 0-lin 1-nonlin 2-no                           
   RPACOR =    2.000    partial core radius                                     
   POMASS =   55.847; ZVAL   =    8.000    mass and valenz                      
   RCORE  =    2.300    outmost cutoff radius                                   
   RWIGS  =    2.460; RWIGS  =    1.302    wigner-seitz radius (au A)           
   ENMAX  =  267.882; ENMIN  =  200.911 eV                                      
   RCLOC  =    1.701    cutoff for local pot                                    
   LCOR   =        T    correct aug charges                                     
   LPAW   =        T    paw PP                                                  
   EAUG   =  511.368                                                            
   DEXC   =    0.000                                                            
   RMAX   =    2.356    core radius for proj-oper                               
   RAUG   =    1.300    factor for augmentation sphere                          
   RDEP   =    2.442    radius for radial grids                                 
   RDEPT  =    1.890    core radius for aug-charge                              
                                                                                
   Atomic configuration                                                         
    9 entries                                                                   
     n  l   j            E        occ.                                          
     1  0  0.50     -6993.8440   2.0000                                         
     2  0  0.50      -814.6047   2.0000                                         
     2  1  1.50      -693.3689   6.0000                                         
     3  0  0.50       -89.4732   2.0000                                         
     3  1  1.50       -55.6373   6.0000                                         
     3  2  2.50        -3.8151   7.0000                                         
     4  0  0.50        -4.2551   1.0000                                         
     4  1  1.50        -3.4015   0.0000                                         
     4  3  2.50        -1.3606   0.0000                                         
   Description                                                                  
     l       E           TYP  RCUT    TYP  RCUT                                 
     2     -3.8151135     23  2.300                                             
     2     -5.1756961     23  2.300                                             
     0     -4.2550963     23  2.300                                             
     0      7.2035603     23  2.300                                             
     1     -2.7211652     23  2.300                                             
     1     18.4316424     23  2.300                                             
  local pseudopotential read in
  partial core-charges read in
  partial kinetic energy density read in
  atomic valenz-charges read in
  non local Contribution for L=           2  read in
    real space projection operators read in
  non local Contribution for L=           2  read in
    real space projection operators read in
  non local Contribution for L=           0  read in
    real space projection operators read in
  non local Contribution for L=           0  read in
    real space projection operators read in
  non local Contribution for L=           1  read in
    real space projection operators read in
  non local Contribution for L=           1  read in
    real space projection operators read in
    PAW grid and wavefunctions read in
 
   number of l-projection  operators is LMAX  =           6
   number of lm-projection operators is LMMAX =          18
 
 POTCAR:    PAW_PBE Co 02Aug2007                  
   VRHFIN =Co: d8 s1                                                            
   LEXCH  = PE                                                                  
   EATOM  =   813.3670 eV,   59.7808 Ry                                         
                                                                                
   TITEL  = PAW_PBE Co 02Aug2007                                                
   LULTRA =        F    use ultrasoft PP ?                                      
   IUNSCR =        1    unscreen: 0-lin 1-nonlin 2-no                           
   RPACOR =    2.000    partial core radius                                     
   POMASS =   58.933; ZVAL   =    9.000    mass and valenz                      
   RCORE  =    2.300    outmost cutoff radius                                   
   RWIGS  =    2.460; RWIGS  =    1.302    wigner-seitz radius (au A)           
   ENMAX  =  267.968; ENMIN  =  200.976 eV                                      
   RCLOC  =    1.203    cutoff for local pot                                    
   LCOR   =        T    correct aug charges                                     
   LPAW   =        T    paw PP                                                  
   EAUG   =  477.818                                                            
   DEXC   =    0.000                                                            
   RMAX   =    2.360    core radius for proj-oper                               
   RAUG   =    1.300    factor for augmentation sphere                          
   RDEP   =    2.393    radius for radial grids                                 
   RDEPT  =    1.864    core radius for aug-charge                              
                                                                                
   Atomic configuration                                                         
    9 entries                                                                   
     n  l   j            E        occ.                                          
     1  0  0.50     -7587.6674   2.0000                                         
     2  0  0.50      -893.6084   2.0000                                         
     2  1  1.50      -764.5805   6.0000                                         
     3  0  0.50       -97.5973   2.0000                                         
     3  1  1.50       -60.9648   6.0000                                         
     3  2  2.50        -4.2382   8.0000                                         
     4  0  0.50        -4.3746   1.0000                                         
     4  1  1.50        -4.0817   0.0000                                         
     4  3  2.50        -1.3606   0.0000                                         
   Description                                                                  
     l       E           TYP  RCUT    TYP  RCUT                                 
     2     -4.2382362     23  2.300                                             
     2     -5.5988188     23  2.300                                             
     0     -4.3745797     23  2.300                                             
     0      5.7660125     23  2.300                                             
     1     -2.7211652     23  2.300                                             
     1     16.9860234     23  2.300                                             
  local pseudopotential read in
  partial core-charges read in
  partial kinetic energy density read in
  atomic valenz-charges read in
  non local Contribution for L=           2  read in
    real space projection operators read in
  non local Contribution for L=           2  read in
    real space projection operators read in
  non local Contribution for L=           0  read in
    real space projection operators read in
  non local Contribution for L=           0  read in
    real space projection operators read in
  non local Contribution for L=           1  read in
    real space projection operators read in
  non local Contribution for L=           1  read in
    real space projection operators read in
    PAW grid and wavefunctions read in
 
   number of l-projection  operators is LMAX  =           6
   number of lm-projection operators is LMMAX =          18
 
 POTCAR:    PAW_PBE Cu 22Jun2005                  
   VRHFIN =Cu: d10 p1                                                           
   LEXCH  = PE                                                                  
   EATOM  =  1390.9808 eV,  102.2342 Ry                                         
                                                                                
   TITEL  = PAW_PBE Cu 22Jun2005                                                
   LULTRA =        F    use ultrasoft PP ?                                      
   IUNSCR =        1    unscreen: 0-lin 1-nonlin 2-no                           
   RPACOR =    2.000    partial core radius                                     
   POMASS =   63.546; ZVAL   =   11.000    mass and valenz                      
   RCORE  =    2.300    outmost cutoff radius                                   
   RWIGS  =    2.200; RWIGS  =    1.164    wigner-seitz radius (au A)           
   ENMAX  =  295.446; ENMIN  =  221.585 eV                                      
   ICORE  =        3    local potential                                         
   LCOR   =        T    correct aug charges                                     
   LPAW   =        T    paw PP                                                  
   EAUG   =  586.980                                                            
   DEXC   =    0.000                                                            
   RMAX   =    2.344    core radius for proj-oper                               
   RAUG   =    1.300    factor for augmentation sphere                          
   RDEP   =    2.302    radius for radial grids                                 
   RDEPT  =    1.771    core radius for aug-charge                              
                                                                                
   Atomic configuration                                                         
    9 entries                                                                   
     n  l   j            E        occ.                                          
     1  0  0.50     -8850.2468   2.0000                                         
     2  0  0.50     -1062.3498   2.0000                                         
     2  1  1.50      -916.8226   6.0000                                         
     3  0  0.50      -114.6929   2.0000                                         
     3  1  1.50       -72.1325   6.0000                                         
     3  2  2.50        -5.0394  10.0000                                         
     4  0  0.50        -4.6097   1.0000                                         
     4  1  0.50        -4.0817   0.0000                                         
     4  3  2.50        -1.3606   0.0000                                         
   Description                                                                  
     l       E           TYP  RCUT    TYP  RCUT                                 
     2     -5.0393973     23  2.200                                             
     2     10.8846608     23  2.200                                             
     0     -4.6097109     23  2.200                                             
     0      8.2520465     23  2.200                                             
     1     -2.7211652     23  2.200                                             
     1     21.7055443     23  2.200                                             
     3      2.7211652     23  2.300                                             
  local pseudopotential read in
  partial core-charges read in
  partial kinetic energy density read in
  atomic valenz-charges read in
  non local Contribution for L=           2  read in
    real space projection operators read in
  non local Contribution for L=           2  read in
    real space projection operators read in
  non local Contribution for L=           0  read in
    real space projection operators read in
  non local Contribution for L=           0  read in
    real space projection operators read in
  non local Contribution for L=           1  read in
    real space projection operators read in
  non local Contribution for L=           1  read in
    real space projection operators read in
    PAW grid and wavefunctions read in
 
   number of l-projection  operators is LMAX  =           6
   number of lm-projection operators is LMMAX =          18
 
 POTCAR:    PAW_PBE Ni 02Aug2007                  
   VRHFIN =Ni:                                                                  
   LEXCH  = PE                                                                  
   EATOM  =  1077.6739 eV,   79.2068 Ry                                         
                                                                                
   TITEL  = PAW_PBE Ni 02Aug2007                                                
   LULTRA =        F    use ultrasoft PP ?                                      
   IUNSCR =        1    unscreen: 0-lin 1-nonlin 2-no                           
   RPACOR =    2.000    partial core radius                                     
   POMASS =   58.690; ZVAL   =   10.000    mass and valenz                      
   RCORE  =    2.300    outmost cutoff radius                                   
   RWIGS  =    2.430; RWIGS  =    1.286    wigner-seitz radius (au A)           
   ENMAX  =  269.532; ENMIN  =  202.149 eV                                      
   RCLOC  =    1.201    cutoff for local pot                                    
   LCOR   =        T    correct aug charges                                     
   LPAW   =        T    paw PP                                                  
   EAUG   =  544.565                                                            
   DEXC   =    0.000                                                            
   RMAX   =    2.357    core radius for proj-oper                               
   RAUG   =    1.300    factor for augmentation sphere                          
   RDEP   =    2.390    radius for radial grids                                 
   RDEPT  =    1.838    core radius for aug-charge                              
                                                                                
   Atomic configuration                                                         
    9 entries                                                                   
     n  l   j            E        occ.                                          
     1  0  0.50     -8206.4253   2.0000                                         
     2  0  0.50      -976.1748   2.0000                                         
     2  1  1.50      -839.0571   6.0000                                         
     3  0  0.50      -105.9991   2.0000                                         
     3  1  1.50       -66.4603   6.0000                                         
     3  2  2.50        -4.6458   9.0000                                         
     4  0  0.50        -4.4926   1.0000                                         
     4  1  1.50        -4.0817   0.0000                                         
     4  3  2.50        -1.3606   0.0000                                         
   Description                                                                  
     l       E           TYP  RCUT    TYP  RCUT                                 
     2     -4.6457903     23  2.300                                             
     2     -6.0063729     23  2.300                                             
     0     -4.4925590     23  2.300                                             
     0      5.0102601     23  2.300                                             
     1     -2.7211652     23  2.300                                             
     1     16.5183231     23  2.300                                             
  local pseudopotential read in
  partial core-charges read in
  partial kinetic energy density read in
  atomic valenz-charges read in
  non local Contribution for L=           2  read in
    real space projection operators read in
  non local Contribution for L=           2  read in
    real space projection operators read in
  non local Contribution for L=           0  read in
    real space projection operators read in
  non local Contribution for L=           0  read in
    real space projection operators read in
  non local Contribution for L=           1  read in
    real space projection operators read in
  non local Contribution for L=           1  read in
    real space projection operators read in
    PAW grid and wavefunctions read in
 
   number of l-projection  operators is LMAX  =           6
   number of lm-projection operators is LMMAX =          18
 
 POTCAR:    PAW_PBE H 15Jun2001                   
   VRHFIN =H: ultrasoft test                                                    
   LEXCH  = PE                                                                  
   EATOM  =    12.4884 eV,    0.9179 Ry                                         
                                                                                
   TITEL  = PAW_PBE H 15Jun2001                                                 
   LULTRA =        F    use ultrasoft PP ?                                      
   IUNSCR =        0    unscreen: 0-lin 1-nonlin 2-no                           
   RPACOR =    0.000    partial core radius                                     
   POMASS =    1.000; ZVAL   =    1.000    mass and valenz                      
   RCORE  =    1.100    outmost cutoff radius                                   
   RWIGS  =    0.700; RWIGS  =    0.370    wigner-seitz radius (au A)           
   ENMAX  =  250.000; ENMIN  =  200.000 eV                                      
   RCLOC  =    0.701    cutoff for local pot                                    
   LCOR   =        T    correct aug charges                                     
   LPAW   =        T    paw PP                                                  
   EAUG   =  400.000                                                            
   RMAX   =    1.123    core radius for proj-oper                               
   RAUG   =    1.200    factor for augmentation sphere                          
   RDEP   =    1.112    radius for radial grids                                 
   RDEPT  =    0.926    core radius for aug-charge                              
                                                                                
   Atomic configuration                                                         
    2 entries                                                                   
     n  l   j            E        occ.                                          
     1  0  0.50        -6.4927   1.0000                                         
     2  1  0.50        -3.4015   0.0000                                         
   Description                                                                  
     l       E           TYP  RCUT    TYP  RCUT                                 
     0     -6.4927494     23  1.100                                             
     0      6.8029130     23  1.100                                             
     1     -4.0817478     23  1.100                                             
  local pseudopotential read in
  atomic valenz-charges read in
  non local Contribution for L=           0  read in
    real space projection operators read in
  non local Contribution for L=           0  read in
    real space projection operators read in
  non local Contribution for L=           1  read in
    real space projection operators read in
    PAW grid and wavefunctions read in
 
   number of l-projection  operators is LMAX  =           3
   number of lm-projection operators is LMMAX =           5
 
 Optimization of the real space projectors (new method)

 maximal supplied QI-value         = 14.36
 optimisation between [QCUT,QGAM] = [ 11.92, 23.98] = [ 39.79,161.09] Ry 
 Optimized for a Real-space Cutoff    1.49 Angstroem

   l    n(q)    QCUT    max X(q) W(low)/X(q) W(high)/X(q)  e(spline) 
   2     10    11.920    66.195    0.79E-04    0.18E-03    0.24E-06
   2     10    11.920    64.643    0.81E-04    0.19E-03    0.24E-06
   0     11    11.920    95.520    0.28E-04    0.54E-04    0.18E-06
   0     11    11.920    63.403    0.27E-04    0.52E-04    0.17E-06
   1     10    11.920    19.961    0.18E-04    0.11E-03    0.23E-06
   1     10    11.920    13.289    0.25E-04    0.87E-04    0.19E-06
 Optimization of the real space projectors (new method)

 maximal supplied QI-value         = 16.25
 optimisation between [QCUT,QGAM] = [ 11.86, 23.89] = [ 39.41,159.82] Ry 
 Optimized for a Real-space Cutoff    1.49 Angstroem

   l    n(q)    QCUT    max X(q) W(low)/X(q) W(high)/X(q)  e(spline) 
   2     10    11.864    80.901    0.13E-03    0.23E-03    0.37E-06
   2     10    11.864    75.754    0.13E-03    0.23E-03    0.38E-06
   0     11    11.864    58.752    0.44E-04    0.11E-04    0.20E-06
   0     11    11.864    30.679    0.36E-04    0.10E-04    0.18E-06
   1     10    11.864    17.977    0.31E-04    0.45E-04    0.10E-06
   1     10    11.864    13.559    0.25E-04    0.37E-04    0.89E-07
 Optimization of the real space projectors (new method)

 maximal supplied QI-value         = 16.25
 optimisation between [QCUT,QGAM] = [ 11.86, 23.89] = [ 39.41,159.82] Ry 
 Optimized for a Real-space Cutoff    1.33 Angstroem

   l    n(q)    QCUT    max X(q) W(low)/X(q) W(high)/X(q)  e(spline) 
   2      9    11.864    65.824    0.22E-03    0.53E-03    0.26E-06
   2      9    11.864    61.429    0.22E-03    0.53E-03    0.26E-06
   0      9    11.864    56.174    0.21E-03    0.32E-04    0.15E-06
   0      9    11.864    31.263    0.19E-03    0.30E-04    0.14E-06
   1      9    11.864    19.828    0.63E-04    0.30E-03    0.16E-06
   1      9    11.864    15.139    0.49E-04    0.25E-03    0.13E-06
 Optimization of the real space projectors (new method)

 maximal supplied QI-value         = 16.25
 optimisation between [QCUT,QGAM] = [ 11.86, 23.89] = [ 39.41,159.82] Ry 
 Optimized for a Real-space Cutoff    1.49 Angstroem

   l    n(q)    QCUT    max X(q) W(low)/X(q) W(high)/X(q)  e(spline) 
   2     10    11.864     4.610    0.10E-03    0.20E-03    0.29E-06
   2     10    11.864     8.522    0.17E-03    0.33E-03    0.50E-06
   0     11    11.864    51.609    0.52E-04    0.55E-04    0.33E-06
   0     11    11.864    27.747    0.46E-04    0.52E-04    0.31E-06
   1     10    11.864    20.408    0.54E-04    0.25E-04    0.21E-06
   1     10    11.864    13.425    0.48E-04    0.22E-04    0.18E-06
 Optimization of the real space projectors (new method)

 maximal supplied QI-value         = 16.25
 optimisation between [QCUT,QGAM] = [ 11.86, 23.89] = [ 39.41,159.82] Ry 
 Optimized for a Real-space Cutoff    1.33 Angstroem

   l    n(q)    QCUT    max X(q) W(low)/X(q) W(high)/X(q)  e(spline) 
   2      9    11.864    60.317    0.21E-03    0.51E-03    0.25E-06
   2      9    11.864    55.921    0.21E-03    0.51E-03    0.26E-06
   0      9    11.864    51.690    0.22E-03    0.30E-04    0.17E-06
   0      9    11.864    30.015    0.20E-03    0.28E-04    0.15E-06
   1      9    11.864    18.849    0.76E-04    0.33E-03    0.17E-06
   1      9    11.864    14.624    0.60E-04    0.28E-03    0.15E-06
 Optimization of the real space projectors (new method)

 maximal supplied QI-value         = 34.20
 optimisation between [QCUT,QGAM] = [ 11.97, 23.94] = [ 40.13,160.53] Ry 
 Optimized for a Real-space Cutoff    1.18 Angstroem

   l    n(q)    QCUT    max X(q) W(low)/X(q) W(high)/X(q)  e(spline) 
   0      8    11.971    19.460    0.15E-03    0.31E-03    0.25E-06
   0      8    11.971    12.209    0.13E-03    0.29E-03    0.25E-06
   1      8    11.971     4.655    0.22E-03    0.24E-03    0.21E-06
  PAW_PBE Pt 04Feb2005                  :
 energy of atom  1       EATOM= -729.1176
 kinetic energy error for atom=    0.0021 (will be added to EATOM!!)
  PAW_PBE Fe 06Sep2000                  :
 energy of atom  2       EATOM= -594.3153
 kinetic energy error for atom=    0.0024 (will be added to EATOM!!)
  PAW_PBE Co 02Aug2007                  :
 energy of atom  3       EATOM= -813.3670
 kinetic energy error for atom=    0.0026 (will be added to EATOM!!)
  PAW_PBE Cu 22Jun2005                  :
 energy of atom  4       EATOM=-1390.9808
 kinetic energy error for atom=    0.0036 (will be added to EATOM!!)
  PAW_PBE Ni 02Aug2007                  :
 energy of atom  5       EATOM=-1077.6739
 kinetic energy error for atom=    0.0027 (will be added to EATOM!!)
  PAW_PBE H 15Jun2001                   :
 energy of atom  6       EATOM=  -12.4884
 kinetic energy error for atom=    0.0008 (will be added to EATOM!!)
 
 
 POSCAR: 10.46-high                              
  positions in direct lattice
  velocities in cartesian coordinates
 exchange correlation table for  LEXCH =        8
   RHO(1)=    0.500       N(1)  =     2000
   RHO(2)=  100.500       N(2)  =     4000
 


--------------------------------------------------------------------------------------------------------


 ion  position               nearest neighbor table
   1  0.777  0.868  0.322-  23 2.58  65 2.60  33 2.61   3 2.64  56 2.67  32 2.67  41 2.71   2 2.75
                            15 2.79   8 2.83  40 2.84  16 2.94
   2  0.040  0.868  0.326-  26 2.57  34 2.59  58 2.62   3 2.64  41 2.67  38 2.68   1 2.75  32 2.76
                             8 2.76  79 2.77  10 2.90  20 3.16
   3  0.033  0.620  0.328-   6 2.63   2 2.64   1 2.64   4 2.65  34 2.69  50 2.71  33 2.72  32 2.73
                            68 2.77   9 2.80  16 2.83  20 3.12
   4  0.030  0.368  0.325-  77 2.57  26 2.60   3 2.65  33 2.66  50 2.66   6 2.68   5 2.72  36 2.73
                            11 2.76  42 2.81   9 2.89  14 2.89
   5  0.289  0.109  0.323-  58 2.54  65 2.55  61 2.60  26 2.60  23 2.62   6 2.71   4 2.72  12 2.72
                            39 2.73  36 2.73  17 2.88  14 2.94
   6  0.286  0.369  0.323-  23 2.61   3 2.63  34 2.67  68 2.68  22 2.68   4 2.68  71 2.70  36 2.70
                             5 2.71  29 2.83  17 2.86   9 2.88
   7  0.865  0.705  0.122-  43 2.51  74 2.52  60 2.55  55 2.56  45 2.63  56 2.63  69 2.65  64 2.66
                            72 2.66  32 2.67  25 2.69  50 2.75
   8  0.868  0.951  0.429-  81 2.14  15 2.61  16 2.61  21 2.62  13 2.63  10 2.64  20 2.67   2 2.76
                             1 2.83  41 2.88
   9  0.119  0.454  0.435-  29 2.61  16 2.61  20 2.61  11 2.62  17 2.63  14 2.64   3 2.80   6 2.88
                             4 2.89
  10  0.119  0.954  0.439-  81 1.96  14 2.59  12 2.62  13 2.62  18 2.64   8 2.64  20 2.66   2 2.90
                            26 2.96  58 3.04
  11  0.870  0.451  0.432-  19 2.60  13 2.60  14 2.61  31 2.62   9 2.62  16 2.63   4 2.76  33 2.85
                            77 2.88
  12  0.370  0.950  0.428-  18 2.58  15 2.61  31 2.61  10 2.62  17 2.62  14 2.63   5 2.72  65 2.76
                            58 2.81
  13  0.868  0.203  0.428-  19 2.60  11 2.60  21 2.62  10 2.62  14 2.63   8 2.63  26 2.79  77 2.80
                            41 2.82
  14  0.120  0.201  0.437-  10 2.59  17 2.61  11 2.61  12 2.63  13 2.63   9 2.64   4 2.89   5 2.94
                            26 2.97
  15  0.619  0.950  0.431-  16 2.60  12 2.61   8 2.61  31 2.61  17 2.62  21 2.64   1 2.79  23 2.85
                            65 2.88
  16  0.868  0.702  0.437-  15 2.60  31 2.61   8 2.61   9 2.61  11 2.63  20 2.65   3 2.83   1 2.94
                            33 2.98
  17  0.370  0.201  0.434-  14 2.61  21 2.61  15 2.62  12 2.62   9 2.63  29 2.64   6 2.86  23 2.87
                             5 2.88
  18  0.371  0.704  0.428-  12 2.58  31 2.59  19 2.62  29 2.63  10 2.64  51 2.68  20 2.69  34 2.73
                            58 2.79
  19  0.621  0.453  0.429-  31 2.59  13 2.60  11 2.60  18 2.62  21 2.63  29 2.64  51 2.73  22 2.77
                            77 2.79
  20  0.120  0.701  0.452-  81 1.81   9 2.61  29 2.63  16 2.65  10 2.66   8 2.67  18 2.69   3 3.12
                             2 3.16  34 3.20
  21  0.618  0.203  0.434-  17 2.61  13 2.62  29 2.62   8 2.62  19 2.63  15 2.64  23 2.89  22 2.91
                            41 2.94
  22  0.539  0.374  0.322-  77 2.53  51 2.57  41 2.60  34 2.61  30 2.64  70 2.67   6 2.68  23 2.70
                            71 2.75  19 2.77  29 2.87  21 2.91
  23  0.534  0.119  0.322-   1 2.58   6 2.61   5 2.62  41 2.64  65 2.69  22 2.70  71 2.71  40 2.77
                            39 2.79  15 2.85  17 2.87  21 2.89
  24  0.539  0.118  0.032-  63 2.57  46 2.57  55 2.58  66 2.61  43 2.64  52 2.64  54 2.65  62 2.68
                            67 2.68
  25  0.123  0.448  0.123-  54 2.50  48 2.52  73 2.58  63 2.59  45 2.60  76 2.63  64 2.63  36 2.65
                            68 2.66  72 2.67   7 2.69  50 2.77
  26  0.037  0.116  0.322-   2 2.57  61 2.60  41 2.60   5 2.60   4 2.60  58 2.65  77 2.67  79 2.69
                            42 2.72  13 2.79  10 2.96  14 2.97
  27  0.033  0.126  0.027-  48 2.58  78 2.61  52 2.61  73 2.61  66 2.61  49 2.62  28 2.64  59 2.70
                            44 2.70
  28  0.114  0.959  0.126-  79 2.57  73 2.59  44 2.60  69 2.61  59 2.62  49 2.63  47 2.63  38 2.64
                            27 2.64  61 2.66  64 2.67  35 2.74
  29  0.368  0.453  0.432-   9 2.61  21 2.62  18 2.63  20 2.63  17 2.64  19 2.64   6 2.83  34 2.83
                            22 2.87
  30  0.454  0.529  0.220-  71 2.56  70 2.57  76 2.60  68 2.61  57 2.62  22 2.64  35 2.65  37 2.65
                            80 2.66  38 2.69  34 2.72  51 2.81
  31  0.619  0.701  0.436-  18 2.59  19 2.59  16 2.61  15 2.61  12 2.61  11 2.62  51 2.84  33 2.85
                            65 2.90
  32  0.949  0.783  0.224-  50 2.58  56 2.60  68 2.62  64 2.65  79 2.66   7 2.67   1 2.67  40 2.69
                            38 2.70   3 2.73  69 2.74   2 2.76
  33  0.773  0.620  0.323-  51 2.50  65 2.54  77 2.55   1 2.61  50 2.65   4 2.66  37 2.66  56 2.71
                             3 2.72  31 2.85  11 2.85  16 2.98
  34  0.289  0.622  0.324-  58 2.55  51 2.55   2 2.59  22 2.61   6 2.67  38 2.68   3 2.69  30 2.72
                            68 2.72  18 2.73  29 2.83  20 3.20
  35  0.378  0.700  0.123-  53 2.48  59 2.53  75 2.54  60 2.57  57 2.59  47 2.60  30 2.65  64 2.68
                            76 2.68  80 2.70  38 2.73  28 2.74
  36  0.199  0.285  0.223-  73 2.61  71 2.61  61 2.62  50 2.63  63 2.63  68 2.63  25 2.65  42 2.65
                            39 2.69   6 2.70   4 2.73   5 2.73
  37  0.699  0.545  0.219-  56 2.52  80 2.54  60 2.55  50 2.57  72 2.60  57 2.61  30 2.65  33 2.66
                            42 2.68  70 2.69  77 2.73  51 2.80
  38  0.202  0.792  0.224-  61 2.52  58 2.57  80 2.58  79 2.62  28 2.64  64 2.66   2 2.68  34 2.68
                            68 2.69  30 2.69  32 2.70  35 2.73
  39  0.451  0.023  0.219-  80 2.50  61 2.53  47 2.53  56 2.54  55 2.55  63 2.60  40 2.68  36 2.69
                            65 2.70   5 2.73  71 2.75  23 2.79
  40  0.696  0.043  0.215-  46 2.54  69 2.56  70 2.57  71 2.59  55 2.59  79 2.61  56 2.68  39 2.68
                            32 2.69  41 2.75  23 2.77   1 2.84
  41  0.785  0.123  0.319-  77 2.60  22 2.60  26 2.60  70 2.62  79 2.63  23 2.64   2 2.67   1 2.71
                            40 2.75  13 2.82   8 2.88  21 2.94
  42  0.947  0.281  0.218-  49 2.52  79 2.55  70 2.55  72 2.57  73 2.62  36 2.65  61 2.67  50 2.68
                            37 2.68  77 2.71  26 2.72   4 2.81
  43  0.789  0.864  0.029-   7 2.51  69 2.56  45 2.62  67 2.63  24 2.64  55 2.64  74 2.65  66 2.67
                            44 2.67
  44  0.045  0.863  0.030-  75 2.54  45 2.58  64 2.58  28 2.60  59 2.60  69 2.61  43 2.67  66 2.70
                            27 2.70
  45  0.042  0.618  0.028-  75 2.52  54 2.57  44 2.58  25 2.60  64 2.61  43 2.62  48 2.62   7 2.63
                            74 2.72
  46  0.618  0.214  0.124-  76 2.47  57 2.50  40 2.54  49 2.54  62 2.55  70 2.55  24 2.57  71 2.62
                            66 2.63  69 2.64  63 2.64  55 2.85
  47  0.369  0.952  0.123-  52 2.46  59 2.49  55 2.52  39 2.53  67 2.56  73 2.60  35 2.60  60 2.60
                            63 2.62  28 2.63  61 2.71  80 2.74
  48  0.025  0.377  0.032-  72 2.47  74 2.50  25 2.52  78 2.55  73 2.57  27 2.58  45 2.62  52 2.75
                            54 2.76
  49  0.863  0.211  0.123-  78 2.46  57 2.51  72 2.52  42 2.52  46 2.54  66 2.59  70 2.60  27 2.62
                            28 2.63  69 2.63  79 2.65  73 2.68
  50  0.948  0.537  0.226-  37 2.57  32 2.58  56 2.61  36 2.63  68 2.65  33 2.65   4 2.66  42 2.68
                             3 2.71  72 2.71   7 2.75  25 2.77
  51  0.533  0.622  0.327-  33 2.50  65 2.51  58 2.54  34 2.55  22 2.57  77 2.61  80 2.65  18 2.68
                            19 2.73  37 2.80  30 2.81  31 2.84
  52  0.288  0.114  0.033-  47 2.46  73 2.51  59 2.56  63 2.58  27 2.61  67 2.62  24 2.64  54 2.74
                            48 2.75
  53  0.550  0.613  0.036-  57 2.44  60 2.45  74 2.45  78 2.47  35 2.48  67 2.55  62 2.57  59 2.70
                            75 2.77
  54  0.290  0.375  0.032-  76 2.45  75 2.49  25 2.50  45 2.57  62 2.58  63 2.60  24 2.65  52 2.74
                            48 2.76
  55  0.614  0.943  0.125-  60 2.45  47 2.52  67 2.53  39 2.55  56 2.55   7 2.56  24 2.58  40 2.59
                            63 2.62  43 2.64  69 2.70  46 2.85
  56  0.699  0.786  0.221-  37 2.52  39 2.54  55 2.55  60 2.56  80 2.59  32 2.60  50 2.61   7 2.63
                             1 2.67  40 2.68  65 2.70  33 2.71
  57  0.623  0.450  0.124-  53 2.44  78 2.46  46 2.50  49 2.51  62 2.54  72 2.55  35 2.59  70 2.60
                            37 2.61  76 2.61  30 2.62  60 2.66
  58  0.291  0.865  0.320-  65 2.50  80 2.52   5 2.54  51 2.54  34 2.55  61 2.56  38 2.57   2 2.62
                            26 2.65  18 2.79  12 2.81  10 3.04
  59  0.291  0.868  0.031-  47 2.49  35 2.53  52 2.56  67 2.56  44 2.60  28 2.62  75 2.68  53 2.70
                            27 2.70
  60  0.620  0.706  0.124-  55 2.45  53 2.45  74 2.51  67 2.52  37 2.55   7 2.55  56 2.56  35 2.57
                            47 2.60  72 2.64  57 2.66  80 2.71
  61  0.206  0.031  0.226-  38 2.52  39 2.53  58 2.56  80 2.58   5 2.60  26 2.60  36 2.62  28 2.66
                            79 2.66  42 2.67  47 2.71  73 2.73
  62  0.536  0.375  0.030-  76 2.52  57 2.54  46 2.55  53 2.57  78 2.57  54 2.58  75 2.59  66 2.64
                            24 2.68
  63  0.372  0.201  0.127-  71 2.54  24 2.57  76 2.57  52 2.58  25 2.59  39 2.60  73 2.60  54 2.60
                            55 2.62  47 2.62  36 2.63  46 2.64
  64  0.122  0.700  0.126-  75 2.51  44 2.58  68 2.60  45 2.61  25 2.63  32 2.65  38 2.66   7 2.66
                            28 2.67  76 2.67  35 2.68  69 2.69
  65  0.532  0.863  0.322-  58 2.50  51 2.51  33 2.54  80 2.55   5 2.55   1 2.60  23 2.69  39 2.70
                            56 2.70  12 2.76  15 2.88  31 2.90
  66  0.787  0.121  0.027-  69 2.55  49 2.59  27 2.61  24 2.61  78 2.62  46 2.63  62 2.64  43 2.67
                            44 2.70
  67  0.538  0.862  0.029-  60 2.52  55 2.53  53 2.55  59 2.56  47 2.56  74 2.59  52 2.62  43 2.63
                            24 2.68
  68  0.202  0.535  0.223-  71 2.58  64 2.60  30 2.61  32 2.62  36 2.63  50 2.65  25 2.66   6 2.68
                            38 2.69  76 2.71  34 2.72   3 2.77
  69  0.865  0.958  0.122-  66 2.55  40 2.56  43 2.56  44 2.61  28 2.61  79 2.62  49 2.63  46 2.64
                             7 2.65  64 2.69  55 2.70  32 2.74
  70  0.701  0.286  0.221-  42 2.55  46 2.55  30 2.57  40 2.57  79 2.59  49 2.60  57 2.60  41 2.62
                            71 2.65  22 2.67  77 2.67  37 2.69
  71  0.447  0.288  0.221-  63 2.54  30 2.56  76 2.58  68 2.58  40 2.59  36 2.61  46 2.62  70 2.65
                             6 2.70  23 2.71  39 2.75  22 2.75
  72  0.868  0.449  0.124-  78 2.47  48 2.47  74 2.51  49 2.52  57 2.55  42 2.57  37 2.60  73 2.63
                            60 2.64   7 2.66  25 2.67  50 2.71
  73  0.123  0.202  0.124-  52 2.51  48 2.57  25 2.58  28 2.59  47 2.60  63 2.60  36 2.61  27 2.61
                            42 2.62  72 2.63  49 2.68  61 2.73
  74  0.784  0.614  0.032-  53 2.45  48 2.50  60 2.51  72 2.51   7 2.52  78 2.53  67 2.59  43 2.65
                            45 2.72
  75  0.284  0.616  0.034-  54 2.49  76 2.51  64 2.51  45 2.52  35 2.54  44 2.54  62 2.59  59 2.68
                            53 2.77
  76  0.376  0.444  0.123-  54 2.45  46 2.47  75 2.51  62 2.52  63 2.57  71 2.58  30 2.60  57 2.61
                            25 2.63  64 2.67  35 2.68  68 2.71
  77  0.782  0.372  0.321-  22 2.53  33 2.55   4 2.57  41 2.60  51 2.61  70 2.67  26 2.67  42 2.71
                            37 2.73  19 2.79  13 2.80  11 2.88
  78  0.783  0.373  0.034-  57 2.46  49 2.46  72 2.47  53 2.47  74 2.53  48 2.55  62 2.57  27 2.61
                            66 2.62
  79  0.948  0.038  0.221-  42 2.55  28 2.57  70 2.59  40 2.61  38 2.62  69 2.62  41 2.63  49 2.65
                            32 2.66  61 2.66  26 2.69   2 2.77
  80  0.452  0.784  0.226-  39 2.50  58 2.52  37 2.54  65 2.55  38 2.58  61 2.58  56 2.59  51 2.65
                            30 2.66  35 2.70  60 2.71  47 2.74
  81  0.040  0.869  0.496-  20 1.81  10 1.96   8 2.14
 
  LATTYP: Found a hexagonal cell.
 ALAT       =    10.4600000381
 C/A-ratio  =     2.1032504704
  
  Lattice vectors:
  
 A1 = (   5.2300000190,  -9.0586257566,   0.0000000000)
 A2 = ( -10.4600000381,   0.0000000000,   0.0000000000)
 A3 = (   0.0000000000,   0.0000000000, -22.0000000000)


Analysis of symmetry for initial positions (statically):
=====================================================================
 Subroutine PRICEL returns:
 Original cell was already a primitive cell.
 

 Routine SETGRP: Setting up the symmetry group for a 
 hexagonal supercell.


 Subroutine GETGRP returns: Found  1 space group operations
 (whereof  1 operations were pure point group operations)
 out of a pool of 24 trial point group operations.


The static configuration has the point symmetry C_1 .


Analysis of symmetry for dynamics (positions and initial velocities):
=====================================================================
 Subroutine PRICEL returns:
 Original cell was already a primitive cell.
 

 Routine SETGRP: Setting up the symmetry group for a 
 hexagonal supercell.


 Subroutine GETGRP returns: Found  1 space group operations
 (whereof  1 operations were pure point group operations)
 out of a pool of 24 trial point group operations.


The dynamic configuration has the point symmetry C_1 .


Analysis of constrained symmetry for selective dynamics:
=====================================================================
 Subroutine PRICEL returns:
 Original cell was already a primitive cell.
 

 Routine SETGRP: Setting up the symmetry group for a 
 hexagonal supercell.


 Subroutine GETGRP returns: Found  1 space group operations
 (whereof  1 operations were pure point group operations)
 out of a pool of 24 trial point group operations.


The constrained configuration has the point symmetry C_1 .


Analysis of structural, dynamic, and magnetic symmetry:
=====================================================================
 Subroutine PRICEL returns:
 Original cell was already a primitive cell.
 

 Routine SETGRP: Setting up the symmetry group for a 
 hexagonal supercell.


 Subroutine GETGRP returns: Found  1 space group operations
 (whereof  1 operations were pure point group operations)
 out of a pool of 24 trial point group operations.


The magnetic configuration has the point symmetry C_1 .


 Subroutine INISYM returns: Found  1 space group operations
 (whereof  1 operations are pure point group operations),
 and found     1 'primitive' translations

 
 
 KPOINTS: mesh auto                               

Automatic generation of k-mesh.
Space group operators:
 irot       det(A)        alpha          n_x          n_y          n_z        tau_x        tau_y        tau_z
    1     1.000000     0.000000     1.000000     0.000000     0.000000     0.000000     0.000000     0.000000
 
 Subroutine IBZKPT returns following result:
 ===========================================
 
 Found      4 irreducible k-points:
 
 Following reciprocal coordinates:
            Coordinates               Weight
  0.000000  0.000000  0.000000      1.000000
  0.500000 -0.000000  0.000000      1.000000
  0.000000  0.500000  0.000000      1.000000
  0.500000  0.500000  0.000000      1.000000
 
 Following cartesian coordinates:
            Coordinates               Weight
  0.000000  0.000000  0.000000      1.000000
  0.047801 -0.027598  0.000000      1.000000
  0.000000  0.055196  0.000000      1.000000
  0.047801  0.027598  0.000000      1.000000
 


--------------------------------------------------------------------------------------------------------




 Dimension of arrays:
   k-points           NKPTS =      4   k-points in BZ     NKDIM =      4   number of bands    NBANDS=    588
   number of dos      NEDOS =    301   number of ions     NIONS =     81
   non local maximal  LDIM  =      6   non local SUM 2l+1 LMDIM =     18
   total plane-waves  NPLWV = ******
   max r-space proj   IRMAX =   7217   max aug-charges    IRDMAX=  31436
   dimension x,y,z NGX =    80 NGY =   80 NGZ =  168
   dimension x,y,z NGXF=   160 NGYF=  160 NGZF=  336
   support grid    NGXF=   160 NGYF=  160 NGZF=  336
   ions per type =              42  10   9  10   9   1
   NGX,Y,Z   is equivalent  to a cutoff of  12.71, 12.71, 12.70 a.u.
   NGXF,Y,Z  is equivalent  to a cutoff of  25.43, 25.43, 25.39 a.u.

 SYSTEM =  Pt111                                   
 POSCAR =  10.46-high                              

 Startparameter for this run:
   NWRITE =      2    write-flag & timer
   PREC   = accura    normal or accurate (medium, high low for compatibility)
   ISTART =      0    job   : 0-new  1-cont  2-samecut
   ICHARG =      2    charge: 1-file 2-atom 10-const
   ISPIN  =      2    spin polarized calculation?
   LNONCOLLINEAR =      F non collinear calculations
   LSORBIT =      F    spin-orbit coupling
   INIWAV =      1    electr: 0-lowe 1-rand  2-diag
   LASPH  =      F    aspherical Exc in radial PAW
   METAGGA=      F    non-selfconsistent MetaGGA calc.

 Electronic Relaxation 1
   ENCUT  =  550.0 eV  40.42 Ry    6.36 a.u.  20.00 20.00 42.07*2*pi/ulx,y,z
   ENINI  =  550.0     initial cutoff
   ENAUG  =  587.0 eV  augmentation charge cutoff
   NELM   =    200;   NELMIN=  2; NELMDL= -5     # of ELM steps 
   EDIFF  = 0.1E-04   stopping-criterion for ELM
   LREAL  =      T    real-space projection
   NLSPLINE    = F    spline interpolate recip. space projectors
   LCOMPAT=      F    compatible to vasp.4.4
   GGA_COMPAT  = T    GGA compatible to vasp.4.4-vasp.4.6
   LMAXPAW     = -100 max onsite density
   LMAXMIX     =    2 max onsite mixed and CHGCAR
   VOSKOWN=      0    Vosko Wilk Nusair interpolation
   ROPT   =   -0.00025  -0.00025  -0.00025  -0.00025
   ROPT   =   -0.00025  -0.00025
 Ionic relaxation
   EDIFFG = -.5E-01   stopping-criterion for IOM
   NSW    =    300    number of steps for IOM
   NBLOCK =      1;   KBLOCK =    300    inner block; outer block 
   IBRION =      2    ionic relax: 0-MD 1-quasi-New 2-CG
   NFREE  =      1    steps in history (QN), initial steepest desc. (CG)
   ISIF   =      2    stress and relaxation
   IWAVPR =     11    prediction:  0-non 1-charg 2-wave 3-comb
   ISYM   =      2    0-nonsym 1-usesym 2-fastsym
   LCORR  =      T    Harris-Foulkes like correction to forces

   POTIM  = 0.5000    time-step for ionic-motion
   TEIN   =    0.0    initial temperature
   TEBEG  =    0.0;   TEEND  =   0.0 temperature during run
   SMASS  =  -3.00    Nose mass-parameter (am)
   estimated Nose-frequenzy (Omega)   =  0.10E-29 period in steps =****** mass=  -0.250E-26a.u.
   SCALEE = 1.0000    scale energy and forces
   NPACO  =    256;   APACO  = 16.0  distance and # of slots for P.C.
   PSTRESS=    0.0 pullay stress

  Mass of Ions in am
   POMASS = 195.08 55.85 58.93 63.55 58.69  1.00
  Ionic Valenz
   ZVAL   =  10.00  8.00  9.00 11.00 10.00  1.00
  Atomic Wigner-Seitz radii
   RWIGS  =  -1.00 -1.00 -1.00 -1.00 -1.00 -1.00
  virtual crystal weights 
   VCA    =   1.00  1.00  1.00  1.00  1.00  1.00
   NELECT =     782.0000    total number of electrons
   NUPDOWN=      -1.0000    fix difference up-down

 DOS related values:
   EMIN   =  10.00;   EMAX   =-10.00  energy-range for DOS
   EFERMI =   0.00
   ISMEAR =     1;   SIGMA  =   0.10  broadening in eV -4-tet -1-fermi 0-gaus

 Electronic relaxation 2 (details)
   IALGO  =     68    algorithm
   LDIAG  =      T    sub-space diagonalisation (order eigenvalues)
   LSUBROT=      F    optimize rotation matrix (better conditioning)
   TURBO    =      0    0=normal 1=particle mesh
   IRESTART =      0    0=no restart 2=restart with 2 vectors
   NREBOOT  =      0    no. of reboots
   NMIN     =      0    reboot dimension
   EREF     =   0.00    reference energy to select bands
   IMIX   =      4    mixing-type and parameters
     AMIX     =   0.40;   BMIX     =  1.00
     AMIX_MAG =   1.60;   BMIX_MAG =  1.00
     AMIN     =   0.10
     WC   =   100.;   INIMIX=   1;  MIXPRE=   1;  MAXMIX= -45

 Intra band minimization:
   WEIMIN = 0.0010     energy-eigenvalue tresh-hold
   EBREAK =  0.43E-08  absolut break condition
   DEPER  =   0.30     relativ break condition  

   TIME   =   0.40     timestep for ELM

  volume/ion in A,a.u.               =      25.74       173.67
  Fermi-wavevector in a.u.,A,eV,Ry     =   1.180696  2.231192 18.967115  1.394044
  Thomas-Fermi vector in A             =   2.316984
 
 Write flags
   LWAVE        =      F    write WAVECAR
   LDOWNSAMPLE  =      F    k-point downsampling of WAVECAR
   LCHARG       =      F    write CHGCAR
   LVTOT        =      F    write LOCPOT, total local potential
   LVHAR        =      F    write LOCPOT, Hartree potential only
   LELF         =      F    write electronic localiz. function (ELF)
   LORBIT       =      0    0 simple, 1 ext, 2 COOP (PROOUT), +10 PAW based schemes


 Dipole corrections
   LMONO  =      F    monopole corrections only (constant potential shift)
   LDIPOL =      F    correct potential (dipole corrections)
   IDIPOL =      0    1-x, 2-y, 3-z, 4-all directions 
   EPSILON=  1.0000000 bulk dielectric constant

 Exchange correlation treatment:
   GGA     =    --    GGA type
   LEXCH   =     8    internal setting for exchange type
   VOSKOWN=      0    Vosko Wilk Nusair interpolation
   LHFCALC =     F    Hartree Fock is set to
   LHFONE  =     F    Hartree Fock one center treatment
   AEXX    =    0.0000 exact exchange contribution

 Linear response parameters
   LEPSILON=     F    determine dielectric tensor
   LRPA    =     F    only Hartree local field effects (RPA)
   LNABLA  =     F    use nabla operator in PAW spheres
   LVEL    =     F    velocity operator in full k-point grid
   LINTERFAST=   F  fast interpolation
   KINTER  =     0    interpolate to denser k-point grid
   CSHIFT  =0.1000    complex shift for real part using Kramers Kronig
   OMEGAMAX=  -1.0    maximum frequency
   DEG_THRESHOLD= 0.2000000E-02 threshold for treating states as degnerate
   RTIME   =   -0.100 relaxation time in fs
  (WPLASMAI=    0.000 imaginary part of plasma frequency in eV, 0.658/RTIME)
   DFIELD  = 0.0000000 0.0000000 0.0000000 field for delta impulse in time
 
 Orbital magnetization related:
   ORBITALMAG=     F  switch on orbital magnetization
   LCHIMAG   =     F  perturbation theory with respect to B field
   DQ        =  0.001000  dq finite difference perturbation B field
   LLRAUG    =     F  two centre corrections for induced B field



--------------------------------------------------------------------------------------------------------


 conjugate gradient relaxation of ions
   using selective dynamics as specified on POSCAR
 charge density and potential will be updated during run
 spin polarized calculation
 RMM-DIIS sequential band-by-band and
  variant of blocked Davidson during initial phase
 perform sub-space diagonalisation
    before iterative eigenvector-optimisation
 modified Broyden-mixing scheme, WC =      100.0
 initial mixing is a Kerker type mixing with AMIX =  0.4000 and BMIX =      1.0000
 Hartree-type preconditioning will be used
 using additional bands          197
 real space projection scheme for non local part
 use partial core corrections
 calculate Harris-corrections to forces 
   (improved forces if not selfconsistent)
 use gradient corrections 
 use of overlap-Matrix (Vanderbilt PP)
 Methfessel and Paxton  Order N= 1 SIGMA  =   0.10


--------------------------------------------------------------------------------------------------------


  energy-cutoff  :      550.00
  volume of cell :     2084.57
      direct lattice vectors                 reciprocal lattice vectors
    10.460000038  0.000000000  0.000000000     0.095602294 -0.055196010  0.000000000
     5.230000019  9.058625757  0.000000000     0.000000000  0.110392020  0.000000000
     0.000000000  0.000000000 22.000000000     0.000000000  0.000000000  0.045454545

  length of vectors
    10.460000038 10.460000038 22.000000000     0.110392020  0.110392020  0.045454545


 
 k-points in units of 2pi/SCALE and weight: mesh auto                               
   0.00000000  0.00000000  0.00000000       0.250
   0.04780115 -0.02759801  0.00000000       0.250
   0.00000000  0.05519601  0.00000000       0.250
   0.04780115  0.02759801  0.00000000       0.250
 
 k-points in reciprocal lattice and weights: mesh auto                               
   0.00000000  0.00000000  0.00000000       0.250
   0.50000000 -0.00000000  0.00000000       0.250
   0.00000000  0.50000000  0.00000000       0.250
   0.50000000  0.50000000  0.00000000       0.250
 
 position of ions in fractional coordinates (direct lattice) 
   0.77713432  0.86763056  0.32248015
   0.03969156  0.86840144  0.32563449
   0.03319768  0.61981592  0.32790252
   0.02951526  0.36814065  0.32536019
   0.28905315  0.10852765  0.32344017
   0.28558025  0.36892525  0.32340555
   0.86466887  0.70498578  0.12229985
   0.86818129  0.95125268  0.42919802
   0.11920327  0.45379428  0.43511110
   0.11857084  0.95432125  0.43856450
   0.87013643  0.45053209  0.43235518
   0.37015699  0.95013451  0.42848754
   0.86803859  0.20318763  0.42789609
   0.11977988  0.20116846  0.43727987
   0.61933964  0.95016214  0.43145756
   0.86803590  0.70235604  0.43728932
   0.36960137  0.20066399  0.43352568
   0.37083960  0.70351597  0.42807497
   0.62097258  0.45251068  0.42903562
   0.11981904  0.70108817  0.45150603
   0.61840842  0.20261881  0.43379069
   0.53937848  0.37368405  0.32198573
   0.53442234  0.11851272  0.32212699
   0.53870884  0.11802236  0.03238527
   0.12290617  0.44825013  0.12290690
   0.03666336  0.11586287  0.32154274
   0.03340525  0.12630506  0.02706319
   0.11402175  0.95923871  0.12562052
   0.36849169  0.45329676  0.43190372
   0.45357461  0.52945729  0.22039910
   0.61936583  0.70065133  0.43617070
   0.94899007  0.78274019  0.22361129
   0.77338361  0.61980637  0.32310775
   0.28935700  0.62204409  0.32369616
   0.37753931  0.69967624  0.12280080
   0.19901484  0.28472268  0.22280739
   0.69852103  0.54491363  0.21919537
   0.20213755  0.79182194  0.22389421
   0.45091369  0.02278376  0.21888536
   0.69637856  0.04264071  0.21542833
   0.78460294  0.12269469  0.31917578
   0.94737029  0.28129730  0.21835173
   0.78867385  0.86442815  0.02878726
   0.04503686  0.86262769  0.02956077
   0.04193819  0.61777677  0.02782942
   0.61761741  0.21403631  0.12433199
   0.36901191  0.95198663  0.12252685
   0.02492865  0.37664404  0.03221703
   0.86253121  0.21067251  0.12328867
   0.94767429  0.53659240  0.22625232
   0.53344817  0.62183014  0.32653491
   0.28837727  0.11371556  0.03253390
   0.55048242  0.61269490  0.03561757
   0.28974452  0.37464223  0.03224820
   0.61422605  0.94303021  0.12459236
   0.69894358  0.78562002  0.22059634
   0.62297436  0.45013935  0.12387038
   0.29132440  0.86483016  0.31991015
   0.29091939  0.86815236  0.03126639
   0.62010444  0.70621322  0.12413992
   0.20561233  0.03070072  0.22592274
   0.53625772  0.37500781  0.02951045
   0.37177867  0.20134982  0.12657237
   0.12154336  0.70027406  0.12608725
   0.53151826  0.86271974  0.32234076
   0.78687558  0.12059423  0.02748769
   0.53843249  0.86226890  0.02935757
   0.20178671  0.53509519  0.22281088
   0.86498126  0.95774808  0.12202558
   0.70149417  0.28590322  0.22086378
   0.44741904  0.28767331  0.22053161
   0.86782523  0.44867072  0.12402034
   0.12291743  0.20202656  0.12405521
   0.78432235  0.61382311  0.03229426
   0.28371978  0.61603863  0.03367972
   0.37614492  0.44431942  0.12290336
   0.78166449  0.37230080  0.32110475
   0.78259347  0.37304269  0.03358731
   0.94800282  0.03754642  0.22055626
   0.45232831  0.78402779  0.22630704
   0.03966661  0.86857582  0.49601927
 
 position of ions in cartesian coordinates  (Angst):
  12.66653283  7.85954055  7.09456341
   4.95691330  7.86652363  7.16395882
   3.58888497  5.61468043  7.21385540
   2.23410519  3.33484834  7.15792423
   3.59109558  0.98311132  7.11568375
   4.91664856  3.34195582  7.11492208
  12.73151207  6.38620234  2.69059659
  14.05622786  8.61704207  9.44235650
   3.62021028  4.11075254  9.57244418
   6.23135117  8.64483909  9.64841901
  11.45790991  4.08120156  9.51181388
   8.84104564  8.60691293  9.42672590
  10.14235498  1.84060073  9.41371389
   2.30500861  1.82230979  9.62015708
  11.44764072  8.60716325  9.49206635
  12.75297770  6.36238053  9.62036507
   4.91550303  1.81774000  9.53756485
   7.55837082  6.37288791  9.41764928
   8.86200411  4.09912492  9.43878366
   4.91999825  6.35089533  9.93313262
   7.52824850  1.83544796  9.54339512
   7.59626645  3.38506393  7.08368611
   6.20987922  1.07356241  7.08679382
   6.25215149  1.06912041  0.71247596
   3.62994671  4.06053018  2.70395184
   0.98946159  1.04955841  7.07394031
   1.00999439  1.14415026  0.59539027
   6.20948601  8.68938446  2.76365137
   6.22516520  4.10624573  9.50188177
   7.51345205  4.79615545  4.84878016
  10.14297311  6.34693819  9.59575543
  14.02016735  7.09055042  4.91944838
  11.33117992  5.61459396  7.10837045
   6.27996480  5.63486465  7.12131544
   7.60836792  6.33810520  2.70161749
   3.57079482  2.57919621  4.90176249
  10.15642833  4.93616867  4.82229805
   6.25558757  7.17281866  4.92567253
   4.83571624  0.20638953  4.81547785
   7.50713062  0.38626620  4.73942328
   8.84864001  1.11144529  7.02186709
  11.38067818  2.54816699  4.80373813
  12.77048778  7.83053112  0.63331979
   4.98262835  7.81422138  0.65033685
   3.66964602  5.59620857  0.61224722
   7.57968807  1.93887484  2.73530387
   8.83875465  8.62369061  2.69559074
   2.23060202  3.41187739  0.70877462
  10.12389374  1.90840340  2.71235085
  12.71905136  4.86078977  4.97755097
   8.83203950  5.63292650  7.18376813
   3.61115860  1.03010666  0.71574569
   8.96244049  5.55017376  0.78358650
   4.99010658  3.39374375  0.70946044
  11.35685253  8.54255771  2.74103188
  11.41974258  7.11663770  4.85311937
   8.87054062  4.07764387  2.72514845
   7.57031501  7.83417280  7.03802323
   7.58345366  7.86426735  0.68786056
  10.17978764  6.39732123  2.73107815
   2.31126976  0.27810636  4.97030019
   7.57054663  3.39705539  0.64922983
   4.94186449  1.82395267  2.78459216
   4.93377686  6.34352065  2.77391959
  10.07170528  7.81505524  7.09149662
   8.86142635  1.09241795  0.60472925
  10.14167022  7.81097126  0.64586645
   4.90923691  4.84722710  4.90183925
  14.05672646  8.67588139  2.68456269
   8.83290291  2.58989025  4.85900307
   6.18453456  2.60592485  4.85169553
  11.42399979  4.06434011  2.72844744
   2.34231520  1.83008301  2.72921466
  11.41430664  5.56039381  0.71047383
   6.18959093  5.58046341  0.74095375
   6.25826645  4.02492332  2.70387388
  10.12334375  3.37253360  7.06430455
  10.13694096  3.37925410  0.73892080
  10.11247730  0.34011900  4.85223770
   8.83181953  7.10221433  4.97875499
   4.95756430  7.86810331 10.91242397
 


--------------------------------------------------------------------------------------------------------


 k-point  1 :   0.0000 0.0000 0.0000  plane waves:   60991
 k-point  2 :   0.5000-0.0000 0.0000  plane waves:   60974
 k-point  3 :   0.0000 0.5000 0.0000  plane waves:   60974
 k-point  4 :   0.5000 0.5000 0.0000  plane waves:   60974

 maximum and minimum number of plane-waves per node :     15277    15213

 maximum number of plane-waves:     60991
 maximum index in each direction: 
   IXMAX=   20   IYMAX=   20   IZMAX=   42
   IXMIN=  -20   IYMIN=  -20   IZMIN=  -42


 real space projection operators:
  total allocation   :      73110.52 KBytes
  max/ min on nodes  :      18281.77      18271.18


 parallel 3D FFT for wavefunctions:
    minimum data exchange during FFTs selected (reduces bandwidth)
 parallel 3D FFT for charge:
    minimum data exchange during FFTs selected (reduces bandwidth)


 total amount of memory used by VASP MPI-rank0   221959. kBytes
=======================================================================

   base      :      30000. kBytes
   nonlr-proj:      32405. kBytes
   fftplans  :      14920. kBytes
   grid      :      45762. kBytes
   one-center:        653. kBytes
   wavefun   :      98219. kBytes
 
     INWAV:  cpu time    0.0000: real time    0.0004
 Broyden mixing: mesh for mixing (old mesh)
   NGX = 41   NGY = 41   NGZ = 85
  (NGX  =160   NGY  =160   NGZ  =336)
  gives a total of 142885 points

 initial charge density was supplied:
 charge density of overlapping atoms calculated
 number of electron     782.0000000 magnetization     217.0000000
 keeping initial charge density in first step


--------------------------------------------------------------------------------------------------------


 Maximum index for non-local projection operator         1756
 Maximum index for augmentation-charges         1834 (set IRDMAX)


--------------------------------------------------------------------------------------------------------


 First call to EWALD:  gamma=   0.139
 Maximum number of real-space cells 4x 4x 2
 Maximum number of reciprocal cells 2x 2x 4

    FEWALD:  cpu time    0.0091: real time    0.0092


--------------------------------------- Iteration      1(   1)  ---------------------------------------


    POTLOK:  cpu time    0.3742: real time    0.4483
    SETDIJ:  cpu time    0.0311: real time    0.0312
     EDDAV:  cpu time   55.6252: real time   55.9935
       DOS:  cpu time    0.0022: real time    0.0232
    --------------------------------------------
      LOOP:  cpu time   56.0328: real time   56.4963

 eigenvalue-minimisations  :  9408
 total energy-change (2. order) : 0.8008599E+04  (-0.3339146E+05)
 number of electron     782.0000000 magnetization     217.0000000
 augmentation part      782.0000000 magnetization     217.0000000

 Free energy of the ion-electron system (eV)
  ---------------------------------------------------
  alpha Z        PSCENC =      2403.21136664
  Ewald energy   TEWEN  =    208915.93935814
  -Hartree energ DENC   =   -279574.83205859
  -exchange      EXHF   =         0.00000000
  -V(xc)+E(xc)   XCENC  =      1158.29643917
  PAW double counting   =     62151.42609927   -63176.80815837
  entropy T*S    EENTRO =         0.00198542
  eigenvalues    EBANDS =      8623.80180485
  atomic energy  EATOM  =     67507.56188773
  Solvation  Ediel_sol  =         0.00000000
  ---------------------------------------------------
  free energy    TOTEN  =      8008.59872426 eV

  energy without entropy =     8008.59673885  energy(sigma->0) =     8008.59806246


--------------------------------------------------------------------------------------------------------




--------------------------------------- Iteration      1(   2)  ---------------------------------------


     EDDAV:  cpu time   55.6783: real time   55.9696
       DOS:  cpu time    0.0026: real time    0.0034
    --------------------------------------------
      LOOP:  cpu time   55.6809: real time   55.9730

 eigenvalue-minimisations  :  9456
 total energy-change (2. order) :-0.7238416E+04  (-0.6431466E+04)
 number of electron     782.0000000 magnetization     217.0000000
 augmentation part      782.0000000 magnetization     217.0000000

 Free energy of the ion-electron system (eV)
  ---------------------------------------------------
  alpha Z        PSCENC =      2403.21136664
  Ewald energy   TEWEN  =    208915.93935814
  -Hartree energ DENC   =   -279574.83205859
  -exchange      EXHF   =         0.00000000
  -V(xc)+E(xc)   XCENC  =      1158.29643917
  PAW double counting   =     62151.42609927   -63176.80815837
  entropy T*S    EENTRO =        -0.01448472
  eigenvalues    EBANDS =      1385.40242668
  atomic energy  EATOM  =     67507.56188773
  Solvation  Ediel_sol  =         0.00000000
  ---------------------------------------------------
  free energy    TOTEN  =       770.18287595 eV

  energy without entropy =      770.19736067  energy(sigma->0) =      770.18770419


--------------------------------------------------------------------------------------------------------




--------------------------------------- Iteration      1(   3)  ---------------------------------------


     EDDAV:  cpu time   55.3849: real time   55.5559
       DOS:  cpu time    0.0027: real time    0.0165
    --------------------------------------------
      LOOP:  cpu time   55.3876: real time   55.5724

 eigenvalue-minimisations  :  9408
 total energy-change (2. order) :-0.1155758E+04  (-0.9485964E+03)
 number of electron     782.0000000 magnetization     217.0000000
 augmentation part      782.0000000 magnetization     217.0000000

 Free energy of the ion-electron system (eV)
  ---------------------------------------------------
  alpha Z        PSCENC =      2403.21136664
  Ewald energy   TEWEN  =    208915.93935814
  -Hartree energ DENC   =   -279574.83205859
  -exchange      EXHF   =         0.00000000
  -V(xc)+E(xc)   XCENC  =      1158.29643917
  PAW double counting   =     62151.42609927   -63176.80815837
  entropy T*S    EENTRO =         0.00486289
  eigenvalues    EBANDS =       229.62551336
  atomic energy  EATOM  =     67507.56188773
  Solvation  Ediel_sol  =         0.00000000
  ---------------------------------------------------
  free energy    TOTEN  =      -385.57468976 eV

  energy without entropy =     -385.57955265  energy(sigma->0) =     -385.57631072


--------------------------------------------------------------------------------------------------------




--------------------------------------- Iteration      1(   4)  ---------------------------------------


     EDDAV:  cpu time   65.9569: real time   66.1331
       DOS:  cpu time    0.0030: real time    0.0037
    --------------------------------------------
      LOOP:  cpu time   65.9599: real time   66.1367

 eigenvalue-minimisations  : 11724
 total energy-change (2. order) :-0.1040021E+03  (-0.9607982E+02)
 number of electron     782.0000000 magnetization     217.0000000
 augmentation part      782.0000000 magnetization     217.0000000

 Free energy of the ion-electron system (eV)
  ---------------------------------------------------
  alpha Z        PSCENC =      2403.21136664
  Ewald energy   TEWEN  =    208915.93935814
  -Hartree energ DENC   =   -279574.83205859
  -exchange      EXHF   =         0.00000000
  -V(xc)+E(xc)   XCENC  =      1158.29643917
  PAW double counting   =     62151.42609927   -63176.80815837
  entropy T*S    EENTRO =        -0.00986617
  eigenvalues    EBANDS =       125.63819239
  atomic energy  EATOM  =     67507.56188773
  Solvation  Ediel_sol  =         0.00000000
  ---------------------------------------------------
  free energy    TOTEN  =      -489.57673978 eV

  energy without entropy =     -489.56687362  energy(sigma->0) =     -489.57345106


--------------------------------------------------------------------------------------------------------




--------------------------------------- Iteration      1(   5)  ---------------------------------------


     EDDAV:  cpu time   64.3474: real time   64.6046
       DOS:  cpu time    0.0029: real time    0.0036
    CHARGE:  cpu time    3.1410: real time    3.2330
    MIXING:  cpu time    0.0099: real time    0.0099
    --------------------------------------------
      LOOP:  cpu time   67.5011: real time   67.8510

 eigenvalue-minimisations  : 11400
 total energy-change (2. order) :-0.4020037E+01  (-0.3989384E+01)
 number of electron     782.0000015 magnetization     202.7557743
 augmentation part      311.9428336 magnetization     172.4771471

 Broyden mixing:
  rms(total) = 0.12483E+02    rms(broyden)= 0.12483E+02
  rms(prec ) = 0.12787E+02
  weight for this iteration     100.00

 Free energy of the ion-electron system (eV)
  ---------------------------------------------------
  alpha Z        PSCENC =      2403.21136664
  Ewald energy   TEWEN  =    208915.93935814
  -Hartree energ DENC   =   -279574.83205859
  -exchange      EXHF   =         0.00000000
  -V(xc)+E(xc)   XCENC  =      1158.29643917
  PAW double counting   =     62151.42609927   -63176.80815837
  entropy T*S    EENTRO =        -0.00951996
  eigenvalues    EBANDS =       121.61780928
  atomic energy  EATOM  =     67507.56188773
  Solvation  Ediel_sol  =         0.00000000
  ---------------------------------------------------
  free energy    TOTEN  =      -493.59677669 eV

  energy without entropy =     -493.58725673  energy(sigma->0) =     -493.59360337


--------------------------------------------------------------------------------------------------------




--------------------------------------- Iteration      1(   6)  ---------------------------------------


    POTLOK:  cpu time    0.3219: real time    0.3238
    SETDIJ:  cpu time    0.0307: real time    0.0309
    EDDIAG:  cpu time    9.5812: real time    9.6069
  RMM-DIIS:  cpu time   34.5107: real time   34.6064
    ORTHCH:  cpu time    1.1945: real time    1.1982
       DOS:  cpu time    0.0024: real time    0.0025
    CHARGE:  cpu time    3.1881: real time    3.1966
    MIXING:  cpu time    0.0095: real time    0.0101
    --------------------------------------------
      LOOP:  cpu time   48.8391: real time   48.9754

 eigenvalue-minimisations  :  9822
 total energy-change (2. order) :-0.2397001E+03  (-0.8883726E+02)
 number of electron     782.0000017 magnetization     199.0219093
 augmentation part      372.5184582 magnetization     168.1278531

 Broyden mixing:
  rms(total) = 0.20300E+02    rms(broyden)= 0.20300E+02
  rms(prec ) = 0.27238E+02
  weight for this iteration     100.00

 eigenvalues of (default mixing * dielectric matrix)
  average eigenvalue GAMMA=   0.2241
  0.2241

 Free energy of the ion-electron system (eV)
  ---------------------------------------------------
  alpha Z        PSCENC =      2403.21136664
  Ewald energy   TEWEN  =    208915.93935814
  -Hartree energ DENC   =   -278034.19569012
  -exchange      EXHF   =         0.00000000
  -V(xc)+E(xc)   XCENC  =      1122.36524728
  PAW double counting   =     68248.09713264   -69115.00775211
  entropy T*S    EENTRO =        -0.01685207
  eigenvalues    EBANDS =     -1781.25156580
  atomic energy  EATOM  =     67507.56188773
  Solvation  Ediel_sol  =         0.00000000
  ---------------------------------------------------
  free energy    TOTEN  =      -733.29686766 eV

  energy without entropy =     -733.28001559  energy(sigma->0) =     -733.29125031


--------------------------------------------------------------------------------------------------------




--------------------------------------- Iteration      1(   7)  ---------------------------------------


    POTLOK:  cpu time    0.3196: real time    0.3405
    SETDIJ:  cpu time    0.0307: real time    0.0308
    EDDIAG:  cpu time    9.6366: real time    9.6700
  RMM-DIIS:  cpu time   33.1149: real time   33.2031
    ORTHCH:  cpu time    1.1931: real time    1.1964
       DOS:  cpu time    0.0024: real time    0.0025
    CHARGE:  cpu time    3.1776: real time    3.1859
    MIXING:  cpu time    0.0107: real time    0.0108
    --------------------------------------------
      LOOP:  cpu time   47.4856: real time   47.6399

 eigenvalue-minimisations  :  9426
 total energy-change (2. order) : 0.1748397E+03  (-0.1534300E+02)
 number of electron     782.0000016 magnetization     193.6052616
 augmentation part      338.3544792 magnetization     154.7117319

 Broyden mixing:
  rms(total) = 0.15463E+02    rms(broyden)= 0.15463E+02
  rms(prec ) = 0.20686E+02
  weight for this iteration     100.00

 eigenvalues of (default mixing * dielectric matrix)
  average eigenvalue GAMMA=   0.2838
  0.4183  0.1492

 Free energy of the ion-electron system (eV)
  ---------------------------------------------------
  alpha Z        PSCENC =      2403.21136664
  Ewald energy   TEWEN  =    208915.93935814
  -Hartree energ DENC   =   -278651.17012927
  -exchange      EXHF   =         0.00000000
  -V(xc)+E(xc)   XCENC  =      1139.17792767
  PAW double counting   =     69328.54772212   -70339.53455560
  entropy T*S    EENTRO =        -0.00123638
  eigenvalues    EBANDS =      -862.18949169
  atomic energy  EATOM  =     67507.56188773
  Solvation  Ediel_sol  =         0.00000000
  ---------------------------------------------------
  free energy    TOTEN  =      -558.45715065 eV

  energy without entropy =     -558.45591427  energy(sigma->0) =     -558.45673853


--------------------------------------------------------------------------------------------------------




--------------------------------------- Iteration      1(   8)  ---------------------------------------


    POTLOK:  cpu time    0.3202: real time    0.3224
    SETDIJ:  cpu time    0.0306: real time    0.0306
    EDDIAG:  cpu time    9.6399: real time    9.6649
  RMM-DIIS:  cpu time   33.0870: real time   33.2177
    ORTHCH:  cpu time    1.1934: real time    1.1965
       DOS:  cpu time    0.0025: real time    0.0025
    CHARGE:  cpu time    3.1308: real time    3.1388
    MIXING:  cpu time    0.0104: real time    0.0106
    --------------------------------------------
      LOOP:  cpu time   47.4146: real time   47.5842

 eigenvalue-minimisations  :  9429
 total energy-change (2. order) : 0.9223730E+02  (-0.9994883E+01)
 number of electron     782.0000015 magnetization     186.3425114
 augmentation part      346.1027234 magnetization     151.8314646

 Broyden mixing:
  rms(total) = 0.15267E+02    rms(broyden)= 0.15267E+02
  rms(prec ) = 0.17957E+02
  weight for this iteration     100.00

 eigenvalues of (default mixing * dielectric matrix)
  average eigenvalue GAMMA=   0.3348
  0.6306  0.2847  0.0890

 Free energy of the ion-electron system (eV)
  ---------------------------------------------------
  alpha Z        PSCENC =      2403.21136664
  Ewald energy   TEWEN  =    208915.93935814
  -Hartree energ DENC   =   -278985.66612707
  -exchange      EXHF   =         0.00000000
  -V(xc)+E(xc)   XCENC  =      1144.83147647
  PAW double counting   =     71018.07926239   -72118.14218560
  entropy T*S    EENTRO =        -0.00964429
  eigenvalues    EBANDS =      -352.02524515
  atomic energy  EATOM  =     67507.56188773
  Solvation  Ediel_sol  =         0.00000000
  ---------------------------------------------------
  free energy    TOTEN  =      -466.21985072 eV

  energy without entropy =     -466.21020643  energy(sigma->0) =     -466.21663596


--------------------------------------------------------------------------------------------------------




--------------------------------------- Iteration      1(   9)  ---------------------------------------


    POTLOK:  cpu time    0.3209: real time    0.3358
    SETDIJ:  cpu time    0.0307: real time    0.0308
    EDDIAG:  cpu time    9.5986: real time    9.6271
  RMM-DIIS:  cpu time   33.1608: real time   33.2745
    ORTHCH:  cpu time    1.2109: real time    1.2141
       DOS:  cpu time    0.0023: real time    0.0024
    CHARGE:  cpu time    3.1283: real time    3.1784
    MIXING:  cpu time    0.0103: real time    0.0105
    --------------------------------------------
      LOOP:  cpu time   47.4627: real time   47.6736

 eigenvalue-minimisations  :  9427
 total energy-change (2. order) : 0.6245899E+02  (-0.1909086E+02)
 number of electron     782.0000019 magnetization     175.7047492
 augmentation part      343.0924239 magnetization     134.1535822

 Broyden mixing:
  rms(total) = 0.12255E+02    rms(broyden)= 0.12255E+02
  rms(prec ) = 0.13878E+02
  weight for this iteration     100.00

 eigenvalues of (default mixing * dielectric matrix)
  average eigenvalue GAMMA=   0.4091
  1.0072  0.3910  0.1391  0.0993

 Free energy of the ion-electron system (eV)
  ---------------------------------------------------
  alpha Z        PSCENC =      2403.21136664
  Ewald energy   TEWEN  =    208915.93935814
  -Hartree energ DENC   =   -278579.92786891
  -exchange      EXHF   =         0.00000000
  -V(xc)+E(xc)   XCENC  =      1161.01597053
  PAW double counting   =     72690.46858562   -73842.87353451
  entropy T*S    EENTRO =        -0.01911387
  eigenvalues    EBANDS =      -659.13751107
  atomic energy  EATOM  =     67507.56188773
  Solvation  Ediel_sol  =         0.00000000
  ---------------------------------------------------
  free energy    TOTEN  =      -403.76085970 eV

[...]
   -.322E+02 -.745E+01 -.149E+04   0.314E+02 0.781E+01 0.149E+04   0.706E+00 -.362E+00 0.151E+01   -.555E-02 0.680E-02 0.271E-02
   0.155E+02 -.767E+02 -.149E+04   -.161E+02 0.755E+02 0.149E+04   0.596E+00 0.128E+01 0.182E+01   -.130E-01 -.295E-01 0.597E-02
   0.352E+02 -.736E+01 -.152E+04   -.348E+02 0.733E+01 0.152E+04   -.339E+00 0.228E-01 0.156E+01   0.750E-02 0.126E-01 0.925E-02
   -.412E+02 0.233E+02 0.156E+04   0.402E+02 -.226E+02 -.156E+04   0.101E+01 -.757E+00 0.976E+00   0.215E-04 -.175E-01 -.165E-01
   0.113E+02 -.188E+02 -.284E+04   -.121E+02 0.192E+02 0.284E+04   0.837E+00 -.326E+00 0.224E+00   0.415E-01 0.514E-02 -.663E-01
   0.263E+00 0.153E+02 -.285E+04   -.178E+00 -.147E+02 0.285E+04   -.920E-01 -.617E+00 -.402E-02   0.395E-02 0.323E-02 0.436E-02
   -.107E+02 -.167E+02 -.284E+04   0.113E+02 0.171E+02 0.284E+04   -.547E+00 -.344E+00 0.200E+00   -.174E-01 -.397E-03 0.280E-01
   -.577E+01 0.325E+01 -.287E+04   0.592E+01 -.347E+01 0.287E+04   -.112E+00 0.206E+00 0.527E+00   -.241E-01 -.609E-02 -.165E-01
   0.545E+01 -.183E+02 -.286E+04   -.569E+01 0.182E+02 0.285E+04   0.276E+00 0.608E-01 0.839E+00   -.166E-01 -.182E-01 -.439E-02
   0.120E+01 0.947E+01 -.282E+04   -.129E+01 -.914E+01 0.282E+04   0.114E+00 -.325E+00 0.423E+00   -.405E-02 -.224E-01 0.668E-02
   -.373E+01 -.509E+01 -.291E+04   0.370E+01 0.513E+01 0.291E+04   0.774E-01 -.208E-01 0.265E+00   -.308E-01 -.303E-01 -.327E-02
   -.644E+01 -.177E+02 -.286E+04   0.678E+01 0.173E+02 0.286E+04   -.386E+00 0.281E+00 0.239E+00   -.828E-02 -.607E-02 0.841E-02
   -.284E+01 0.469E+01 -.286E+04   0.253E+01 -.475E+01 0.286E+04   0.321E+00 0.515E-01 -.696E-02   0.245E-02 0.136E-01 0.338E-01
   -.170E+01 -.949E+01 -.287E+04   0.178E+01 0.934E+01 0.287E+04   -.934E-01 0.166E+00 0.216E-01   0.338E-02 -.568E-02 0.202E-01
   0.135E+02 0.666E+01 -.284E+04   -.128E+02 -.673E+01 0.284E+04   -.712E+00 0.707E-01 0.837E+00   -.337E-02 0.858E-02 -.176E-01
   0.101E+02 0.979E+01 -.286E+04   -.977E+01 -.958E+01 0.286E+04   -.297E+00 -.209E+00 0.754E+00   -.156E-01 0.244E-02 -.164E-02
   -.222E+01 0.294E+02 -.295E+04   0.207E+01 -.291E+02 0.295E+04   0.152E+00 -.288E+00 -.580E+00   0.158E-01 0.148E-01 -.117E-01
   0.270E+01 -.198E+01 -.288E+04   -.271E+01 0.204E+01 0.288E+04   -.502E-01 -.766E-01 0.488E+00   0.450E-01 0.101E-01 -.858E-02
   0.336E+02 -.338E+01 -.151E+04   -.325E+02 0.429E+01 0.150E+04   -.113E+01 -.967E+00 0.156E+01   0.139E-01 0.176E-01 0.147E-01
   -.119E+02 -.389E+01 -.147E+04   0.118E+02 0.371E+01 0.147E+04   0.797E-01 0.177E+00 0.115E+01   -.164E-02 0.533E-02 0.861E-02
   0.402E+02 0.376E+02 0.301E+04   -.404E+02 -.378E+02 -.301E+04   0.125E+00 0.220E+00 -.196E+01   -.289E-02 0.820E-02 -.140E-01
   0.820E+02 -.364E+02 0.158E+04   -.821E+02 0.362E+02 -.158E+04   0.113E+00 0.288E+00 0.125E+01   0.667E-02 0.981E-02 0.155E-02
   -.177E+02 0.136E+01 -.147E+04   0.178E+02 -.174E+01 0.146E+04   -.939E-02 0.372E+00 0.177E+01   -.113E-01 -.327E-01 0.387E-01
   -.623E+02 0.453E+02 0.305E+04   0.630E+02 -.448E+02 -.305E+04   -.675E+00 -.457E+00 -.192E+01   -.528E-02 0.607E-02 -.181E-01
   -.371E+02 -.574E+01 0.156E+04   0.368E+02 0.612E+01 -.156E+04   0.167E+00 -.353E+00 -.120E+00   0.906E-02 -.218E-01 0.121E-01
   -.316E+01 0.144E+02 -.285E+04   0.278E+01 -.140E+02 0.285E+04   0.361E+00 -.330E+00 0.154E+00   0.283E-01 0.143E-01 0.341E-02
   -.232E+02 -.742E+02 0.806E+01   0.234E+02 0.734E+02 -.927E+01   -.173E+00 0.794E+00 0.115E+01   0.621E-02 0.155E-01 0.191E-01
   -.579E+01 0.886E+01 -.292E+04   0.566E+01 -.909E+01 0.292E+04   0.167E+00 0.230E+00 0.970E+00   -.260E-01 0.260E-01 0.526E-02
   0.273E+02 0.645E+01 -.321E+02   -.282E+02 -.754E+01 0.316E+02   0.100E+01 0.111E+01 0.540E+00   0.237E-01 -.148E-01 0.109E-01
   -.664E+02 0.202E+02 -.146E+04   0.652E+02 -.201E+02 0.146E+04   0.127E+01 -.556E-01 0.245E+01   -.212E-01 -.152E-01 0.151E-01
   0.462E+02 -.936E+01 -.153E+04   -.451E+02 0.102E+02 0.153E+04   -.112E+01 -.802E+00 0.133E+01   0.306E-01 0.218E-01 0.183E-01
   0.662E+01 -.789E+02 0.154E+04   -.529E+01 0.786E+02 -.154E+04   -.138E+01 0.287E+00 0.126E+01   0.129E-01 -.193E-01 -.507E-02
   0.723E+02 -.144E+02 -.279E+02   -.726E+02 0.148E+02 0.271E+02   0.284E+00 -.498E+00 0.828E+00   -.159E-02 0.533E-02 0.126E-01
   -.394E+02 -.542E+00 0.366E+02   0.402E+02 0.162E+01 -.376E+02   -.754E+00 -.114E+01 0.978E+00   -.212E-01 -.128E-01 0.902E-02
   0.207E+02 -.585E+01 -.357E+01   -.201E+02 0.707E+01 0.351E+01   -.749E+00 -.114E+01 0.138E+00   0.272E-01 -.792E-02 0.313E-01
   -.576E+01 -.155E+02 0.698E+02   0.500E+01 0.139E+02 -.719E+02   0.860E+00 0.162E+01 0.204E+01   -.246E-01 0.841E-02 0.162E-01
   0.157E+02 0.759E+02 0.918E+02   -.157E+02 -.752E+02 -.940E+02   0.181E-02 -.799E+00 0.224E+01   0.337E-02 0.185E-01 0.178E-01
   0.160E+02 0.614E+02 -.147E+04   -.156E+02 -.611E+02 0.147E+04   -.380E+00 -.373E+00 0.156E+01   0.204E-01 0.117E-01 0.366E-01
   -.754E+02 -.215E+02 0.583E+02   0.748E+02 0.213E+02 -.601E+02   0.598E+00 0.135E+00 0.184E+01   0.168E-02 0.141E-01 0.238E-01
   -.358E+02 0.209E+02 0.245E+04   0.363E+02 -.216E+02 -.244E+04   -.467E+00 0.698E+00 -.278E+01   -.763E-02 -.621E-02 -.897E-02
   0.915E+01 -.284E+01 0.244E+04   -.914E+01 0.188E+01 -.244E+04   0.220E-01 0.102E+01 -.189E+01   -.668E-03 -.127E-01 -.620E-02
   0.395E+02 -.107E+02 0.246E+04   -.391E+02 0.108E+02 -.246E+04   -.380E+00 -.155E+00 -.240E+01   0.699E-02 -.509E-02 -.450E-02
   -.332E+01 0.710E+02 0.125E+04   0.415E+01 -.706E+02 -.125E+04   -.826E+00 -.440E+00 -.420E+00   -.593E-02 0.130E-01 -.417E-02
   0.434E+02 -.739E+01 0.125E+04   -.431E+02 0.753E+01 -.125E+04   -.279E+00 -.170E+00 0.179E+00   0.150E-02 -.149E-01 0.706E-02
   -.820E+02 0.229E+02 0.244E+04   0.817E+02 -.226E+02 -.244E+04   0.252E+00 -.294E+00 -.228E+01   -.197E-02 0.125E-01 -.785E-02
   -.359E+02 0.539E+02 0.125E+04   0.356E+02 -.530E+02 -.125E+04   0.287E+00 -.984E+00 -.311E+00   -.266E-02 0.150E-01 -.269E-02
   -.803E+01 -.115E+00 -.279E+02   0.752E+01 0.265E+00 0.278E+02   0.443E+00 -.178E+00 0.123E-01   0.460E-02 -.148E-01 0.485E-02
   0.124E+02 0.230E+02 -.121E+04   -.124E+02 -.230E+02 0.121E+04   -.124E-01 -.137E+00 0.452E+00   -.224E-01 0.828E-02 0.857E-02
   0.183E+02 -.393E+02 0.243E+04   -.190E+02 0.385E+02 -.243E+04   0.753E+00 0.823E+00 -.268E+01   0.122E-01 0.306E-02 -.937E-02
   0.504E+02 -.600E+02 0.271E+04   -.500E+02 0.598E+02 -.271E+04   -.501E+00 0.190E+00 -.211E+01   0.392E-03 -.895E-02 -.315E-02
   0.117E+03 0.412E+02 0.277E+04   -.117E+03 -.404E+02 -.277E+04   0.331E+00 -.868E+00 -.190E+01   0.132E-01 0.105E-01 -.933E-02
   -.354E+02 -.139E+02 0.140E+04   0.352E+02 0.132E+02 -.140E+04   0.254E+00 0.730E+00 -.492E+00   -.939E-02 0.732E-04 -.193E-01
   -.633E+02 0.174E+02 0.357E+02   0.630E+02 -.176E+02 -.363E+02   0.235E+00 0.199E+00 0.522E+00   -.112E-01 -.123E-01 0.647E-02
   -.126E+02 -.188E+02 0.135E+04   0.129E+02 0.184E+02 -.135E+04   -.272E+00 0.481E+00 0.206E+00   -.183E-02 0.309E-01 -.164E-01
   0.606E+02 -.168E+01 -.133E+04   -.603E+02 0.144E+01 0.133E+04   -.395E+00 0.285E+00 0.104E+01   -.928E-02 -.120E-01 0.154E-01
   0.397E+02 -.315E+02 0.272E+04   -.395E+02 0.320E+02 -.272E+04   -.254E+00 -.396E+00 -.243E+01   0.113E-01 -.299E-01 -.246E-02
   0.211E+01 -.223E+02 0.134E+04   -.203E+01 0.223E+02 -.134E+04   -.326E-01 -.658E-01 -.210E+00   -.246E-01 -.211E-01 -.293E-01
   0.142E+02 -.265E+02 0.164E+02   -.141E+02 0.263E+02 -.165E+02   -.131E+00 0.308E+00 -.362E-02   0.308E-02 -.239E-01 0.318E-01
   0.296E+02 0.121E+02 0.338E+04   -.298E+02 -.117E+02 -.338E+04   0.174E+00 -.466E+00 -.309E+01   0.519E-02 0.355E-01 -.129E-01
   0.509E+02 0.631E+02 0.172E+04   -.512E+02 -.629E+02 -.172E+04   0.370E+00 -.178E+00 0.719E+00   0.269E-02 0.828E-02 -.430E-02
   0.437E+02 -.495E+02 0.169E+04   -.438E+02 0.491E+02 -.169E+04   0.831E-01 0.490E+00 0.799E+00   0.144E-01 -.136E-01 -.606E-04
   -.471E+02 -.529E+01 -.162E+04   0.465E+02 0.439E+01 0.162E+04   0.754E+00 0.996E+00 0.158E+01   -.514E-01 -.794E-02 0.301E-01
   -.131E+02 0.913E+02 0.335E+04   0.133E+02 -.918E+02 -.335E+04   -.192E+00 0.463E+00 -.227E+01   -.838E-02 0.113E-01 -.214E-01
   0.245E+01 -.633E+02 0.335E+04   -.318E+01 0.633E+02 -.335E+04   0.788E+00 0.686E-01 -.248E+01   -.182E-02 -.331E-01 -.649E-02
   0.780E+02 -.480E+02 -.374E+02   -.782E+02 0.476E+02 0.368E+02   0.170E+00 0.363E+00 0.547E+00   0.932E-02 0.662E-02 0.102E-01
   0.764E+01 0.361E+02 0.177E+04   -.765E+01 -.353E+02 -.177E+04   -.378E-01 -.791E+00 -.121E+00   -.150E-02 -.125E-01 -.716E-02
   -.312E+02 0.225E+01 0.377E+02   0.316E+02 -.267E+01 -.388E+02   -.402E+00 0.476E+00 0.977E+00   -.460E-02 0.246E-01 0.315E-01
   0.201E+02 0.464E+02 -.127E+02   -.198E+02 -.459E+02 0.117E+02   -.251E+00 -.572E+00 0.101E+01   0.461E-02 0.141E-01 0.166E-01
   -.878E+02 -.113E+02 0.149E+04   0.873E+02 0.111E+02 -.149E+04   0.527E+00 0.306E+00 0.106E-01   -.110E-01 0.219E-01 -.218E-02
   0.112E+02 0.302E+02 0.157E+04   -.109E+02 -.303E+02 -.157E+04   -.285E+00 0.190E+00 -.678E-01   0.827E-02 0.418E-02 0.866E-02
   -.112E+03 -.219E+02 0.304E+04   0.112E+03 0.215E+02 -.304E+04   -.136E+00 0.400E+00 -.834E+00   -.323E-01 0.770E-03 -.454E-02
   0.165E+02 -.822E+02 0.305E+04   -.172E+02 0.825E+02 -.305E+04   0.773E+00 -.354E+00 -.223E+00   0.187E-01 -.177E-01 -.555E-02
   0.188E+02 -.358E+02 0.155E+04   -.186E+02 0.357E+02 -.155E+04   -.224E+00 0.232E+00 0.169E+00   0.611E-02 0.170E-01 -.125E-01
   -.359E+02 -.126E+02 -.145E+04   0.356E+02 0.129E+02 0.145E+04   0.371E+00 -.269E+00 0.514E+00   -.172E-01 -.224E-02 0.200E-01
   -.636E+02 0.376E+02 0.302E+04   0.640E+02 -.370E+02 -.302E+04   -.408E+00 -.676E+00 -.133E+01   -.199E-01 0.386E-01 -.127E-01
   -.199E+02 0.466E+02 0.359E+02   0.200E+02 -.462E+02 -.365E+02   -.847E-01 -.442E+00 0.605E+00   0.122E-01 -.490E-02 0.324E-01
   0.223E+02 0.188E+02 0.155E+02   -.219E+02 -.185E+02 -.153E+02   -.342E+00 -.300E+00 -.373E+00   -.405E-01 -.727E-02 0.281E-01
   0.256E+00 -.126E+02 -.341E+03   -.393E+00 0.134E+02 0.343E+03   0.109E+00 -.803E+00 -.166E+01   0.327E-02 0.171E-02 -.234E-02
 -----------------------------------------------------------------------------------------------
   -.855E+00 0.233E+01 -.112E+02   0.354E-12 0.925E-12 -.682E-12   0.892E+00 -.239E+01 0.108E+02   -.281E-01 0.371E-01 0.369E+00
 
 
 POSITION                                       TOTAL-FORCE (eV/Angst)
 -----------------------------------------------------------------------------------
     12.68431      7.86183      7.11621        -0.012775     -0.009493      0.001176
      4.95164      7.86107      7.18441         0.003727      0.011437     -0.008718
      3.59062      5.60696      7.19885         0.008837     -0.005800     -0.005180
      2.23295      3.33102      7.15952         0.007630      0.008571      0.001432
      3.58523      0.98515      7.11339         0.008171     -0.008038      0.000352
      4.92156      3.34447      7.11595        -0.007464      0.006008     -0.008587
     12.73151      6.38620      2.69060         0.010953     -0.016349      0.020060
     14.05232      8.62033      9.59136         0.027158      0.013515      0.005660
      3.60952      4.10914      9.55969        -0.001230      0.012083      0.011941
      6.23356      8.63046      9.58438        -0.007476      0.012758     -0.022458
     11.44738      4.08893      9.51226         0.004545     -0.020654      0.026411
      8.83018      8.61036      9.42318         0.009993     -0.021009     -0.001693
     10.14123      1.84688      9.39393         0.005137     -0.033189     -0.007066
      2.29565      1.82574      9.65636         0.005469     -0.010885     -0.006581
     11.45181      8.61631      9.48178        -0.011741     -0.019178      0.003746
     12.74416      6.35997      9.60184         0.009100      0.022349     -0.017981
      4.91353      1.82022      9.52072        -0.001770     -0.012743     -0.001144
      7.54682      6.36957      9.47874        -0.010454      0.022393     -0.023297
      8.85235      4.10629      9.43420        -0.000777     -0.006571      0.000212
      4.91777      6.34079      9.97602         0.008771     -0.005455      0.007399
      7.53182      1.83509      9.52237         0.011982     -0.002523      0.021782
      7.59739      3.38109      7.08176         0.006898      0.009684      0.001629
      6.20767      1.06784      7.07465        -0.010947      0.001052      0.009125
      6.25215      1.06912      0.71248        -0.014104      0.007368      0.014232
      3.62995      4.06053      2.70395        -0.004320      0.038305      0.004217
      0.98242      1.05188      7.05590        -0.009140     -0.006157      0.001128
      1.00999      1.14415      0.59539         0.003151      0.013070     -0.031633
      6.20949      8.68938      2.76365         0.007628     -0.027613      0.014935
      6.21798      4.11103      9.52005         0.019466      0.028327     -0.006962
      7.51345      4.79616      4.84878         0.029998     -0.003233     -0.062919
     10.13499      6.36217      9.58253        -0.003359     -0.009303      0.006664
     14.02017      7.09055      4.91945         0.060194     -0.006680      0.064701
     11.33548      5.61782      7.10446         0.002962     -0.002445     -0.001962
      6.29095      5.63766      7.14338        -0.007090      0.004569     -0.005240
      7.60837      6.33811      2.70162        -0.034099      0.019365      0.023767
      3.57079      2.57920      4.90176        -0.013801     -0.003284     -0.056818
     10.15643      4.93617      4.82230         0.012186     -0.023392      0.019890
      6.25559      7.17282      4.92567        -0.029023      0.056149      0.077484
      4.83572      0.20639      4.81548         0.015742     -0.005945     -0.028020
      7.50713      0.38627      4.73942         0.021614     -0.009287     -0.004073
      8.84411      1.09529      7.03689         0.009259      0.007664      0.014303
     11.38068      2.54817      4.80374        -0.004911     -0.029790     -0.000339
     12.77049      7.83053      0.63332        -0.003719      0.007348     -0.004900
      4.98263      7.81422      0.65034        -0.014853     -0.001910     -0.025530
      3.66965      5.59621      0.61225        -0.007081      0.008042     -0.007401
      7.57969      1.93887      2.73530         0.007960      0.001184     -0.002336
      8.83875      8.62369      2.69559        -0.005005      0.012239     -0.017642
      2.23060      3.41188      0.70877        -0.000087      0.009667     -0.019147
     10.12389      1.90840      2.71235        -0.013460     -0.021028      0.034550
     12.71905      4.86079      4.97755        -0.013608     -0.005649     -0.034775
      8.83381      5.63591      7.19560        -0.008553     -0.009680     -0.007015
      3.61116      1.03011      0.71575         0.015725      0.015455     -0.002675
      8.96244      5.55017      0.78359        -0.010558     -0.013543     -0.024478
      4.99011      3.39374      0.70946         0.011463     -0.004735      0.000044
     11.35685      8.54256      2.74103        -0.000171      0.002350     -0.014067
     11.41974      7.11664      4.85312        -0.009225     -0.001493     -0.033865
      8.87054      4.07764      2.72515         0.001539      0.018470      0.000684
      7.57119      7.83435      7.05746        -0.002979     -0.003485     -0.011913
      7.58345      7.86427      0.68786         0.005712     -0.000166     -0.011286
     10.17979      6.39732      2.73108         0.010088      0.007630      0.053489
      2.31127      0.27811      4.97030        -0.037405     -0.014045      0.004106
      7.57055      3.39706      0.64923        -0.016810     -0.000989      0.000133
      4.94186      1.82395      2.78459         0.002945     -0.002836      0.001555
      4.93378      6.34352      2.77392        -0.012981     -0.007749     -0.007977
     10.07561      7.81657      7.08890         0.003448      0.001689      0.000645
      8.86143      1.09242      0.60473         0.002787     -0.017076      0.010936
     10.14167      7.81097      0.64587         0.001792     -0.010330      0.000021
      4.90924      4.84723      4.90184        -0.020860      0.002049      0.003696
     14.05673      8.67588      2.68456         0.009164     -0.003751      0.000546
      8.83290      2.58989      4.85900         0.007413     -0.018262     -0.002235
      6.18453      2.60592      4.85170         0.007208      0.019555     -0.001520
     11.42400      4.06434      2.72845         0.005476      0.018031     -0.001330
      2.34232      1.83008      2.72921        -0.006740      0.011365      0.015292
     11.41431      5.56039      0.71047        -0.015842      0.003275      0.023490
      6.18959      5.58046      0.74095        -0.008247     -0.005832     -0.001199
      6.25827      4.02492      2.70387        -0.008515     -0.001952      0.003790
     10.12270      3.37348      7.06918        -0.001399      0.000832     -0.004769
     10.13694      3.37925      0.73892        -0.008811     -0.012909      0.014353
     10.11248      0.34012      4.85224         0.027895     -0.000127      0.056970
      8.83182      7.10221      4.97875         0.005529      0.006639     -0.016933
      5.03090      7.85327     10.82765        -0.025323      0.016078     -0.022881
 -----------------------------------------------------------------------------------
    total drift:                                0.008648     -0.019138     -0.008451


--------------------------------------------------------------------------------------------------------



  FREE ENERGIE OF THE ION-ELECTRON SYSTEM (eV)
  ---------------------------------------------------
  free  energy   TOTEN  =      -515.53777157 eV

  energy  without entropy=     -515.53339307  energy(sigma->0) =     -515.53631207
 
 d Force = 0.9951686E-03[ 0.214E-03, 0.178E-02]  d Energy = 0.1082901E-02-0.877E-04
 d Force =-0.3222536E+01[-0.322E+01,-0.323E+01]  d Ewald  =-0.3222529E+01-0.666E-05


--------------------------------------------------------------------------------------------------------


    POTLOK:  cpu time    0.3534: real time    0.3562


--------------------------------------------------------------------------------------------------------


 Conjugate gradient step on ions:
 trial-energy change:   -0.001083  1 .order   -0.000995   -0.001777   -0.000214
  (g-gl).g = 0.147E-02      g.g   = 0.159E-02  gl.gl    = 0.277E-02
 g(Force)  = 0.159E-02   g(Stress)= 0.000E+00 ortho     =-0.306E-03
 gamma     =   0.53063
 trial     =   1.24416
 opt step  =   1.36826  (harmonic =   1.41422) maximal distance =0.00830818
 next E    =  -515.537782   (d E  =  -0.00109)


--------------------------------------------------------------------------------------------------------


  
 reached required accuracy - stopping structural energy minimisation
     LOOP+:  cpu time  628.2711: real time  630.5669
    4ORBIT:  cpu time    0.0000: real time    0.0000

 total amount of memory used by VASP MPI-rank0   221959. kBytes
=======================================================================

   base      :      30000. kBytes
   nonlr-proj:      32405. kBytes
   fftplans  :      14920. kBytes
   grid      :      45762. kBytes
   one-center:        653. kBytes
   wavefun   :      98219. kBytes
 
  
  
 General timing and accounting informations for this job:
 ========================================================
  
                  Total CPU time used (sec):    12022.377
                            User time (sec):    11673.334
                          System time (sec):      349.044
                         Elapsed time (sec):    12075.612
  
                   Maximum memory used (kb):      393068.
                   Average memory used (kb):           0.
  
                          Minor page faults:     11721656
                          Major page faults:          245
                 Voluntary context switches:         9118
