 vasp.5.4.4.18Apr17-6-g9f103f2a35 (build Oct 25 2019 11:13:22) complex          
  
 executed on             LinuxIFC date 2022.02.13  02:24:57
 running on   48 total cores
 distrk:  each k-point on   48 cores,    1 groups
 distr:  one band on NCORES_PER_BAND=   1 cores,   48 groups


--------------------------------------------------------------------------------------------------------


 INCAR:
 POTCAR:    PAW_PBE Pt 04Feb2005                  
 POTCAR:    PAW_PBE Co 02Aug2007                  
 POTCAR:    PAW_PBE Ni 02Aug2007                  
 POTCAR:    PAW_PBE H 15Jun2001                   

 ----------------------------------------------------------------------------- 
|                                                                             |
|           W    W    AA    RRRRR   N    N  II  N    N   GGGG   !!!           |
|           W    W   A  A   R    R  NN   N  II  NN   N  G    G  !!!           |
|           W    W  A    A  R    R  N N  N  II  N N  N  G       !!!           |
|           W WW W  AAAAAA  RRRRR   N  N N  II  N  N N  G  GGG   !            |
|           WW  WW  A    A  R   R   N   NN  II  N   NN  G    G                |
|           W    W  A    A  R    R  N    N  II  N    N   GGGG   !!!           |
|                                                                             |
|      For optimal performance we recommend to set                            |
|        NCORE= 4 - approx SQRT( number of cores)                             |
|      NCORE specifies how many cores store one orbital (NPAR=cpu/NCORE).     |
|      This setting can  greatly improve the performance of VASP for DFT.     |
|      The default,   NCORE=1            might be grossly inefficient         |
|      on modern multi-core architectures or massively parallel machines.     |
|      Do your own testing !!!!                                               |
|      Unfortunately you need to use the default for GW and RPA calculations. |
|      (for HF NCORE is supported but not extensively tested yet)             |
|                                                                             |
 ----------------------------------------------------------------------------- 

 POTCAR:    PAW_PBE Pt 04Feb2005                  
   VRHFIN =Pt: s1d9                                                             
   LEXCH  = PE                                                                  
   EATOM  =   729.1176 eV,   53.5886 Ry                                         
                                                                                
   TITEL  = PAW_PBE Pt 04Feb2005                                                
   LULTRA =        F    use ultrasoft PP ?                                      
   IUNSCR =        1    unscreen: 0-lin 1-nonlin 2-no                           
   RPACOR =    2.330    partial core radius                                     
   POMASS =  195.080; ZVAL   =   10.000    mass and valenz                      
   RCORE  =    2.600    outmost cutoff radius                                   
   RWIGS  =    2.750; RWIGS  =    1.455    wigner-seitz radius (au A)           
   ENMAX  =  230.283; ENMIN  =  172.712 eV                                      
   ICORE  =        3    local potential                                         
   LCOR   =        T    correct aug charges                                     
   LPAW   =        T    paw PP                                                  
   EAUG   =  358.966                                                            
   DEXC   =    0.000                                                            
   RMAX   =    2.658    core radius for proj-oper                               
   RAUG   =    1.300    factor for augmentation sphere                          
   RDEP   =    2.761    radius for radial grids                                 
   RDEPT  =    2.203    core radius for aug-charge                              
                                                                                
   Atomic configuration                                                         
   16 entries                                                                   
     n  l   j            E        occ.                                          
     1  0  0.50    -78401.1885   2.0000                                         
     2  0  0.50    -13770.7750   2.0000                                         
     2  1  1.50    -11931.0468   6.0000                                         
     3  0  0.50     -3234.7234   2.0000                                         
     3  1  1.50     -2699.2216   6.0000                                         
     3  2  2.50     -2119.5714  10.0000                                         
     4  0  0.50      -695.1528   2.0000                                         
     4  1  1.50      -519.6034   6.0000                                         
     4  2  2.50      -306.6786  10.0000                                         
     4  3  3.50       -70.1041  14.0000                                         
     5  0  0.50      -101.7747   2.0000                                         
     5  1  1.50       -55.9873   6.0000                                         
     5  2  2.50        -6.1423   9.0000                                         
     6  0  0.50        -5.6573   1.0000                                         
     6  1  1.50        -6.8029   0.0000                                         
     5  3  2.50        -1.3606   0.0000                                         
   Description                                                                  
     l       E           TYP  RCUT    TYP  RCUT                                 
     2     -6.1423404     23  2.500                                             
     2     -7.5029230     23  2.500                                             
     0     -5.6573207     23  2.500                                             
     0      0.7416693     23  2.500                                             
     1     -2.7211652     23  2.600                                             
     1     20.4087390     23  2.600                                             
     3     -1.3605826     23  2.500                                             
  local pseudopotential read in
  partial core-charges read in
  partial kinetic energy density read in
  atomic valenz-charges read in
  non local Contribution for L=           2  read in
    real space projection operators read in
  non local Contribution for L=           2  read in
    real space projection operators read in
  non local Contribution for L=           0  read in
    real space projection operators read in
  non local Contribution for L=           0  read in
    real space projection operators read in
  non local Contribution for L=           1  read in
    real space projection operators read in
  non local Contribution for L=           1  read in
    real space projection operators read in
    PAW grid and wavefunctions read in
 
   number of l-projection  operators is LMAX  =           6
   number of lm-projection operators is LMMAX =          18
 
 POTCAR:    PAW_PBE Co 02Aug2007                  
   VRHFIN =Co: d8 s1                                                            
   LEXCH  = PE                                                                  
   EATOM  =   813.3670 eV,   59.7808 Ry                                         
                                                                                
   TITEL  = PAW_PBE Co 02Aug2007                                                
   LULTRA =        F    use ultrasoft PP ?                                      
   IUNSCR =        1    unscreen: 0-lin 1-nonlin 2-no                           
   RPACOR =    2.000    partial core radius                                     
   POMASS =   58.933; ZVAL   =    9.000    mass and valenz                      
   RCORE  =    2.300    outmost cutoff radius                                   
   RWIGS  =    2.460; RWIGS  =    1.302    wigner-seitz radius (au A)           
   ENMAX  =  267.968; ENMIN  =  200.976 eV                                      
   RCLOC  =    1.203    cutoff for local pot                                    
   LCOR   =        T    correct aug charges                                     
   LPAW   =        T    paw PP                                                  
   EAUG   =  477.818                                                            
   DEXC   =    0.000                                                            
   RMAX   =    2.360    core radius for proj-oper                               
   RAUG   =    1.300    factor for augmentation sphere                          
   RDEP   =    2.393    radius for radial grids                                 
   RDEPT  =    1.864    core radius for aug-charge                              
                                                                                
   Atomic configuration                                                         
    9 entries                                                                   
     n  l   j            E        occ.                                          
     1  0  0.50     -7587.6674   2.0000                                         
     2  0  0.50      -893.6084   2.0000                                         
     2  1  1.50      -764.5805   6.0000                                         
     3  0  0.50       -97.5973   2.0000                                         
     3  1  1.50       -60.9648   6.0000                                         
     3  2  2.50        -4.2382   8.0000                                         
     4  0  0.50        -4.3746   1.0000                                         
     4  1  1.50        -4.0817   0.0000                                         
     4  3  2.50        -1.3606   0.0000                                         
   Description                                                                  
     l       E           TYP  RCUT    TYP  RCUT                                 
     2     -4.2382362     23  2.300                                             
     2     -5.5988188     23  2.300                                             
     0     -4.3745797     23  2.300                                             
     0      5.7660125     23  2.300                                             
     1     -2.7211652     23  2.300                                             
     1     16.9860234     23  2.300                                             
  local pseudopotential read in
  partial core-charges read in
  partial kinetic energy density read in
  atomic valenz-charges read in
  non local Contribution for L=           2  read in
    real space projection operators read in
  non local Contribution for L=           2  read in
    real space projection operators read in
  non local Contribution for L=           0  read in
    real space projection operators read in
  non local Contribution for L=           0  read in
    real space projection operators read in
  non local Contribution for L=           1  read in
    real space projection operators read in
  non local Contribution for L=           1  read in
    real space projection operators read in
    PAW grid and wavefunctions read in
 
   number of l-projection  operators is LMAX  =           6
   number of lm-projection operators is LMMAX =          18
 
 POTCAR:    PAW_PBE Ni 02Aug2007                  
   VRHFIN =Ni:                                                                  
   LEXCH  = PE                                                                  
   EATOM  =  1077.6739 eV,   79.2068 Ry                                         
                                                                                
   TITEL  = PAW_PBE Ni 02Aug2007                                                
   LULTRA =        F    use ultrasoft PP ?                                      
   IUNSCR =        1    unscreen: 0-lin 1-nonlin 2-no                           
   RPACOR =    2.000    partial core radius                                     
   POMASS =   58.690; ZVAL   =   10.000    mass and valenz                      
   RCORE  =    2.300    outmost cutoff radius                                   
   RWIGS  =    2.430; RWIGS  =    1.286    wigner-seitz radius (au A)           
   ENMAX  =  269.532; ENMIN  =  202.149 eV                                      
   RCLOC  =    1.201    cutoff for local pot                                    
   LCOR   =        T    correct aug charges                                     
   LPAW   =        T    paw PP                                                  
   EAUG   =  544.565                                                            
   DEXC   =    0.000                                                            
   RMAX   =    2.357    core radius for proj-oper                               
   RAUG   =    1.300    factor for augmentation sphere                          
   RDEP   =    2.390    radius for radial grids                                 
   RDEPT  =    1.838    core radius for aug-charge                              
                                                                                
   Atomic configuration                                                         
    9 entries                                                                   
     n  l   j            E        occ.                                          
     1  0  0.50     -8206.4253   2.0000                                         
     2  0  0.50      -976.1748   2.0000                                         
     2  1  1.50      -839.0571   6.0000                                         
     3  0  0.50      -105.9991   2.0000                                         
     3  1  1.50       -66.4603   6.0000                                         
     3  2  2.50        -4.6458   9.0000                                         
     4  0  0.50        -4.4926   1.0000                                         
     4  1  1.50        -4.0817   0.0000                                         
     4  3  2.50        -1.3606   0.0000                                         
   Description                                                                  
     l       E           TYP  RCUT    TYP  RCUT                                 
     2     -4.6457903     23  2.300                                             
     2     -6.0063729     23  2.300                                             
     0     -4.4925590     23  2.300                                             
     0      5.0102601     23  2.300                                             
     1     -2.7211652     23  2.300                                             
     1     16.5183231     23  2.300                                             
  local pseudopotential read in
  partial core-charges read in
  partial kinetic energy density read in
  atomic valenz-charges read in
  non local Contribution for L=           2  read in
    real space projection operators read in
  non local Contribution for L=           2  read in
    real space projection operators read in
  non local Contribution for L=           0  read in
    real space projection operators read in
  non local Contribution for L=           0  read in
    real space projection operators read in
  non local Contribution for L=           1  read in
    real space projection operators read in
  non local Contribution for L=           1  read in
    real space projection operators read in
    PAW grid and wavefunctions read in
 
   number of l-projection  operators is LMAX  =           6
   number of lm-projection operators is LMMAX =          18
 
 POTCAR:    PAW_PBE H 15Jun2001                   
   VRHFIN =H: ultrasoft test                                                    
   LEXCH  = PE                                                                  
   EATOM  =    12.4884 eV,    0.9179 Ry                                         
                                                                                
   TITEL  = PAW_PBE H 15Jun2001                                                 
   LULTRA =        F    use ultrasoft PP ?                                      
   IUNSCR =        0    unscreen: 0-lin 1-nonlin 2-no                           
   RPACOR =    0.000    partial core radius                                     
   POMASS =    1.000; ZVAL   =    1.000    mass and valenz                      
   RCORE  =    1.100    outmost cutoff radius                                   
   RWIGS  =    0.700; RWIGS  =    0.370    wigner-seitz radius (au A)           
   ENMAX  =  250.000; ENMIN  =  200.000 eV                                      
   RCLOC  =    0.701    cutoff for local pot                                    
   LCOR   =        T    correct aug charges                                     
   LPAW   =        T    paw PP                                                  
   EAUG   =  400.000                                                            
   RMAX   =    1.123    core radius for proj-oper                               
   RAUG   =    1.200    factor for augmentation sphere                          
   RDEP   =    1.112    radius for radial grids                                 
   RDEPT  =    0.926    core radius for aug-charge                              
                                                                                
   Atomic configuration                                                         
    2 entries                                                                   
     n  l   j            E        occ.                                          
     1  0  0.50        -6.4927   1.0000                                         
     2  1  0.50        -3.4015   0.0000                                         
   Description                                                                  
     l       E           TYP  RCUT    TYP  RCUT                                 
     0     -6.4927494     23  1.100                                             
     0      6.8029130     23  1.100                                             
     1     -4.0817478     23  1.100                                             
  local pseudopotential read in
  atomic valenz-charges read in
  non local Contribution for L=           0  read in
    real space projection operators read in
  non local Contribution for L=           0  read in
    real space projection operators read in
  non local Contribution for L=           1  read in
    real space projection operators read in
    PAW grid and wavefunctions read in
 
   number of l-projection  operators is LMAX  =           3
   number of lm-projection operators is LMMAX =           5
 
 Optimization of the real space projectors (new method)

 maximal supplied QI-value         = 14.36
 optimisation between [QCUT,QGAM] = [ 11.92, 23.98] = [ 39.79,161.09] Ry 
 Optimized for a Real-space Cutoff    1.49 Angstroem

   l    n(q)    QCUT    max X(q) W(low)/X(q) W(high)/X(q)  e(spline) 
   2     10    11.920    66.195    0.79E-04    0.18E-03    0.24E-06
   2     10    11.920    64.643    0.81E-04    0.19E-03    0.24E-06
   0     11    11.920    95.520    0.28E-04    0.54E-04    0.18E-06
   0     11    11.920    63.403    0.27E-04    0.52E-04    0.17E-06
   1     10    11.920    19.961    0.18E-04    0.11E-03    0.23E-06
   1     10    11.920    13.289    0.25E-04    0.87E-04    0.19E-06
 Optimization of the real space projectors (new method)

 maximal supplied QI-value         = 16.25
 optimisation between [QCUT,QGAM] = [ 11.86, 23.89] = [ 39.41,159.82] Ry 
 Optimized for a Real-space Cutoff    1.33 Angstroem

   l    n(q)    QCUT    max X(q) W(low)/X(q) W(high)/X(q)  e(spline) 
   2      9    11.864    65.824    0.22E-03    0.53E-03    0.26E-06
   2      9    11.864    61.429    0.22E-03    0.53E-03    0.26E-06
   0      9    11.864    56.174    0.21E-03    0.32E-04    0.15E-06
   0      9    11.864    31.263    0.19E-03    0.30E-04    0.14E-06
   1      9    11.864    19.828    0.63E-04    0.30E-03    0.16E-06
   1      9    11.864    15.139    0.49E-04    0.25E-03    0.13E-06
 Optimization of the real space projectors (new method)

 maximal supplied QI-value         = 16.25
 optimisation between [QCUT,QGAM] = [ 11.86, 23.89] = [ 39.41,159.82] Ry 
 Optimized for a Real-space Cutoff    1.33 Angstroem

   l    n(q)    QCUT    max X(q) W(low)/X(q) W(high)/X(q)  e(spline) 
   2      9    11.864    60.317    0.21E-03    0.51E-03    0.25E-06
   2      9    11.864    55.921    0.21E-03    0.51E-03    0.26E-06
   0      9    11.864    51.690    0.22E-03    0.30E-04    0.17E-06
   0      9    11.864    30.015    0.20E-03    0.28E-04    0.15E-06
   1      9    11.864    18.849    0.76E-04    0.33E-03    0.17E-06
   1      9    11.864    14.624    0.60E-04    0.28E-03    0.15E-06
 Optimization of the real space projectors (new method)

 maximal supplied QI-value         = 34.20
 optimisation between [QCUT,QGAM] = [ 11.97, 23.94] = [ 40.13,160.53] Ry 
 Optimized for a Real-space Cutoff    1.18 Angstroem

   l    n(q)    QCUT    max X(q) W(low)/X(q) W(high)/X(q)  e(spline) 
   0      8    11.971    19.460    0.15E-03    0.31E-03    0.25E-06
   0      8    11.971    12.209    0.13E-03    0.29E-03    0.25E-06
   1      8    11.971     4.655    0.22E-03    0.24E-03    0.21E-06
  PAW_PBE Pt 04Feb2005                  :
 energy of atom  1       EATOM= -729.1176
 kinetic energy error for atom=    0.0021 (will be added to EATOM!!)
  PAW_PBE Co 02Aug2007                  :
 energy of atom  2       EATOM= -813.3670
 kinetic energy error for atom=    0.0026 (will be added to EATOM!!)
  PAW_PBE Ni 02Aug2007                  :
 energy of atom  3       EATOM=-1077.6739
 kinetic energy error for atom=    0.0027 (will be added to EATOM!!)
  PAW_PBE H 15Jun2001                   :
 energy of atom  4       EATOM=  -12.4884
 kinetic energy error for atom=    0.0008 (will be added to EATOM!!)
 
 
 POSCAR: 11.26                                   
  positions in cartesian coordinates
  No initial velocities read in
 exchange correlation table for  LEXCH =        8
   RHO(1)=    0.500       N(1)  =     2000
   RHO(2)=  100.500       N(2)  =     4000
 


--------------------------------------------------------------------------------------------------------


 ion  position               nearest neighbor table
   1  0.789  0.878  0.301-  49 2.47  59 2.57  60 2.65  28 2.70   4 2.74   2 2.74  29 2.75  19 2.80
                            11 2.84  12 2.85  61 2.87  33 2.94
   2  0.032  0.880  0.292-  79 2.48  77 2.55  60 2.72   1 2.74  28 2.74   4 2.81   6 2.85  16 2.89
                            30 2.92  33 3.01  22 3.18  52 3.26
   3  0.277  0.361  0.311-  64 2.55  68 2.61  31 2.63  39 2.67   5 2.70  33 2.71  30 2.75  13 2.76
                            25 2.77  19 2.80  43 2.80  18 2.88
   4  0.877  0.964  0.399-   9 2.70  60 2.71   1 2.74  17 2.74   6 2.75  16 2.76   2 2.81  12 2.81
                            11 2.85
   5  0.116  0.468  0.410-  39 2.62  33 2.69   3 2.70  12 2.73   7 2.73  16 2.76  10 2.77  25 2.80
                            13 2.98
   6  0.127  0.953  0.397-  52 2.60  22 2.71   4 2.75  16 2.76  14 2.78   8 2.80   2 2.85   9 2.89
                            10 2.97
   7  0.876  0.463  0.414-  81 1.83  39 2.60  75 2.61   5 2.73  27 2.80  29 2.81  10 2.82  12 2.82
                             9 2.92  15 2.98
   8  0.373  0.955  0.415-  52 2.54  43 2.54  61 2.70  27 2.77  13 2.77   6 2.80  10 2.83  14 2.86
                            11 2.87
   9  0.868  0.209  0.399-  81 1.88  75 2.63  22 2.68   4 2.70  17 2.76  60 2.83  15 2.84   6 2.89
                             7 2.92  10 2.99
  10  0.130  0.215  0.413-  22 2.64  43 2.68  13 2.71  39 2.76   5 2.77   7 2.82   8 2.83   6 2.97
                             9 2.99
  11  0.630  0.952  0.410-  61 2.65  12 2.72  19 2.73  27 2.74  17 2.76  13 2.79   1 2.84   4 2.85
                             8 2.87
  12  0.876  0.714  0.409-  29 2.68  16 2.70  11 2.72   5 2.73  33 2.81   4 2.81   7 2.82  27 2.84
                             1 2.85
  13  0.379  0.199  0.414-  43 2.69  10 2.71  19 2.73   3 2.76   8 2.77  17 2.79  11 2.79  25 2.80
                             5 2.98
  14  0.372  0.702  0.400-  52 2.51  44 2.56  15 2.71   6 2.78  16 2.80  25 2.82  30 2.86   8 2.86
                            27 2.90
  15  0.613  0.460  0.400-  81 1.85  75 2.57  44 2.61  14 2.71  25 2.73   9 2.84  18 2.84  17 2.85
                            27 2.91   7 2.98
  16  0.117  0.713  0.400-  30 2.66  12 2.70  33 2.74   4 2.76   6 2.76   5 2.76  14 2.80   2 2.89
                            25 2.92
  17  0.627  0.200  0.405-  18 2.69   4 2.74  11 2.76   9 2.76  19 2.78  13 2.79  25 2.82  60 2.82
                            15 2.85
  18  0.540  0.347  0.301-  67 2.45  26 2.60  60 2.67  68 2.68  17 2.69  19 2.70  25 2.82  15 2.84
                             3 2.88  30 2.94  75 3.18
  19  0.528  0.113  0.308-  59 2.46  80 2.51  68 2.57  43 2.61  61 2.63  18 2.70  11 2.73  13 2.73
                            17 2.78   3 2.80   1 2.80  60 2.91
  20  0.546  0.126  0.067-  48 2.50  57 2.52  47 2.52  62 2.53  37 2.60  56 2.66  34 2.70  63 2.89

  21  0.118  0.408  0.119-  47 2.44  40 2.48  36 2.49  69 2.60  57 2.64  42 2.67  64 2.70  70 2.72
                            31 2.74  50 3.30
  22  0.053  0.149  0.311-  77 2.43  65 2.51  55 2.53  43 2.58  39 2.62  10 2.64   9 2.68   6 2.71
                            75 2.88  31 3.05  52 3.05   2 3.18  60 3.23
  23  0.009  0.102  0.049-  40 2.49  62 2.55  70 2.57  41 2.59  45 2.66  76 2.69  24 2.70  35 2.74
                            53 3.07
  24  0.138  0.927  0.142-  79 2.46  35 2.50  77 2.54  58 2.54  53 2.56  55 2.59  38 2.59  73 2.64
                            70 2.65  23 2.70  66 2.83
  25  0.375  0.450  0.406-  15 2.73  30 2.75   3 2.77  13 2.80   5 2.80  18 2.82  14 2.82  17 2.82
                            16 2.92
  26  0.480  0.554  0.230-  74 2.50  73 2.52  44 2.52  51 2.59  79 2.60  18 2.60  30 2.62  78 2.62
                            32 2.66  67 2.70
  27  0.624  0.712  0.414-  44 2.49  61 2.67  11 2.74   8 2.77   7 2.80  29 2.82  12 2.84  14 2.90
                            15 2.91
  28  0.953  0.759  0.204-  58 2.53  50 2.61  66 2.61  42 2.62  36 2.63  33 2.66   1 2.70   2 2.74
                            64 2.80  49 2.88  34 3.22  59 3.23  35 3.30
  29  0.797  0.630  0.310-  39 2.60  32 2.60  49 2.61  75 2.62  42 2.63  33 2.64  44 2.65  12 2.68
                             1 2.75   7 2.81  27 2.82  61 2.84
  30  0.274  0.606  0.302-  79 2.43  33 2.60  64 2.61  26 2.62  16 2.66   3 2.75  25 2.75  14 2.86
                             2 2.92  18 2.94
  31  0.187  0.262  0.225-  70 2.52  57 2.57  65 2.58  55 2.59  39 2.62   3 2.63  43 2.63  42 2.72
                            80 2.73  21 2.74  68 2.76  64 2.79  22 3.05
  32  0.711  0.561  0.214-  69 2.53  51 2.56  29 2.60  54 2.61  49 2.62  26 2.66  65 2.66  50 2.66
                            42 2.68  78 2.71  75 2.72  67 2.73  44 2.74
  33  0.042  0.608  0.305-  42 2.46  64 2.50  39 2.50  30 2.60  29 2.64  28 2.66   5 2.69   3 2.71
                            16 2.74  12 2.81   1 2.94   2 3.01
  34  0.782  0.884  0.080-  48 2.38  35 2.38  50 2.53  66 2.54  36 2.55  62 2.67  20 2.70  28 3.22

  35  0.002  0.866  0.072-  36 2.37  34 2.38  66 2.43  24 2.50  58 2.60  23 2.74  62 2.75  28 3.30

  36  0.006  0.657  0.094-  50 2.33  35 2.37  58 2.38  21 2.49  34 2.55  28 2.63
  37  0.628  0.234  0.150-  41 2.41  56 2.42  59 2.43  67 2.44  62 2.45  68 2.50  51 2.50  74 2.51
                            20 2.60  66 2.60
  38  0.361  0.942  0.135-  53 2.40  45 2.41  63 2.42  57 2.43  48 2.45  55 2.45  54 2.46  78 2.48
                            80 2.54  73 2.59  24 2.59  70 2.83
  39  0.024  0.396  0.316-  42 2.46  33 2.50  75 2.58  65 2.58  29 2.60   7 2.60   5 2.62  22 2.62
                            31 2.62   3 2.67  10 2.76
  40  0.013  0.321  0.044-  69 2.32  76 2.45  21 2.48  23 2.49  70 2.51  45 2.63  71 2.93
  41  0.844  0.228  0.139-  67 2.35  76 2.37  77 2.38  37 2.41  62 2.44  51 2.48  69 2.48  66 2.49
                            65 2.58  23 2.59  70 2.61
  42  0.967  0.520  0.219-  33 2.46  39 2.46  50 2.48  64 2.48  65 2.50  28 2.62  29 2.63  69 2.65
                            21 2.67  32 2.68  31 2.72
  43  0.303  0.100  0.319-  52 2.44  80 2.47  55 2.52   8 2.54  22 2.58  61 2.58  19 2.61  31 2.63
                            10 2.68  13 2.69   3 2.80
  44  0.553  0.648  0.317-  61 2.46  78 2.48  27 2.49  26 2.52  14 2.56  52 2.56  15 2.61  29 2.65
                            75 2.74  32 2.74
  45  0.251  0.091  0.049-  38 2.41  57 2.45  53 2.48  70 2.50  63 2.54  40 2.63  23 2.66
  46  0.529  0.612  0.047-  54 2.37  73 2.44  51 2.45  71 2.47  72 2.53  53 2.63  56 2.72  76 2.87
                            63 3.07
  47  0.334  0.361  0.072-  74 2.29  56 2.44  21 2.44  57 2.50  72 2.50  20 2.52
  48  0.581  0.937  0.137-  49 2.29  63 2.35  34 2.38  54 2.38  80 2.38  38 2.45  59 2.46  20 2.50
                            57 2.63  50 2.74
  49  0.677  0.809  0.223-  48 2.29  50 2.34  61 2.46  78 2.47   1 2.47  59 2.54  80 2.57  29 2.61
                            32 2.62  54 2.79  28 2.88
  50  0.810  0.679  0.140-  36 2.33  49 2.34  54 2.38  71 2.39  42 2.48  69 2.52  34 2.53  28 2.61
                            32 2.66  48 2.74  21 3.30
  51  0.629  0.454  0.133-  56 2.40  76 2.44  46 2.45  41 2.48  37 2.50  67 2.53  32 2.56  26 2.59
                            74 2.59  69 2.66  73 2.78  54 2.83
  52  0.321  0.874  0.316-  55 2.35  79 2.41  61 2.42  78 2.44  43 2.44  14 2.51   8 2.54  44 2.56
                             6 2.60  22 3.05   2 3.26
  53  0.299  0.850  0.050-  73 2.39  38 2.40  45 2.48  24 2.56  63 2.58  46 2.63  72 2.82  23 3.07

  54  0.581  0.726  0.124-  46 2.37  50 2.38  48 2.38  73 2.40  71 2.42  63 2.42  38 2.46  78 2.50
                            32 2.61  49 2.79  51 2.83
  55  0.229  0.013  0.230-  52 2.35  80 2.44  79 2.44  38 2.45  43 2.52  22 2.53  78 2.56  24 2.59
                            31 2.59  77 2.61  70 2.62
  56  0.549  0.361  0.055-  51 2.40  37 2.42  47 2.44  74 2.52  76 2.56  62 2.60  72 2.61  20 2.66
                            46 2.72
  57  0.344  0.167  0.132-  38 2.43  45 2.45  80 2.47  47 2.50  20 2.52  68 2.55  31 2.57  48 2.63
                            21 2.64  70 2.71
  58  0.176  0.684  0.148-  36 2.38  72 2.39  64 2.41  73 2.43  28 2.53  79 2.53  24 2.54  74 2.56
                            35 2.60
  59  0.661  0.042  0.213-  66 2.38  37 2.43  19 2.46  48 2.46  49 2.54  68 2.55   1 2.57  80 2.59
                            60 2.68  28 3.23
  60  0.785  0.116  0.297-  67 2.46  77 2.53   1 2.65  18 2.67  59 2.68   4 2.71   2 2.72  17 2.82
                             9 2.83  19 2.91  22 3.23
  61  0.537  0.875  0.316-  52 2.42  44 2.46  49 2.46  78 2.48  80 2.51  43 2.58  19 2.63  11 2.65
                            27 2.67   8 2.70  29 2.84   1 2.87
  62  0.773  0.123  0.060-  66 2.43  41 2.44  37 2.45  20 2.53  23 2.55  56 2.60  76 2.63  34 2.67
                            35 2.75
  63  0.500  0.898  0.045-  48 2.35  54 2.42  38 2.42  45 2.54  53 2.58  20 2.89  46 3.07
  64  0.196  0.505  0.214-  58 2.41  42 2.48  33 2.50  74 2.52   3 2.55  30 2.61  68 2.66  21 2.70
                            31 2.79  28 2.80
  65  0.935  0.315  0.226-  69 2.40  67 2.41  75 2.42  77 2.43  42 2.50  22 2.51  70 2.53  41 2.58
                            31 2.58  39 2.58  32 2.66
  66  0.858  0.002  0.156-  77 2.38  59 2.38  62 2.43  35 2.43  41 2.49  34 2.54  37 2.60  28 2.61
                            24 2.83
  67  0.721  0.315  0.230-  41 2.35  65 2.41  75 2.41  37 2.44  18 2.45  60 2.46  51 2.53  26 2.70
                            77 2.70  32 2.73
  68  0.430  0.266  0.214-  74 2.43  37 2.50  57 2.55  59 2.55  19 2.57   3 2.61  80 2.64  64 2.66
                            18 2.68  31 2.76
  69  0.877  0.430  0.129-  40 2.32  71 2.34  65 2.40  41 2.48  76 2.49  50 2.52  32 2.53  21 2.60
                            42 2.65  70 2.65  51 2.66
  70  0.096  0.181  0.140-  45 2.50  40 2.51  31 2.52  65 2.53  23 2.57  41 2.61  55 2.62  24 2.65
                            69 2.65  57 2.71  21 2.72  77 2.83  38 2.83
  71  0.760  0.589  0.052-  69 2.34  50 2.39  54 2.42  46 2.47  76 2.56  40 2.93
  72  0.315  0.592  0.059-  58 2.39  74 2.39  73 2.42  47 2.50  46 2.53  56 2.61  53 2.82
  73  0.382  0.701  0.136-  53 2.39  54 2.40  72 2.42  58 2.43  46 2.44  79 2.49  26 2.52  38 2.59
                            78 2.60  24 2.64  74 2.69  51 2.78
  74  0.400  0.454  0.149-  47 2.29  72 2.39  68 2.43  26 2.50  37 2.51  56 2.52  64 2.52  58 2.56
                            51 2.59  73 2.69
  75  0.792  0.400  0.315-  67 2.41  65 2.42  15 2.57  39 2.58   7 2.61  29 2.62   9 2.63  32 2.72
                            44 2.74  22 2.88  18 3.18
  76  0.781  0.351  0.046-  41 2.37  51 2.44  40 2.45  69 2.49  71 2.56  56 2.56  62 2.63  23 2.69
                            46 2.87
  77  0.970  0.084  0.222-  41 2.38  66 2.38  65 2.43  22 2.43  60 2.53  24 2.54   2 2.55  55 2.61
                            67 2.70  70 2.83
  78  0.465  0.795  0.225-  52 2.44  49 2.47  79 2.48  44 2.48  38 2.48  80 2.48  61 2.48  54 2.50
                            55 2.56  73 2.60  26 2.62  32 2.71
  79  0.249  0.786  0.233-  52 2.41  30 2.43  55 2.44  24 2.46  78 2.48   2 2.48  73 2.49  58 2.53
                            26 2.60
  80  0.439  0.028  0.225-  48 2.38  55 2.44  57 2.47  43 2.47  78 2.48  19 2.51  61 2.51  38 2.54
                            49 2.57  59 2.59  68 2.64  31 2.73
  81  0.781  0.378  0.440-   7 1.83  15 1.85   9 1.88
 
  LATTYP: Found a hexagonal cell.
 ALAT       =    11.2227001190
 C/A-ratio  =     1.9603125600
  
  Lattice vectors:
  
 A1 = (   5.6113500595,  -9.7191434021,   0.0000000000)
 A2 = ( -11.2227001190,   0.0000000000,   0.0000000000)
 A3 = (   0.0000000000,   0.0000000000, -22.0000000000)


Analysis of symmetry for initial positions (statically):
=====================================================================
 Subroutine PRICEL returns:
 Original cell was already a primitive cell.
 

 Routine SETGRP: Setting up the symmetry group for a 
 hexagonal supercell.


 Subroutine GETGRP returns: Found  1 space group operations
 (whereof  1 operations were pure point group operations)
 out of a pool of 24 trial point group operations.


The static configuration has the point symmetry C_1 .


Analysis of symmetry for dynamics (positions and initial velocities):
=====================================================================
 Subroutine PRICEL returns:
 Original cell was already a primitive cell.
 

 Routine SETGRP: Setting up the symmetry group for a 
 hexagonal supercell.


 Subroutine GETGRP returns: Found  1 space group operations
 (whereof  1 operations were pure point group operations)
 out of a pool of 24 trial point group operations.


The dynamic configuration has the point symmetry C_1 .


Analysis of constrained symmetry for selective dynamics:
=====================================================================
 Subroutine PRICEL returns:
 Original cell was already a primitive cell.
 

 Routine SETGRP: Setting up the symmetry group for a 
 hexagonal supercell.


 Subroutine GETGRP returns: Found  1 space group operations
 (whereof  1 operations were pure point group operations)
 out of a pool of 24 trial point group operations.


The constrained configuration has the point symmetry C_1 .


Analysis of structural, dynamic, and magnetic symmetry:
=====================================================================
 Subroutine PRICEL returns:
 Original cell was already a primitive cell.
 

 Routine SETGRP: Setting up the symmetry group for a 
 hexagonal supercell.


 Subroutine GETGRP returns: Found  1 space group operations
 (whereof  1 operations were pure point group operations)
 out of a pool of 24 trial point group operations.


The magnetic configuration has the point symmetry C_1 .


 Subroutine INISYM returns: Found  1 space group operations
 (whereof  1 operations are pure point group operations),
 and found     1 'primitive' translations

 
 
 KPOINTS: mesh auto                               

Automatic generation of k-mesh.
Space group operators:
 irot       det(A)        alpha          n_x          n_y          n_z        tau_x        tau_y        tau_z
    1     1.000000     0.000000     1.000000     0.000000     0.000000     0.000000     0.000000     0.000000
 
 Subroutine IBZKPT returns following result:
 ===========================================
 
 Found      4 irreducible k-points:
 
 Following reciprocal coordinates:
            Coordinates               Weight
  0.000000  0.000000  0.000000      1.000000
  0.500000  0.000000  0.000000      1.000000
  0.000000  0.500000  0.000000      1.000000
  0.500000  0.500000  0.000000      1.000000
 
 Following cartesian coordinates:
            Coordinates               Weight
  0.000000  0.000000  0.000000      1.000000
  0.044553 -0.025722  0.000000      1.000000
  0.000000  0.051445  0.000000      1.000000
  0.044553  0.025722  0.000000      1.000000
 
 TETIRR: Found     12 inequivalent tetrahedra from       24
 
 Subroutine IBZKPT_HF returns following result:
 ==============================================
 
 Found      4 k-points in 1st BZ
 the following      4 k-points will be used (e.g. in the exchange kernel)
 Following reciprocal coordinates:   # in IRBZ
  0.000000  0.000000  0.000000    0.25000000   1 t-inv F
  0.500000  0.000000  0.000000    0.25000000   2 t-inv F
  0.000000  0.500000  0.000000    0.25000000   3 t-inv F
  0.500000  0.500000  0.000000    0.25000000   4 t-inv F


--------------------------------------------------------------------------------------------------------




 Dimension of arrays:
   k-points           NKPTS =      4   k-points in BZ     NKDIM =      4   number of bands    NBANDS=    576
   number of dos      NEDOS =    301   number of ions     NIONS =     81
   non local maximal  LDIM  =      6   non local SUM 2l+1 LMDIM =     18
   total plane-waves  NPLWV = ******
   max r-space proj   IRMAX =   7929   max aug-charges    IRDMAX=  34542
   dimension x,y,z NGX =    90 NGY =   90 NGZ =  168
   dimension x,y,z NGXF=   180 NGYF=  180 NGZF=  336
   support grid    NGXF=   180 NGYF=  180 NGZF=  336
   ions per type =              32  23  25   1
   NGX,Y,Z   is equivalent  to a cutoff of  13.33, 13.33, 12.70 a.u.
   NGXF,Y,Z  is equivalent  to a cutoff of  26.66, 26.66, 25.39 a.u.

 SYSTEM =  Pt111                                   
 POSCAR =  11.26                                   

 Startparameter for this run:
   NWRITE =      2    write-flag & timer
   PREC   = accura    normal or accurate (medium, high low for compatibility)
   ISTART =      0    job   : 0-new  1-cont  2-samecut
   ICHARG =      2    charge: 1-file 2-atom 10-const
   ISPIN  =      2    spin polarized calculation?
   LNONCOLLINEAR =      F non collinear calculations
   LSORBIT =      F    spin-orbit coupling
   INIWAV =      1    electr: 0-lowe 1-rand  2-diag
   LASPH  =      F    aspherical Exc in radial PAW
   METAGGA=      F    non-selfconsistent MetaGGA calc.

 Electronic Relaxation 1
   ENCUT  =  550.0 eV  40.42 Ry    6.36 a.u.  21.46 21.46 42.07*2*pi/ulx,y,z
   ENINI  =  550.0     initial cutoff
   ENAUG  =  544.6 eV  augmentation charge cutoff
   NELM   =    200;   NELMIN=  2; NELMDL= -5     # of ELM steps 
   EDIFF  = 0.1E-04   stopping-criterion for ELM
   LREAL  =      T    real-space projection
   NLSPLINE    = F    spline interpolate recip. space projectors
   LCOMPAT=      F    compatible to vasp.4.4
   GGA_COMPAT  = T    GGA compatible to vasp.4.4-vasp.4.6
   LMAXPAW     = -100 max onsite density
   LMAXMIX     =    2 max onsite mixed and CHGCAR
   VOSKOWN=      0    Vosko Wilk Nusair interpolation
   ROPT   =   -0.00025  -0.00025  -0.00025  -0.00025
 Ionic relaxation
   EDIFFG = -.5E-01   stopping-criterion for IOM
   NSW    =   1009    number of steps for IOM
   NBLOCK =      1;   KBLOCK =   1009    inner block; outer block 
   IBRION =      5    ionic relax: 0-MD 1-quasi-New 2-CG
   NFREE  =      2    steps in history (QN), initial steepest desc. (CG)
   ISIF   =      2    stress and relaxation
   IWAVPR =     11    prediction:  0-non 1-charg 2-wave 3-comb
   ISYM   =      2    0-nonsym 1-usesym 2-fastsym
   LCORR  =      T    Harris-Foulkes like correction to forces

   POTIM  = 0.5000    time-step for ionic-motion
   TEIN   =    0.0    initial temperature
   TEBEG  =    0.0;   TEEND  =   0.0 temperature during run
   SMASS  =  -3.00    Nose mass-parameter (am)
   estimated Nose-frequenzy (Omega)   =  0.10E-29 period in steps =****** mass=  -0.288E-26a.u.
   SCALEE = 1.0000    scale energy and forces
   NPACO  =    256;   APACO  = 16.0  distance and # of slots for P.C.
   PSTRESS=    0.0 pullay stress

  Mass of Ions in am
   POMASS = 195.08 58.93 58.69  1.00
  Ionic Valenz
   ZVAL   =  10.00  9.00 10.00  1.00
  Atomic Wigner-Seitz radii
   RWIGS  =  -1.00 -1.00 -1.00 -1.00
  virtual crystal weights 
   VCA    =   1.00  1.00  1.00  1.00
   NELECT =     778.0000    total number of electrons
   NUPDOWN=      -1.0000    fix difference up-down

 DOS related values:
   EMIN   =  10.00;   EMAX   =-10.00  energy-range for DOS
   EFERMI =   0.00
   ISMEAR =    -5;   SIGMA  =   0.10  broadening in eV -4-tet -1-fermi 0-gaus

 Electronic relaxation 2 (details)
   IALGO  =     68    algorithm
   LDIAG  =      T    sub-space diagonalisation (order eigenvalues)
   LSUBROT=      F    optimize rotation matrix (better conditioning)
   TURBO    =      0    0=normal 1=particle mesh
   IRESTART =      0    0=no restart 2=restart with 2 vectors
   NREBOOT  =      0    no. of reboots
   NMIN     =      0    reboot dimension
   EREF     =   0.00    reference energy to select bands
   IMIX   =      4    mixing-type and parameters
     AMIX     =   0.40;   BMIX     =  1.00
     AMIX_MAG =   1.60;   BMIX_MAG =  1.00
     AMIN     =   0.10
     WC   =   100.;   INIMIX=   1;  MIXPRE=   1;  MAXMIX= -45

 Intra band minimization:
   WEIMIN = 0.0010     energy-eigenvalue tresh-hold
   EBREAK =  0.43E-08  absolut break condition
   DEPER  =   0.30     relativ break condition  

   TIME   =   0.40     timestep for ELM

  volume/ion in A,a.u.               =      29.63       199.92
  Fermi-wavevector in a.u.,A,eV,Ry     =   1.124653  2.125287 17.209264  1.264845
  Thomas-Fermi vector in A             =   2.261326
 
 Write flags
   LWAVE        =      F    write WAVECAR
   LDOWNSAMPLE  =      F    k-point downsampling of WAVECAR
   LCHARG       =      F    write CHGCAR
   LVTOT        =      F    write LOCPOT, total local potential
   LVHAR        =      F    write LOCPOT, Hartree potential only
   LELF         =      F    write electronic localiz. function (ELF)
   LORBIT       =      0    0 simple, 1 ext, 2 COOP (PROOUT), +10 PAW based schemes


 Dipole corrections
   LMONO  =      F    monopole corrections only (constant potential shift)
   LDIPOL =      F    correct potential (dipole corrections)
   IDIPOL =      0    1-x, 2-y, 3-z, 4-all directions 
   EPSILON=  1.0000000 bulk dielectric constant

 Exchange correlation treatment:
   GGA     =    --    GGA type
   LEXCH   =     8    internal setting for exchange type
   VOSKOWN=      0    Vosko Wilk Nusair interpolation
   LHFCALC =     F    Hartree Fock is set to
   LHFONE  =     F    Hartree Fock one center treatment
   AEXX    =    0.0000 exact exchange contribution

 Linear response parameters
   LEPSILON=     F    determine dielectric tensor
   LRPA    =     F    only Hartree local field effects (RPA)
   LNABLA  =     F    use nabla operator in PAW spheres
   LVEL    =     F    velocity operator in full k-point grid
   LINTERFAST=   F  fast interpolation
   KINTER  =     0    interpolate to denser k-point grid
   CSHIFT  =0.1000    complex shift for real part using Kramers Kronig
   OMEGAMAX=  -1.0    maximum frequency
   DEG_THRESHOLD= 0.2000000E-02 threshold for treating states as degnerate
   RTIME   =   -0.100 relaxation time in fs
  (WPLASMAI=    0.000 imaginary part of plasma frequency in eV, 0.658/RTIME)
   DFIELD  = 0.0000000 0.0000000 0.0000000 field for delta impulse in time
 
 Orbital magnetization related:
   ORBITALMAG=     F  switch on orbital magnetization
   LCHIMAG   =     F  perturbation theory with respect to B field
   DQ        =  0.001000  dq finite difference perturbation B field
   LLRAUG    =     F  two centre corrections for induced B field



--------------------------------------------------------------------------------------------------------


 finite differences
   using selective dynamics as specified on POSCAR
   WARNING: If single coordinates had been selected the selection of coordinates
            is made according to the corresponding   d i r e c t   coordinates!
            Don't support selection of single cartesian coordinates -- sorry ...
  !
 charge density and potential will be updated during run
 spin polarized calculation
 RMM-DIIS sequential band-by-band and
  variant of blocked Davidson during initial phase
 perform sub-space diagonalisation
    before iterative eigenvector-optimisation
 modified Broyden-mixing scheme, WC =      100.0
 initial mixing is a Kerker type mixing with AMIX =  0.4000 and BMIX =      1.0000
 Hartree-type preconditioning will be used
 using additional bands          187
 real space projection scheme for non local part
 use partial core corrections
 calculate Harris-corrections to forces 
   (improved forces if not selfconsistent)
 use gradient corrections 
 use of overlap-Matrix (Vanderbilt PP)
 Fermi weights with tetrahedron method with Bloechl corrections


--------------------------------------------------------------------------------------------------------


  energy-cutoff  :      550.00
  volume of cell :     2399.65
      direct lattice vectors                 reciprocal lattice vectors
    11.222700119  0.000000000  0.000000000     0.089105116 -0.051444863  0.000000000
     5.611350060  9.719143402  0.000000000     0.000000000  0.102889726  0.000000000
     0.000000000  0.000000000 22.000000000     0.000000000  0.000000000  0.045454545

  length of vectors
    11.222700119 11.222700119 22.000000000     0.102889726  0.102889726  0.045454545


 
 k-points in units of 2pi/SCALE and weight: mesh auto                               
   0.00000000  0.00000000  0.00000000       0.250
   0.04455256 -0.02572243  0.00000000       0.250
   0.00000000  0.05144486  0.00000000       0.250
   0.04455256  0.02572243  0.00000000       0.250
 
 k-points in reciprocal lattice and weights: mesh auto                               
   0.00000000  0.00000000  0.00000000       0.250
   0.50000000  0.00000000  0.00000000       0.250
   0.00000000  0.50000000  0.00000000       0.250
   0.50000000  0.50000000  0.00000000       0.250
 
 position of ions in fractional coordinates (direct lattice) 
   0.78902789  0.87832631  0.30130415
   0.03151399  0.87986674  0.29159089
   0.27704416  0.36080806  0.31089405
   0.87719001  0.96352582  0.39931318
   0.11637485  0.46796381  0.41029779
   0.12739475  0.95297496  0.39711832
   0.87559442  0.46289275  0.41447777
   0.37338643  0.95467158  0.41521247
   0.86766300  0.20865009  0.39937085
   0.13017620  0.21460812  0.41289448
   0.62982975  0.95245720  0.40962305
   0.87615703  0.71390141  0.40854094
   0.37895155  0.19906097  0.41354977
   0.37208602  0.70229743  0.39978903
   0.61306294  0.45977796  0.40038254
   0.11709939  0.71274816  0.40014554
   0.62656416  0.19960221  0.40451499
   0.53952854  0.34702966  0.30117047
   0.52787013  0.11314592  0.30835402
   0.54569241  0.12647739  0.06683304
   0.11791659  0.40792499  0.11908862
   0.05337174  0.14908927  0.31068445
   0.00892895  0.10176852  0.04917651
   0.13783207  0.92691145  0.14197368
   0.37455521  0.45024922  0.40597648
   0.47979716  0.55399880  0.22971747
   0.62443608  0.71156014  0.41363893
   0.95252345  0.75898977  0.20420405
   0.79673286  0.63044605  0.31048963
   0.27443067  0.60621620  0.30218310
   0.18749030  0.26198206  0.22539890
   0.71089206  0.56100734  0.21410215
   0.04212902  0.60789276  0.30467758
   0.78196837  0.88367072  0.08012597
   0.00167860  0.86570870  0.07172203
   0.00649475  0.65686199  0.09367822
   0.62789021  0.23379040  0.14972974
   0.36050112  0.94235243  0.13470415
   0.02371493  0.39563980  0.31631375
   0.01296097  0.32139498  0.04442433
   0.84423970  0.22761319  0.13891977
   0.96744603  0.52048649  0.21885007
   0.30287127  0.09992260  0.31932221
   0.55289107  0.64820009  0.31735696
   0.25085454  0.09128101  0.04878728
   0.52913784  0.61162204  0.04697948
   0.33389242  0.36126594  0.07221963
   0.58147332  0.93651314  0.13694302
   0.67732667  0.80921239  0.22305304
   0.80979447  0.67906481  0.14024348
   0.62937817  0.45366950  0.13325724
   0.32142036  0.87369645  0.31620143
   0.29919813  0.84983568  0.05000644
   0.58103448  0.72612545  0.12392179
   0.22907234  0.01294552  0.22967573
   0.54871865  0.36069037  0.05545242
   0.34411655  0.16690962  0.13164412
   0.17554400  0.68420617  0.14761894
   0.66082635  0.04249037  0.21304482
   0.78456367  0.11647636  0.29685395
   0.53660822  0.87479556  0.31604799
   0.77284397  0.12278263  0.06048458
   0.50030742  0.89844953  0.04455515
   0.19571508  0.50522867  0.21438636
   0.93546177  0.31542046  0.22552712
   0.85824468  0.00195101  0.15611973
   0.72104290  0.31497628  0.22969726
   0.43002289  0.26577701  0.21377066
   0.87703755  0.42955743  0.12878365
   0.09634819  0.18069822  0.13969274
   0.75988870  0.58867799  0.05155611
   0.31527374  0.59151669  0.05925234
   0.38179216  0.70126590  0.13646584
   0.40042658  0.45377032  0.14884727
   0.79159140  0.39978169  0.31521737
   0.78089926  0.35148021  0.04598080
   0.96954404  0.08430315  0.22196820
   0.46486898  0.79463888  0.22533144
   0.24890496  0.78598962  0.23267623
   0.43862206  0.02771317  0.22450195
   0.78094993  0.37842562  0.43986084
 
 position of ions in cartesian coordinates  (Angst):
  13.78361981  8.53657932  6.62869120
   5.29091235  8.55155102  6.41499955
   5.13380382  3.50674530  6.83966914
  15.25112108  9.36464566  8.78488991
   3.93194884  4.54820737  9.02655141
   6.77718916  9.26210025  8.73660302
  12.42398685  4.49892104  9.11851089
   9.54740041  9.27859000  9.13467436
  10.90833029  2.02790012  8.78615876
   2.66516970  2.08580707  9.08367859
  12.41296120  9.25706815  9.01170721
  13.83879834  6.93851014  8.98790074
   5.36986045  1.93470213  9.09809483
   8.11664652  6.82572940  8.79535855
   9.46019664  4.46864791  8.80841581
   5.31365072  6.92730157  8.80320195
   8.15177954  1.93996251  8.89932972
   8.00227187  3.37283099  6.62575039
   6.55902952  1.09968147  6.78378855
   6.83385120  1.22925189  1.47032698
   3.61235247  3.96468152  2.61994962
   1.43556714  1.44902002  6.83505796
   0.67126575  0.98910281  1.08188317
   6.74807265  9.00878530  3.12342105
   6.73002678  4.37603676  8.93148256
   8.49330084  5.38439383  5.05378437
  11.00067197  6.91575507  9.10005641
  14.94884239  7.37673046  4.49248916
  12.47914745  6.12739555  6.83077183
   6.48154447  5.89190220  6.64802830
   3.57422044  2.54624125  4.95877580
  11.12613698  5.45251083  4.71024739
   3.88390047  5.90819689  6.70290675
  13.73438227  8.58852246  1.76277137
   4.87663302  8.41394697  1.57788465
   3.75877116  6.38413590  2.06092090
   8.35850333  2.27224245  3.29405432
   9.33366537  9.15885838  2.96349132
   2.48621895  3.84527991  6.95890256
   1.94891684  3.12368389  0.97733531
  10.75186628  2.21220519  3.05623495
  13.77798860  5.05868282  4.81470165
   3.95973417  0.97116210  7.02508856
   9.84220827  6.29994965  6.98185309
   3.32747495  0.88717326  1.07332023
   9.37038068  5.94444230  1.03354859
   5.77436416  3.51119550  1.58883193
  11.78080373  9.10210551  3.01274644
  12.14220806  7.86485128  4.90716692
  12.89855082  6.59992829  3.08535659
   9.60902083  4.40927897  2.93165935
   8.50982093  8.49158113  6.95643142
   8.12653637  8.25967484  1.10014163
  10.59531978  7.05731733  2.72627938
   2.64345207  0.12581940  5.05286608
   8.18206475  3.50560142  1.21995326
   4.79850516  1.62221856  2.89617069
   5.80939796  6.64989784  3.24761674
   7.65468432  0.41297001  4.68698615
   9.45851239  1.13205049  6.53078697
  10.93097729  8.50226348  6.95305578
   9.36237240  1.19334199  1.33066085
  10.65631497  8.73215981  0.98021322
   5.03146660  4.91038993  4.71649990
  12.26834149  3.06561666  4.96159659
   9.64277050  0.01896212  3.43463404
   9.85949038  3.06129963  5.05333976
   6.31738572  2.58312482  4.70295446
  12.25312658  4.17493029  2.83324027
   2.09524784  1.75623189  3.07324021
  11.83128130  5.72144585  1.13423452
   6.85742987  5.74903551  1.30355140
   8.21978744  6.81570388  3.00224843
   7.04013147  4.41025877  3.27463986
  11.12710785  3.88553556  6.93478205
  10.73607676  3.41608656  1.01157751
  11.35395654  0.81935443  4.88330047
   9.67608211  7.72320924  4.95729164
   7.20384860  7.63914586  5.11887697
   5.07803210  0.26934830  4.93904295
  10.88784553  3.67797290  9.67693856
 


--------------------------------------------------------------------------------------------------------


 k-point  1 :   0.0000 0.0000 0.0000  plane waves:   70321
 k-point  2 :   0.5000 0.0000 0.0000  plane waves:   70264
 k-point  3 :   0.0000 0.5000 0.0000  plane waves:   70264
 k-point  4 :   0.5000 0.5000 0.0000  plane waves:   70264

 maximum and minimum number of plane-waves per node :     70321    70264

 maximum number of plane-waves:     70321
 maximum index in each direction: 
   IXMAX=   21   IYMAX=   21   IZMAX=   42
   IXMIN=  -21   IYMIN=  -21   IZMIN=  -42


 serial   3D FFT for wavefunctions
 parallel 3D FFT for charge:
    minimum data exchange during FFTs selected (reduces bandwidth)


 total amount of memory used by VASP MPI-rank0   379504. kBytes
=======================================================================

   base      :      30000. kBytes
   nonlr-proj:      90618. kBytes
   fftplans  :      13535. kBytes
   grid      :     132462. kBytes
   one-center:       2519. kBytes
   wavefun   :     110370. kBytes
 
     INWAV:  cpu time    0.0000: real time    0.0004
 Broyden mixing: mesh for mixing (old mesh)
   NGX = 43   NGY = 43   NGZ = 85
  (NGX  =180   NGY  =180   NGZ  =336)
  gives a total of 157165 points

 initial charge density was supplied:
 charge density of overlapping atoms calculated
 number of electron     778.0000000 magnetization     206.0000000
 keeping initial charge density in first step


--------------------------------------------------------------------------------------------------------


 Maximum index for non-local projection operator         7662
 Maximum index for augmentation-charges         1118 (set IRDMAX)


--------------------------------------------------------------------------------------------------------


 First call to EWALD:  gamma=   0.132
 Maximum number of real-space cells 4x 4x 2
 Maximum number of reciprocal cells 2x 2x 4

    FEWALD:  cpu time    0.0039: real time    0.0039


--------------------------------------- Iteration      1(   1)  ---------------------------------------


    POTLOK:  cpu time    0.4930: real time    0.4962
    SETDIJ:  cpu time    0.0336: real time    0.0337
     EDDAV:  cpu time   55.5271: real time   55.7480
 BZINTS: Fermi energy: 15.087320;778.000000 electrons
         Band energy:6665.020444;  BLOECHL correction: -0.013743
       DOS:  cpu time    0.0232: real time    0.0238
    --------------------------------------------
      LOOP:  cpu time   56.0769: real time   56.3016

 eigenvalue-minimisations  :  9216
 total energy-change (2. order) : 0.6704253E+04  (-0.3449009E+05)
 number of electron     778.0000000 magnetization     206.0000000
 augmentation part      778.0000000 magnetization     206.0000000

 Free energy of the ion-electron system (eV)
  ---------------------------------------------------
  alpha Z        PSCENC =      1751.32544349
  Ewald energy   TEWEN  =    237330.24709405
  -Hartree energ DENC   =   -307388.18604058
  -exchange      EXHF   =         0.00000000
  -V(xc)+E(xc)   XCENC  =      1334.70433103
  PAW double counting   =     62871.68470781   -64853.88848185
  entropy T*S    EENTRO =         0.00000000
  eigenvalues    EBANDS =      6665.02044380
  atomic energy  EATOM  =     68993.34587830
  Solvation  Ediel_sol  =         0.00000000
  ---------------------------------------------------
  free energy    TOTEN  =      6704.25337605 eV

  energy without entropy =     6704.25337605  energy(sigma->0) =     6704.25337605


--------------------------------------------------------------------------------------------------------




--------------------------------------- Iteration      1(   2)  ---------------------------------------


     EDDAV:  cpu time   55.5191: real time   55.7478
 BZINTS: Fermi energy:  4.436285;778.000000 electrons
         Band energy: 304.264038;  BLOECHL correction: -0.006431
       DOS:  cpu time    0.0216: real time    0.0218
    --------------------------------------------
      LOOP:  cpu time   55.5407: real time   55.7696

 eigenvalue-minimisations  :  9216
 total energy-change (2. order) :-0.6360756E+04  (-0.5776053E+04)
 number of electron     778.0000000 magnetization     206.0000000
 augmentation part      778.0000000 magnetization     206.0000000

 Free energy of the ion-electron system (eV)
  ---------------------------------------------------
  alpha Z        PSCENC =      1751.32544349
  Ewald energy   TEWEN  =    237330.24709405
  -Hartree energ DENC   =   -307388.18604058
  -exchange      EXHF   =         0.00000000
  -V(xc)+E(xc)   XCENC  =      1334.70433103
  PAW double counting   =     62871.68470781   -64853.88848185
  entropy T*S    EENTRO =         0.00000000
  eigenvalues    EBANDS =       304.26403824
  atomic energy  EATOM  =     68993.34587830
  Solvation  Ediel_sol  =         0.00000000
  ---------------------------------------------------
  free energy    TOTEN  =       343.49697050 eV

  energy without entropy =      343.49697050  energy(sigma->0) =      343.49697050


--------------------------------------------------------------------------------------------------------




--------------------------------------- Iteration      1(   3)  ---------------------------------------


     EDDAV:  cpu time   59.1927: real time   59.4259
 BZINTS: Fermi energy:  2.811087;778.000000 electrons
         Band energy:-504.942491;  BLOECHL correction: -0.019559
       DOS:  cpu time    0.0216: real time    0.0218
    --------------------------------------------
      LOOP:  cpu time   59.2143: real time   59.4476

 eigenvalue-minimisations  :  9984
 total energy-change (2. order) :-0.8092065E+03  (-0.6959697E+03)
 number of electron     778.0000000 magnetization     206.0000000
 augmentation part      778.0000000 magnetization     206.0000000

 Free energy of the ion-electron system (eV)
  ---------------------------------------------------
  alpha Z        PSCENC =      1751.32544349
  Ewald energy   TEWEN  =    237330.24709405
  -Hartree energ DENC   =   -307388.18604058
  -exchange      EXHF   =         0.00000000
  -V(xc)+E(xc)   XCENC  =      1334.70433103
  PAW double counting   =     62871.68470781   -64853.88848185
  entropy T*S    EENTRO =         0.00000000
  eigenvalues    EBANDS =      -504.94249058
  atomic energy  EATOM  =     68993.34587830
  Solvation  Ediel_sol  =         0.00000000
  ---------------------------------------------------
  free energy    TOTEN  =      -465.70955832 eV

  energy without entropy =     -465.70955832  energy(sigma->0) =     -465.70955832


--------------------------------------------------------------------------------------------------------




--------------------------------------- Iteration      1(   4)  ---------------------------------------


     EDDAV:  cpu time   61.0739: real time   62.6187
 BZINTS: Fermi energy:  2.737145;778.000000 electrons
         Band energy:-543.892486;  BLOECHL correction: -0.020213
       DOS:  cpu time    0.0234: real time    0.0236
    --------------------------------------------
      LOOP:  cpu time   61.0974: real time   62.6423

 eigenvalue-minimisations  : 10368
 total energy-change (2. order) :-0.3895000E+02  (-0.3803078E+02)
 number of electron     778.0000000 magnetization     206.0000000
 augmentation part      778.0000000 magnetization     206.0000000

 Free energy of the ion-electron system (eV)
  ---------------------------------------------------
  alpha Z        PSCENC =      1751.32544349
  Ewald energy   TEWEN  =    237330.24709405
  -Hartree energ DENC   =   -307388.18604058
  -exchange      EXHF   =         0.00000000
  -V(xc)+E(xc)   XCENC  =      1334.70433103
  PAW double counting   =     62871.68470781   -64853.88848185
  entropy T*S    EENTRO =         0.00000000
  eigenvalues    EBANDS =      -543.89248565
  atomic energy  EATOM  =     68993.34587830
  Solvation  Ediel_sol  =         0.00000000
  ---------------------------------------------------
  free energy    TOTEN  =      -504.65955339 eV

  energy without entropy =     -504.65955339  energy(sigma->0) =     -504.65955339


--------------------------------------------------------------------------------------------------------




--------------------------------------- Iteration      1(   5)  ---------------------------------------


     EDDAV:  cpu time   67.3120: real time   67.5254
 BZINTS: Fermi energy:  2.735979;778.000000 electrons
         Band energy:-544.580701;  BLOECHL correction: -0.020421
       DOS:  cpu time    0.0211: real time    0.0217
    CHARGE:  cpu time    3.0849: real time    3.0930
    MIXING:  cpu time    0.0111: real time    0.0112
    --------------------------------------------
      LOOP:  cpu time   70.4291: real time   70.6513

 eigenvalue-minimisations  : 11712
 total energy-change (2. order) :-0.6882152E+00  (-0.6876099E+00)
 number of electron     778.0000030 magnetization     194.1196486
 augmentation part      338.1040338 magnetization     164.5122768

 Broyden mixing:
  rms(total) = 0.10640E+02    rms(broyden)= 0.10640E+02
  rms(prec ) = 0.11007E+02
  weight for this iteration     100.00

 Free energy of the ion-electron system (eV)
  ---------------------------------------------------
  alpha Z        PSCENC =      1751.32544349
  Ewald energy   TEWEN  =    237330.24709405
  -Hartree energ DENC   =   -307388.18604058
  -exchange      EXHF   =         0.00000000
  -V(xc)+E(xc)   XCENC  =      1334.70433103
  PAW double counting   =     62871.68470781   -64853.88848185
  entropy T*S    EENTRO =         0.00000000
  eigenvalues    EBANDS =      -544.58070083
  atomic energy  EATOM  =     68993.34587830
  Solvation  Ediel_sol  =         0.00000000
  ---------------------------------------------------
  free energy    TOTEN  =      -505.34776857 eV

  energy without entropy =     -505.34776857  energy(sigma->0) =     -505.34776857


--------------------------------------------------------------------------------------------------------




--------------------------------------- Iteration      1(   6)  ---------------------------------------


    POTLOK:  cpu time    0.4662: real time    0.4687
    SETDIJ:  cpu time    0.0336: real time    0.0337
    EDDIAG:  cpu time    9.7880: real time    9.8138
  RMM-DIIS:  cpu time   37.5608: real time   37.7095
    ORTHCH:  cpu time    1.3573: real time    1.3624
 BZINTS: Fermi energy:  1.255236;778.000000 electrons
         Band energy:***********;  BLOECHL correction: -0.021222
       DOS:  cpu time    0.0274: real time    0.0275
    CHARGE:  cpu time    3.0094: real time    3.0173
    MIXING:  cpu time    0.0117: real time    0.0122
    --------------------------------------------
      LOOP:  cpu time   52.2545: real time   52.4452

 eigenvalue-minimisations  :  9399
 total energy-change (2. order) :-0.2441459E+03  (-0.9913789E+02)
 number of electron     778.0000043 magnetization     190.7883790
 augmentation part      408.5567028 magnetization     162.3670114

 Broyden mixing:
  rms(total) = 0.20690E+02    rms(broyden)= 0.20690E+02
  rms(prec ) = 0.25655E+02
  weight for this iteration     100.00

 eigenvalues of (default mixing * dielectric matrix)
  average eigenvalue GAMMA=   0.1766
  0.1766

 Free energy of the ion-electron system (eV)
  ---------------------------------------------------
  alpha Z        PSCENC =      1751.32544349
  Ewald energy   TEWEN  =    237330.24709405
  -Hartree energ DENC   =   -306113.96014077
  -exchange      EXHF   =         0.00000000
  -V(xc)+E(xc)   XCENC  =      1288.94377504
  PAW double counting   =     67909.89817009   -69663.50897075
  entropy T*S    EENTRO =         0.00000000
  eigenvalues    EBANDS =     -2245.78489127
  atomic energy  EATOM  =     68993.34587830
  Solvation  Ediel_sol  =         0.00000000
  ---------------------------------------------------
  free energy    TOTEN  =      -749.49364181 eV

  energy without entropy =     -749.49364181  energy(sigma->0) =     -749.49364181


--------------------------------------------------------------------------------------------------------




--------------------------------------- Iteration      1(   7)  ---------------------------------------


    POTLOK:  cpu time    0.4703: real time    0.4727
    SETDIJ:  cpu time    0.0334: real time    0.0335
    EDDIAG:  cpu time    9.7547: real time    9.7814
  RMM-DIIS:  cpu time   37.0241: real time   37.2109
    ORTHCH:  cpu time    1.3591: real time    1.3979
 BZINTS: Fermi energy:  2.054146;778.000000 electrons
         Band energy:***********;  BLOECHL correction: -0.006746
       DOS:  cpu time    0.0241: real time    0.0242
    CHARGE:  cpu time    3.0120: real time    3.0205
    MIXING:  cpu time    0.0119: real time    0.0120
    --------------------------------------------
      LOOP:  cpu time   51.6895: real time   51.9531

 eigenvalue-minimisations  :  9237
 total energy-change (2. order) : 0.2334398E+03  (-0.1714518E+02)
 number of electron     778.0000033 magnetization     187.8572031
 augmentation part      371.7745193 magnetization     153.0289657

 Broyden mixing:
  rms(total) = 0.14939E+02    rms(broyden)= 0.14939E+02
  rms(prec ) = 0.18168E+02
  weight for this iteration     100.00

 eigenvalues of (default mixing * dielectric matrix)
  average eigenvalue GAMMA=   0.2170
  0.2170  0.2170

 Free energy of the ion-electron system (eV)
  ---------------------------------------------------
  alpha Z        PSCENC =      1751.32544349
  Ewald energy   TEWEN  =    237330.24709405
  -Hartree energ DENC   =   -306712.79421914
  -exchange      EXHF   =         0.00000000
  -V(xc)+E(xc)   XCENC  =      1305.61665916
  PAW double counting   =     68956.59329926   -70875.11377799
  entropy T*S    EENTRO =         0.00000000
  eigenvalues    EBANDS =     -1265.27421300
  atomic energy  EATOM  =     68993.34587830
  Solvation  Ediel_sol  =         0.00000000
  ---------------------------------------------------
  free energy    TOTEN  =      -516.05383587 eV

  energy without entropy =     -516.05383587  energy(sigma->0) =     -516.05383587


--------------------------------------------------------------------------------------------------------




--------------------------------------- Iteration      1(   8)  ---------------------------------------


    POTLOK:  cpu time    0.4674: real time    0.4697
    SETDIJ:  cpu time    0.0335: real time    0.0336
    EDDIAG:  cpu time    9.8711: real time    9.8978
  RMM-DIIS:  cpu time   37.2254: real time   37.3283
    ORTHCH:  cpu time    1.3607: real time    1.3670
 BZINTS: Fermi energy:  1.464426;778.000000 electrons
         Band energy:***********;  BLOECHL correction: -0.029718
       DOS:  cpu time    0.0247: real time    0.0248
    CHARGE:  cpu time    3.0136: real time    3.0247
    MIXING:  cpu time    0.0123: real time    0.0126
    --------------------------------------------
      LOOP:  cpu time   52.0088: real time   52.1584

 eigenvalue-minimisations  :  9264
 total energy-change (2. order) : 0.8451961E+02  (-0.1311386E+02)
 number of electron     778.0000040 magnetization     180.8854127
 augmentation part      380.4775120 magnetization     142.7070616

 Broyden mixing:
  rms(total) = 0.11919E+02    rms(broyden)= 0.11919E+02
  rms(prec ) = 0.13948E+02
  weight for this iteration     100.00

 eigenvalues of (default mixing * dielectric matrix)
  average eigenvalue GAMMA=   0.3148
  0.5678  0.2847  0.0919

 Free energy of the ion-electron system (eV)
  ---------------------------------------------------
  alpha Z        PSCENC =      1751.32544349
  Ewald energy   TEWEN  =    237330.24709405
  -Hartree energ DENC   =   -306575.18596463
  -exchange      EXHF   =         0.00000000
  -V(xc)+E(xc)   XCENC  =      1310.05335429
  PAW double counting   =     69663.01291007   -71602.86136486
  entropy T*S    EENTRO =         0.00000000
  eigenvalues    EBANDS =     -1301.47157948
  atomic energy  EATOM  =     68993.34587830
  Solvation  Ediel_sol  =         0.00000000
  ---------------------------------------------------
  free energy    TOTEN  =      -431.53422876 eV

  energy without entropy =     -431.53422876  energy(sigma->0) =     -431.53422876


--------------------------------------------------------------------------------------------------------




--------------------------------------- Iteration      1(   9)  ---------------------------------------


    POTLOK:  cpu time    0.4679: real time    0.4705
    SETDIJ:  cpu time    0.0334: real time    0.0335
    EDDIAG:  cpu time    9.7563: real time    9.7828
  RMM-DIIS:  cpu time   36.8462: real time   36.9494
    ORTHCH:  cpu time    1.3573: real time    1.3622
 BZINTS: Fermi energy:  1.572347;778.000000 electrons
         Band energy:***********;  BLOECHL correction: -0.024880
       DOS:  cpu time    0.0231: real time    0.0232
    CHARGE:  cpu time    3.0157: real time    3.0239
    MIXING:  cpu time    0.0124: real time    0.0126
    --------------------------------------------
      LOOP:  cpu time   51.5123: real time   51.6581

 eigenvalue-minimisations  :  9227
 total energy-change (2. order) :-0.9836401E+02  (-0.1758011E+02)
 number of electron     778.0000028 magnetization     174.7222349
 augmentation part      380.7402692 magnetization     141.5866665

 Broyden mixing:
  rms(total) = 0.16602E+02    rms(broyden)= 0.16602E+02
  rms(prec ) = 0.19046E+02
  weight for this iteration     100.00

 eigenvalues of (default mixing * dielectric matrix)
  average eigenvalue GAMMA=   0.3434
  0.8434  0.3099  0.1102  0.1102

 Free energy of the ion-electron system (eV)
  ---------------------------------------------------
  alpha Z        PSCENC =      1751.32544349
  Ewald energy   TEWEN  =    237330.24709405
  -Hartree energ DENC   =   -306322.43980389
  -exchange      EXHF   =         0.00000000
  -V(xc)+E(xc)   XCENC  =      1327.15245901
  PAW double counting   =     71276.51167355   -73277.46938430
  entropy T*S    EENTRO =         0.00000000
  eigenvalues    EBANDS =     -1608.57160064
  atomic energy  EATOM  =     68993.34587830
  Solvation  Ediel_sol  =         0.00000000
  ---------------------------------------------------
  free energy    TOTEN  =      -529.89824044 eV

  energy without entropy =     -529.89824044  energy(sigma->0) =     -529.89824044


--------------------------------------------------------------------------------------------------------




--------------------------------------- Iteration      1(  10)  ---------------------------------------


    POTLOK:  cpu time    0.4700: real time    0.4725
    SETDIJ:  cpu time    0.0335: real time    0.0335
    EDDIAG:  cpu time    9.7570: real time    9.7840
  RMM-DIIS:  cpu time   36.9848: real time   37.0967
    ORTHCH:  cpu time    1.3604: real time    1.3703
 BZINTS: Fermi energy:  1.900000;778.000000 electrons
         Band energy:***********;  BLOECHL correction: -0.004787
       DOS:  cpu time    0.0233: real time    0.0234
    CHARGE:  cpu time    3.0090: real time    3.0168
    MIXING:  cpu time    0.0128: real time    0.0131
    --------------------------------------------
      LOOP:  cpu time   51.6507: real time   51.8103

 eigenvalue-minimisations  :  9237
 total energy-change (2. order) : 0.1116151E+03  (-0.1231949E+02)
 number of electron     778.0000037 magnetization     169.2493582
 augmentation part      381.6410064 magnetization     126.2379642

 Broyden mixing:
  rms(total) = 0.10565E+02    rms(broyden)= 0.10565E+02
  rms(prec ) = 0.13478E+02
  weight for this iteration     100.00

 eigenvalues of (default mixing * dielectric matrix)
  average eigenvalue GAMMA=   0.3498
  0.9410  0.4260  0.1463  0.1463  0.0896

 Free energy of the ion-electron system (eV)
  ---------------------------------------------------
  alpha Z        PSCENC =      1751.32544349
  Ewald energy   TEWEN  =    237330.24709405
  -Hartree energ DENC   =   -306724.93849533
  -exchange      EXHF   =         0.00000000
  -V(xc)+E(xc)   XCENC  =      1336.72215836
  PAW double counting   =     72596.58678804   -74658.68463901
  entropy T*S    EENTRO =         0.00000000
  eigenvalues    EBANDS =     -1042.88731872
  atomic energy  EATOM  =     68993.34587830
  Solvation  Ediel_sol  =         0.00000000
  ---------------------------------------------------
  free energy    TOTEN  =      -418.28309081 eV

  energy without entropy =     -418.28309081  energy(sigma->0) =     -418.28309081


--------------------------------------------------------------------------------------------------------




--------------------------------------- Iteration      1(  11)  ---------------------------------------


    POTLOK:  cpu time    0.4966: real time    0.4992
    SETDIJ:  cpu time    0.0334: real time    0.0335
    EDDIAG:  cpu time    9.7832: real time    9.8201
  RMM-DIIS:  cpu time   37.2173: real time   37.3608
    ORTHCH:  cpu time    1.3538: real time    1.3574
 BZINTS: Fermi energy:  1.945332;778.000000 electrons
         Band energy:-737.197523;  BLOECHL correction: -0.064661
       DOS:  cpu time    0.0234: real time    0.0235
    CHARGE:  cpu time    3.0238: real time    3.0319
    MIXING:  cpu time    0.0135: real time    0.0137
    --------------------------------------------
      LOOP:  cpu time   51.9451: real time   52.1402

 eigenvalue-minimisations  :  9263
 total energy-change (2. order) : 0.6092691E+02  (-0.8689684E+01)
 number of electron     778.0000034 magnetization     165.0996824
 augmentation part      373.7630998 magnetization     123.1177107

 Broyden mixing:
  rms(total) = 0.95964E+01    rms(broyden)= 0.95963E+01
  rms(prec ) = 0.10405E+02
  weight for this iteration     100.00

 eigenvalues of (default mixing * dielectric matrix)
  average eigenvalue GAMMA=   0.3528
  1.0612  0.4732  0.1672  0.1672  0.1555  0.0926

 Free energy of the ion-electron system (eV)
  ---------------------------------------------------
  alpha Z        PSCENC =      1751.32544349
  Ewald energy   TEWEN  =    237330.24709405
  -Hartree energ DENC   =   -306933.89992292
  -exchange      EXHF   =         0.00000000
  -V(xc)+E(xc)   XCENC  =      1337.34230177
  PAW double counting   =     73497.74481042   -75596.26426576
  entropy T*S    EENTRO =         0.00000000
  eigenvalues    EBANDS =      -737.19752290
  atomic energy  EATOM  =     68993.34587830
  Solvation  Ediel_sol  =         0.00000000
  ---------------------------------------------------
  free energy    TOTEN  =      -357.35618354 eV

  energy without entropy =     -357.35618354  energy(sigma->0) =     -357.35618354


--------------------------------------------------------------------------------------------------------




--------------------------------------- Iteration      1(  12)  ---------------------------------------


    POTLOK:  cpu time    0.4679: real time    0.4704
    SETDIJ:  cpu time    0.0336: real time    0.0337
    EDDIAG:  cpu time    9.7718: real time    9.7988
  RMM-DIIS:  cpu time   37.1963: real time   37.3552
    ORTHCH:  cpu time    1.3530: real time    1.4005
 BZINTS: Fermi energy:  2.011161;778.000000 electrons
         Band energy:-742.877194;  BLOECHL correction: -0.051466
       DOS:  cpu time    0.0224: real time    0.0225
    CHARGE:  cpu time    3.0129: real time    3.0209
    MIXING:  cpu time    0.0133: real time    0.0135
    --------------------------------------------
      LOOP:  cpu time   51.8711: real time   52.1154

 eigenvalue-minimisations  :  9266
 total energy-change (2. order) :-0.1198079E+02  (-0.5546231E+01)
 number of electron     778.0000033 magnetization     160.4477095
 augmentation part      372.5086858 magnetization     121.7706086

 Broyden mixing:
  rms(total) = 0.11528E+02    rms(broyden)= 0.11528E+02
  rms(prec ) = 0.12921E+02
  weight for this iteration     100.00

 eigenvalues of (default mixing * dielectric matrix)
  average eigenvalue GAMMA=   0.3538
  1.1882  0.4477  0.3412  0.1460  0.1460  0.0959  0.1117

 Free energy of the ion-electron system (eV)
  ---------------------------------------------------
  alpha Z        PSCENC =      1751.32544349
  Ewald energy   TEWEN  =    237330.24709405
  -Hartree energ DENC   =   -306921.91029251
  -exchange      EXHF   =         0.00000000
  -V(xc)+E(xc)   XCENC  =      1333.08244994
  PAW double counting   =     74015.53509061   -76128.08544436
  entropy T*S    EENTRO =         0.00000000
  eigenvalues    EBANDS =      -742.87719445
  atomic energy  EATOM  =     68993.34587830
  Solvation  Ediel_sol  =         0.00000000
  ---------------------------------------------------
  free energy    TOTEN  =      -369.33697491 eV

  energy without entropy =     -369.33697491  energy(sigma->0) =     -369.33697491


--------------------------------------------------------------------------------------------------------




--------------------------------------- Iteration      1(  13)  ---------------------------------------


    POTLOK:  cpu time    0.4708: real time    0.4731
    SETDIJ:  cpu time    0.0335: real time    0.0336
    EDDIAG:  cpu time    9.7701: real time    9.7972
  RMM-DIIS:  cpu time   37.2115: real time   37.3739
    ORTHCH:  cpu time    1.3610: real time    1.3677
 BZINTS: Fermi energy:  2.102955;778.000000 electrons
         Band energy:-631.310067;  BLOECHL correction: -0.039423
       DOS:  cpu time    0.0232: real time    0.0232
    CHARGE:  cpu time    3.0136: real time    3.0221
    MIXING:  cpu time    0.0137: real time    0.0138
    --------------------------------------------
      LOOP:  cpu time   51.8973: real time   52.1046

 eigenvalue-minimisations  :  9266
 total energy-change (2. order) : 0.1613706E+01  (-0.3973154E+01)
 number of electron     778.0000029 magnetization     156.1296414
 augmentation part      372.7676092 magnetization     117.3501150

 Broyden mixing:
  rms(total) = 0.10009E+02    rms(broyden)= 0.10009E+02
  rms(prec ) = 0.11190E+02
  weight for this iteration     100.00

 eigenvalues of (default mixing * dielectric matrix)
  average eigenvalue GAMMA=   0.3523
  1.2740  0.4668  0.4668  0.1489  0.1489  0.1289  0.0976  0.0868

 Free energy of the ion-electron system (eV)
  ---------------------------------------------------
  alpha Z        PSCENC =      1751.32544349
  Ewald energy   TEWEN  =    237330.24709405
  -Hartree energ DENC   =   -307017.60042753
  -exchange      EXHF   =         0.00000000
  -V(xc)+E(xc)   XCENC  =      1328.92077729
  PAW double counting   =     74560.90139394   -76683.55336215
  entropy T*S    EENTRO =         0.00000000
  eigenvalues    EBANDS =      -631.31006675
[...]
      9.842208  6.299950  6.981853            0           0           0  
      3.327475  0.887173  1.073320            0           0           0  
      9.370381  5.944442  1.033549            0           0           0  
      5.774364  3.511196  1.588832            0           0           0  
     11.780804  9.102106  3.012746            0           0           0  
     12.142208  7.864851  4.907167            0           0           0  
     12.898551  6.599928  3.085357            0           0           0  
      9.609021  4.409279  2.931659            0           0           0  
      8.509821  8.491581  6.956431            0           0           0  
      8.126536  8.259675  1.100142            0           0           0  
     10.595320  7.057317  2.726279            0           0           0  
      2.643452  0.125819  5.052866            0           0           0  
      8.182065  3.505601  1.219953            0           0           0  
      4.798505  1.622219  2.896171            0           0           0  
      5.809398  6.649898  3.247617            0           0           0  
      7.654684  0.412970  4.686986            0           0           0  
      9.458512  1.132050  6.530787            0           0           0  
     10.930977  8.502263  6.953056            0           0           0  
      9.362372  1.193342  1.330661            0           0           0  
     10.656315  8.732160  0.980213            0           0           0  
      5.031467  4.910390  4.716500            0           0           0  
     12.268341  3.065617  4.961597            0           0           0  
      9.642770  0.018962  3.434634            0           0           0  
      9.859490  3.061300  5.053340            0           0           0  
      6.317386  2.583125  4.702954            0           0           0  
     12.253127  4.174930  2.833240            0           0           0  
      2.095248  1.756232  3.073240            0           0           0  
     11.831281  5.721446  1.134235            0           0           0  
      6.857430  5.749036  1.303551            0           0           0  
      8.219787  6.815704  3.002248            0           0           0  
      7.040131  4.410259  3.274640            0           0           0  
     11.127108  3.885536  6.934782            0           0           0  
     10.736077  3.416087  1.011578            0           0           0  
     11.353957  0.819354  4.883300            0           0           0  
      9.676082  7.723209  4.957292            0           0           0  
      7.203849  7.639146  5.118877            0           0           0  
      5.078032  0.269348  4.939043            0           0           0  
     10.887846  3.677973  9.676939    -0.175016   -0.131682    0.975720  
 
   2 f  =   23.409080 THz   147.083584 2PiTHz  780.842819 cm-1    96.812206 meV
             X         Y         Z           dx          dy          dz
     13.783620  8.536579  6.628691            0           0           0  
      5.290912  8.551551  6.415000            0           0           0  
      5.133804  3.506745  6.839669            0           0           0  
     15.251121  9.364646  8.784890            0           0           0  
      3.931949  4.548207  9.026551            0           0           0  
      6.777189  9.262100  8.736603            0           0           0  
     12.423987  4.498921  9.118511            0           0           0  
      9.547400  9.278590  9.134674            0           0           0  
     10.908330  2.027900  8.786159            0           0           0  
      2.665170  2.085807  9.083679            0           0           0  
     12.412961  9.257068  9.011707            0           0           0  
     13.838798  6.938510  8.987901            0           0           0  
      5.369860  1.934702  9.098095            0           0           0  
      8.116647  6.825729  8.795359            0           0           0  
      9.460197  4.468648  8.808416            0           0           0  
      5.313651  6.927302  8.803202            0           0           0  
      8.151780  1.939963  8.899330            0           0           0  
      8.002272  3.372831  6.625750            0           0           0  
      6.559030  1.099681  6.783789            0           0           0  
      6.833851  1.229252  1.470327            0           0           0  
      3.612352  3.964682  2.619950            0           0           0  
      1.435567  1.449020  6.835058            0           0           0  
      0.671266  0.989103  1.081883            0           0           0  
      6.748073  9.008785  3.123421            0           0           0  
      6.730027  4.376037  8.931483            0           0           0  
      8.493301  5.384394  5.053784            0           0           0  
     11.000672  6.915755  9.100056            0           0           0  
     14.948842  7.376730  4.492489            0           0           0  
     12.479147  6.127396  6.830772            0           0           0  
      6.481544  5.891902  6.648028            0           0           0  
      3.574220  2.546241  4.958776            0           0           0  
     11.126137  5.452511  4.710247            0           0           0  
      3.883900  5.908197  6.702907            0           0           0  
     13.734382  8.588522  1.762771            0           0           0  
      4.876633  8.413947  1.577885            0           0           0  
      3.758771  6.384136  2.060921            0           0           0  
      8.358503  2.272242  3.294054            0           0           0  
      9.333665  9.158858  2.963491            0           0           0  
      2.486219  3.845280  6.958903            0           0           0  
      1.948917  3.123684  0.977335            0           0           0  
     10.751866  2.212205  3.056235            0           0           0  
     13.777989  5.058683  4.814702            0           0           0  
      3.959734  0.971162  7.025089            0           0           0  
      9.842208  6.299950  6.981853            0           0           0  
      3.327475  0.887173  1.073320            0           0           0  
      9.370381  5.944442  1.033549            0           0           0  
      5.774364  3.511196  1.588832            0           0           0  
     11.780804  9.102106  3.012746            0           0           0  
     12.142208  7.864851  4.907167            0           0           0  
     12.898551  6.599928  3.085357            0           0           0  
      9.609021  4.409279  2.931659            0           0           0  
      8.509821  8.491581  6.956431            0           0           0  
      8.126536  8.259675  1.100142            0           0           0  
     10.595320  7.057317  2.726279            0           0           0  
      2.643452  0.125819  5.052866            0           0           0  
      8.182065  3.505601  1.219953            0           0           0  
      4.798505  1.622219  2.896171            0           0           0  
      5.809398  6.649898  3.247617            0           0           0  
      7.654684  0.412970  4.686986            0           0           0  
      9.458512  1.132050  6.530787            0           0           0  
     10.930977  8.502263  6.953056            0           0           0  
      9.362372  1.193342  1.330661            0           0           0  
     10.656315  8.732160  0.980213            0           0           0  
      5.031467  4.910390  4.716500            0           0           0  
     12.268341  3.065617  4.961597            0           0           0  
      9.642770  0.018962  3.434634            0           0           0  
      9.859490  3.061300  5.053340            0           0           0  
      6.317386  2.583125  4.702954            0           0           0  
     12.253127  4.174930  2.833240            0           0           0  
      2.095248  1.756232  3.073240            0           0           0  
     11.831281  5.721446  1.134235            0           0           0  
      6.857430  5.749036  1.303551            0           0           0  
      8.219787  6.815704  3.002248            0           0           0  
      7.040131  4.410259  3.274640            0           0           0  
     11.127108  3.885536  6.934782            0           0           0  
     10.736077  3.416087  1.011578            0           0           0  
     11.353957  0.819354  4.883300            0           0           0  
      9.676082  7.723209  4.957292            0           0           0  
      7.203849  7.639146  5.118877            0           0           0  
      5.078032  0.269348  4.939043            0           0           0  
     10.887846  3.677973  9.676939     0.941005    0.269145    0.205113  
 
   3 f  =   17.199970 THz   108.070602 2PiTHz  573.729242 cm-1    71.133386 meV
             X         Y         Z           dx          dy          dz
     13.783620  8.536579  6.628691            0           0           0  
      5.290912  8.551551  6.415000            0           0           0  
      5.133804  3.506745  6.839669            0           0           0  
     15.251121  9.364646  8.784890            0           0           0  
      3.931949  4.548207  9.026551            0           0           0  
      6.777189  9.262100  8.736603            0           0           0  
     12.423987  4.498921  9.118511            0           0           0  
      9.547400  9.278590  9.134674            0           0           0  
     10.908330  2.027900  8.786159            0           0           0  
      2.665170  2.085807  9.083679            0           0           0  
     12.412961  9.257068  9.011707            0           0           0  
     13.838798  6.938510  8.987901            0           0           0  
      5.369860  1.934702  9.098095            0           0           0  
      8.116647  6.825729  8.795359            0           0           0  
      9.460197  4.468648  8.808416            0           0           0  
      5.313651  6.927302  8.803202            0           0           0  
      8.151780  1.939963  8.899330            0           0           0  
      8.002272  3.372831  6.625750            0           0           0  
      6.559030  1.099681  6.783789            0           0           0  
      6.833851  1.229252  1.470327            0           0           0  
      3.612352  3.964682  2.619950            0           0           0  
      1.435567  1.449020  6.835058            0           0           0  
      0.671266  0.989103  1.081883            0           0           0  
      6.748073  9.008785  3.123421            0           0           0  
      6.730027  4.376037  8.931483            0           0           0  
      8.493301  5.384394  5.053784            0           0           0  
     11.000672  6.915755  9.100056            0           0           0  
     14.948842  7.376730  4.492489            0           0           0  
     12.479147  6.127396  6.830772            0           0           0  
      6.481544  5.891902  6.648028            0           0           0  
      3.574220  2.546241  4.958776            0           0           0  
     11.126137  5.452511  4.710247            0           0           0  
      3.883900  5.908197  6.702907            0           0           0  
     13.734382  8.588522  1.762771            0           0           0  
      4.876633  8.413947  1.577885            0           0           0  
      3.758771  6.384136  2.060921            0           0           0  
      8.358503  2.272242  3.294054            0           0           0  
      9.333665  9.158858  2.963491            0           0           0  
      2.486219  3.845280  6.958903            0           0           0  
      1.948917  3.123684  0.977335            0           0           0  
     10.751866  2.212205  3.056235            0           0           0  
     13.777989  5.058683  4.814702            0           0           0  
      3.959734  0.971162  7.025089            0           0           0  
      9.842208  6.299950  6.981853            0           0           0  
      3.327475  0.887173  1.073320            0           0           0  
      9.370381  5.944442  1.033549            0           0           0  
      5.774364  3.511196  1.588832            0           0           0  
     11.780804  9.102106  3.012746            0           0           0  
     12.142208  7.864851  4.907167            0           0           0  
     12.898551  6.599928  3.085357            0           0           0  
      9.609021  4.409279  2.931659            0           0           0  
      8.509821  8.491581  6.956431            0           0           0  
      8.126536  8.259675  1.100142            0           0           0  
     10.595320  7.057317  2.726279            0           0           0  
      2.643452  0.125819  5.052866            0           0           0  
      8.182065  3.505601  1.219953            0           0           0  
      4.798505  1.622219  2.896171            0           0           0  
      5.809398  6.649898  3.247617            0           0           0  
      7.654684  0.412970  4.686986            0           0           0  
      9.458512  1.132050  6.530787            0           0           0  
     10.930977  8.502263  6.953056            0           0           0  
      9.362372  1.193342  1.330661            0           0           0  
     10.656315  8.732160  0.980213            0           0           0  
      5.031467  4.910390  4.716500            0           0           0  
     12.268341  3.065617  4.961597            0           0           0  
      9.642770  0.018962  3.434634            0           0           0  
      9.859490  3.061300  5.053340            0           0           0  
      6.317386  2.583125  4.702954            0           0           0  
     12.253127  4.174930  2.833240            0           0           0  
      2.095248  1.756232  3.073240            0           0           0  
     11.831281  5.721446  1.134235            0           0           0  
      6.857430  5.749036  1.303551            0           0           0  
      8.219787  6.815704  3.002248            0           0           0  
      7.040131  4.410259  3.274640            0           0           0  
     11.127108  3.885536  6.934782            0           0           0  
     10.736077  3.416087  1.011578            0           0           0  
     11.353957  0.819354  4.883300            0           0           0  
      9.676082  7.723209  4.957292            0           0           0  
      7.203849  7.639146  5.118877            0           0           0  
      5.078032  0.269348  4.939043            0           0           0  
     10.887846  3.677973  9.676939     0.289619   -0.954055   -0.076809  
 
 Finite differences POTIM=  1.500000000000000E-002
  LATTYP: Found a hexagonal cell.
 ALAT       =    11.2227001190
 C/A-ratio  =     1.9603125600
  
  Lattice vectors:
  
 A1 = (   5.6113500595,  -9.7191434021,   0.0000000000)
 A2 = ( -11.2227001190,   0.0000000000,   0.0000000000)
 A3 = (   0.0000000000,   0.0000000000, -22.0000000000)


Analysis of symmetry for initial positions (statically):
=====================================================================
 Subroutine PRICEL returns:
 Original cell was already a primitive cell.
 

 Routine SETGRP: Setting up the symmetry group for a 
 hexagonal supercell.


 Subroutine GETGRP returns: Found  1 space group operations
 (whereof  1 operations were pure point group operations)
 out of a pool of 24 trial point group operations.


The static configuration has the point symmetry C_1 .


Analysis of symmetry for dynamics (positions and initial velocities):
=====================================================================
 Subroutine PRICEL returns:
 Original cell was already a primitive cell.
 

 Routine SETGRP: Setting up the symmetry group for a 
 hexagonal supercell.


 Subroutine GETGRP returns: Found  1 space group operations
 (whereof  1 operations were pure point group operations)
 out of a pool of 24 trial point group operations.


The dynamic configuration has the point symmetry C_1 .


Analysis of constrained symmetry for selective dynamics:
=====================================================================
 Subroutine PRICEL returns:
 Original cell was already a primitive cell.
 

 Routine SETGRP: Setting up the symmetry group for a 
 hexagonal supercell.


 Subroutine GETGRP returns: Found  1 space group operations
 (whereof  1 operations were pure point group operations)
 out of a pool of 24 trial point group operations.


The constrained configuration has the point symmetry C_1 .


Analysis of structural, dynamic, and magnetic symmetry:
=====================================================================
 Subroutine PRICEL returns:
 Original cell was already a primitive cell.
 

 Routine SETGRP: Setting up the symmetry group for a 
 hexagonal supercell.


 Subroutine GETGRP returns: Found  1 space group operations
 (whereof  1 operations were pure point group operations)
 out of a pool of 24 trial point group operations.


The magnetic configuration has the point symmetry C_1 .


 Subroutine INISYM returns: Found  1 space group operations
 (whereof  1 operations are pure point group operations),
 and found     1 'primitive' translations

 
 KPOINTS: mesh auto                               

Automatic generation of k-mesh.
Space group operators:
 irot       det(A)        alpha          n_x          n_y          n_z        tau_x        tau_y        tau_z
    1     1.000000     0.000000     1.000000     0.000000     0.000000     0.000000     0.000000     0.000000
 
 Subroutine IBZKPT returns following result:
 ===========================================
 
 Found      4 irreducible k-points:
 
 Following reciprocal coordinates:
            Coordinates               Weight
  0.000000  0.000000  0.000000      1.000000
  0.500000  0.000000  0.000000      1.000000
  0.000000  0.500000  0.000000      1.000000
  0.500000  0.500000  0.000000      1.000000
 
 Following cartesian coordinates:
            Coordinates               Weight
  0.000000  0.000000  0.000000      1.000000
  0.044553 -0.025722  0.000000      1.000000
  0.000000  0.051445  0.000000      1.000000
  0.044553  0.025722  0.000000      1.000000
 
 TETIRR: Found     12 inequivalent tetrahedra from       24
     LOOP+:  cpu time  581.6016: real time  584.8336
    4ORBIT:  cpu time    0.0000: real time    0.0000
 BZINTS: Fermi energy:  1.516621;778.000000 electrons
         Band energy:-898.929701;  BLOECHL correction: -0.234704

 total amount of memory used by VASP MPI-rank0   379504. kBytes
=======================================================================

   base      :      30000. kBytes
   nonlr-proj:      90618. kBytes
   fftplans  :      13535. kBytes
   grid      :     132462. kBytes
   one-center:       2519. kBytes
   wavefun   :     110370. kBytes
 
  
  
 General timing and accounting informations for this job:
 ========================================================
  
                  Total CPU time used (sec):     8073.932
                            User time (sec):     8030.643
                          System time (sec):       43.289
                         Elapsed time (sec):     8123.263
  
                   Maximum memory used (kb):      731632.
                   Average memory used (kb):           0.
  
                          Minor page faults:      6321746
                          Major page faults:          125
                 Voluntary context switches:         6319
