 vasp.5.4.4.18Apr17-6-g9f103f2a35 (build Oct 25 2019 11:13:22) complex          
  
 executed on             LinuxIFC date 2021.10.14  19:46:40
 running on   48 total cores
 distrk:  each k-point on   48 cores,    1 groups
 distr:  one band on NCORES_PER_BAND=   4 cores,   12 groups


--------------------------------------------------------------------------------------------------------


 INCAR:
 POTCAR:    PAW_PBE Pt 04Feb2005                  
 POTCAR:    PAW_PBE Fe 06Sep2000                  
 POTCAR:    PAW_PBE Co 02Aug2007                  
 POTCAR:    PAW_PBE Cu 22Jun2005                  
 POTCAR:    PAW_PBE Ni 02Aug2007                  
 POTCAR:    PAW_PBE H 15Jun2001                   
 POTCAR:    PAW_PBE Pt 04Feb2005                  
   VRHFIN =Pt: s1d9                                                             
   LEXCH  = PE                                                                  
   EATOM  =   729.1176 eV,   53.5886 Ry                                         
                                                                                
   TITEL  = PAW_PBE Pt 04Feb2005                                                
   LULTRA =        F    use ultrasoft PP ?                                      
   IUNSCR =        1    unscreen: 0-lin 1-nonlin 2-no                           
   RPACOR =    2.330    partial core radius                                     
   POMASS =  195.080; ZVAL   =   10.000    mass and valenz                      
   RCORE  =    2.600    outmost cutoff radius                                   
   RWIGS  =    2.750; RWIGS  =    1.455    wigner-seitz radius (au A)           
   ENMAX  =  230.283; ENMIN  =  172.712 eV                                      
   ICORE  =        3    local potential                                         
   LCOR   =        T    correct aug charges                                     
   LPAW   =        T    paw PP                                                  
   EAUG   =  358.966                                                            
   DEXC   =    0.000                                                            
   RMAX   =    2.658    core radius for proj-oper                               
   RAUG   =    1.300    factor for augmentation sphere                          
   RDEP   =    2.761    radius for radial grids                                 
   RDEPT  =    2.203    core radius for aug-charge                              
                                                                                
   Atomic configuration                                                         
   16 entries                                                                   
     n  l   j            E        occ.                                          
     1  0  0.50    -78401.1885   2.0000                                         
     2  0  0.50    -13770.7750   2.0000                                         
     2  1  1.50    -11931.0468   6.0000                                         
     3  0  0.50     -3234.7234   2.0000                                         
     3  1  1.50     -2699.2216   6.0000                                         
     3  2  2.50     -2119.5714  10.0000                                         
     4  0  0.50      -695.1528   2.0000                                         
     4  1  1.50      -519.6034   6.0000                                         
     4  2  2.50      -306.6786  10.0000                                         
     4  3  3.50       -70.1041  14.0000                                         
     5  0  0.50      -101.7747   2.0000                                         
     5  1  1.50       -55.9873   6.0000                                         
     5  2  2.50        -6.1423   9.0000                                         
     6  0  0.50        -5.6573   1.0000                                         
     6  1  1.50        -6.8029   0.0000                                         
     5  3  2.50        -1.3606   0.0000                                         
   Description                                                                  
     l       E           TYP  RCUT    TYP  RCUT                                 
     2     -6.1423404     23  2.500                                             
     2     -7.5029230     23  2.500                                             
     0     -5.6573207     23  2.500                                             
     0      0.7416693     23  2.500                                             
     1     -2.7211652     23  2.600                                             
     1     20.4087390     23  2.600                                             
     3     -1.3605826     23  2.500                                             
  local pseudopotential read in
  partial core-charges read in
  partial kinetic energy density read in
  atomic valenz-charges read in
  non local Contribution for L=           2  read in
    real space projection operators read in
  non local Contribution for L=           2  read in
    real space projection operators read in
  non local Contribution for L=           0  read in
    real space projection operators read in
  non local Contribution for L=           0  read in
    real space projection operators read in
  non local Contribution for L=           1  read in
    real space projection operators read in
  non local Contribution for L=           1  read in
    real space projection operators read in
    PAW grid and wavefunctions read in
 
   number of l-projection  operators is LMAX  =           6
   number of lm-projection operators is LMMAX =          18
 
 POTCAR:    PAW_PBE Fe 06Sep2000                  
   VRHFIN =Fe:  d7 s1                                                           
   LEXCH  = PE                                                                  
   EATOM  =   594.3153 eV,   43.6809 Ry                                         
                                                                                
   TITEL  = PAW_PBE Fe 06Sep2000                                                
   LULTRA =        F    use ultrasoft PP ?                                      
   IUNSCR =        1    unscreen: 0-lin 1-nonlin 2-no                           
   RPACOR =    2.000    partial core radius                                     
   POMASS =   55.847; ZVAL   =    8.000    mass and valenz                      
   RCORE  =    2.300    outmost cutoff radius                                   
   RWIGS  =    2.460; RWIGS  =    1.302    wigner-seitz radius (au A)           
   ENMAX  =  267.882; ENMIN  =  200.911 eV                                      
   RCLOC  =    1.701    cutoff for local pot                                    
   LCOR   =        T    correct aug charges                                     
   LPAW   =        T    paw PP                                                  
   EAUG   =  511.368                                                            
   DEXC   =    0.000                                                            
   RMAX   =    2.356    core radius for proj-oper                               
   RAUG   =    1.300    factor for augmentation sphere                          
   RDEP   =    2.442    radius for radial grids                                 
   RDEPT  =    1.890    core radius for aug-charge                              
                                                                                
   Atomic configuration                                                         
    9 entries                                                                   
     n  l   j            E        occ.                                          
     1  0  0.50     -6993.8440   2.0000                                         
     2  0  0.50      -814.6047   2.0000                                         
     2  1  1.50      -693.3689   6.0000                                         
     3  0  0.50       -89.4732   2.0000                                         
     3  1  1.50       -55.6373   6.0000                                         
     3  2  2.50        -3.8151   7.0000                                         
     4  0  0.50        -4.2551   1.0000                                         
     4  1  1.50        -3.4015   0.0000                                         
     4  3  2.50        -1.3606   0.0000                                         
   Description                                                                  
     l       E           TYP  RCUT    TYP  RCUT                                 
     2     -3.8151135     23  2.300                                             
     2     -5.1756961     23  2.300                                             
     0     -4.2550963     23  2.300                                             
     0      7.2035603     23  2.300                                             
     1     -2.7211652     23  2.300                                             
     1     18.4316424     23  2.300                                             
  local pseudopotential read in
  partial core-charges read in
  partial kinetic energy density read in
  atomic valenz-charges read in
  non local Contribution for L=           2  read in
    real space projection operators read in
  non local Contribution for L=           2  read in
    real space projection operators read in
  non local Contribution for L=           0  read in
    real space projection operators read in
  non local Contribution for L=           0  read in
    real space projection operators read in
  non local Contribution for L=           1  read in
    real space projection operators read in
  non local Contribution for L=           1  read in
    real space projection operators read in
    PAW grid and wavefunctions read in
 
   number of l-projection  operators is LMAX  =           6
   number of lm-projection operators is LMMAX =          18
 
 POTCAR:    PAW_PBE Co 02Aug2007                  
   VRHFIN =Co: d8 s1                                                            
   LEXCH  = PE                                                                  
   EATOM  =   813.3670 eV,   59.7808 Ry                                         
                                                                                
   TITEL  = PAW_PBE Co 02Aug2007                                                
   LULTRA =        F    use ultrasoft PP ?                                      
   IUNSCR =        1    unscreen: 0-lin 1-nonlin 2-no                           
   RPACOR =    2.000    partial core radius                                     
   POMASS =   58.933; ZVAL   =    9.000    mass and valenz                      
   RCORE  =    2.300    outmost cutoff radius                                   
   RWIGS  =    2.460; RWIGS  =    1.302    wigner-seitz radius (au A)           
   ENMAX  =  267.968; ENMIN  =  200.976 eV                                      
   RCLOC  =    1.203    cutoff for local pot                                    
   LCOR   =        T    correct aug charges                                     
   LPAW   =        T    paw PP                                                  
   EAUG   =  477.818                                                            
   DEXC   =    0.000                                                            
   RMAX   =    2.360    core radius for proj-oper                               
   RAUG   =    1.300    factor for augmentation sphere                          
   RDEP   =    2.393    radius for radial grids                                 
   RDEPT  =    1.864    core radius for aug-charge                              
                                                                                
   Atomic configuration                                                         
    9 entries                                                                   
     n  l   j            E        occ.                                          
     1  0  0.50     -7587.6674   2.0000                                         
     2  0  0.50      -893.6084   2.0000                                         
     2  1  1.50      -764.5805   6.0000                                         
     3  0  0.50       -97.5973   2.0000                                         
     3  1  1.50       -60.9648   6.0000                                         
     3  2  2.50        -4.2382   8.0000                                         
     4  0  0.50        -4.3746   1.0000                                         
     4  1  1.50        -4.0817   0.0000                                         
     4  3  2.50        -1.3606   0.0000                                         
   Description                                                                  
     l       E           TYP  RCUT    TYP  RCUT                                 
     2     -4.2382362     23  2.300                                             
     2     -5.5988188     23  2.300                                             
     0     -4.3745797     23  2.300                                             
     0      5.7660125     23  2.300                                             
     1     -2.7211652     23  2.300                                             
     1     16.9860234     23  2.300                                             
  local pseudopotential read in
  partial core-charges read in
  partial kinetic energy density read in
  atomic valenz-charges read in
  non local Contribution for L=           2  read in
    real space projection operators read in
  non local Contribution for L=           2  read in
    real space projection operators read in
  non local Contribution for L=           0  read in
    real space projection operators read in
  non local Contribution for L=           0  read in
    real space projection operators read in
  non local Contribution for L=           1  read in
    real space projection operators read in
  non local Contribution for L=           1  read in
    real space projection operators read in
    PAW grid and wavefunctions read in
 
   number of l-projection  operators is LMAX  =           6
   number of lm-projection operators is LMMAX =          18
 
 POTCAR:    PAW_PBE Cu 22Jun2005                  
   VRHFIN =Cu: d10 p1                                                           
   LEXCH  = PE                                                                  
   EATOM  =  1390.9808 eV,  102.2342 Ry                                         
                                                                                
   TITEL  = PAW_PBE Cu 22Jun2005                                                
   LULTRA =        F    use ultrasoft PP ?                                      
   IUNSCR =        1    unscreen: 0-lin 1-nonlin 2-no                           
   RPACOR =    2.000    partial core radius                                     
   POMASS =   63.546; ZVAL   =   11.000    mass and valenz                      
   RCORE  =    2.300    outmost cutoff radius                                   
   RWIGS  =    2.200; RWIGS  =    1.164    wigner-seitz radius (au A)           
   ENMAX  =  295.446; ENMIN  =  221.585 eV                                      
   ICORE  =        3    local potential                                         
   LCOR   =        T    correct aug charges                                     
   LPAW   =        T    paw PP                                                  
   EAUG   =  586.980                                                            
   DEXC   =    0.000                                                            
   RMAX   =    2.344    core radius for proj-oper                               
   RAUG   =    1.300    factor for augmentation sphere                          
   RDEP   =    2.302    radius for radial grids                                 
   RDEPT  =    1.771    core radius for aug-charge                              
                                                                                
   Atomic configuration                                                         
    9 entries                                                                   
     n  l   j            E        occ.                                          
     1  0  0.50     -8850.2468   2.0000                                         
     2  0  0.50     -1062.3498   2.0000                                         
     2  1  1.50      -916.8226   6.0000                                         
     3  0  0.50      -114.6929   2.0000                                         
     3  1  1.50       -72.1325   6.0000                                         
     3  2  2.50        -5.0394  10.0000                                         
     4  0  0.50        -4.6097   1.0000                                         
     4  1  0.50        -4.0817   0.0000                                         
     4  3  2.50        -1.3606   0.0000                                         
   Description                                                                  
     l       E           TYP  RCUT    TYP  RCUT                                 
     2     -5.0393973     23  2.200                                             
     2     10.8846608     23  2.200                                             
     0     -4.6097109     23  2.200                                             
     0      8.2520465     23  2.200                                             
     1     -2.7211652     23  2.200                                             
     1     21.7055443     23  2.200                                             
     3      2.7211652     23  2.300                                             
  local pseudopotential read in
  partial core-charges read in
  partial kinetic energy density read in
  atomic valenz-charges read in
  non local Contribution for L=           2  read in
    real space projection operators read in
  non local Contribution for L=           2  read in
    real space projection operators read in
  non local Contribution for L=           0  read in
    real space projection operators read in
  non local Contribution for L=           0  read in
    real space projection operators read in
  non local Contribution for L=           1  read in
    real space projection operators read in
  non local Contribution for L=           1  read in
    real space projection operators read in
    PAW grid and wavefunctions read in
 
   number of l-projection  operators is LMAX  =           6
   number of lm-projection operators is LMMAX =          18
 
 POTCAR:    PAW_PBE Ni 02Aug2007                  
   VRHFIN =Ni:                                                                  
   LEXCH  = PE                                                                  
   EATOM  =  1077.6739 eV,   79.2068 Ry                                         
                                                                                
   TITEL  = PAW_PBE Ni 02Aug2007                                                
   LULTRA =        F    use ultrasoft PP ?                                      
   IUNSCR =        1    unscreen: 0-lin 1-nonlin 2-no                           
   RPACOR =    2.000    partial core radius                                     
   POMASS =   58.690; ZVAL   =   10.000    mass and valenz                      
   RCORE  =    2.300    outmost cutoff radius                                   
   RWIGS  =    2.430; RWIGS  =    1.286    wigner-seitz radius (au A)           
   ENMAX  =  269.532; ENMIN  =  202.149 eV                                      
   RCLOC  =    1.201    cutoff for local pot                                    
   LCOR   =        T    correct aug charges                                     
   LPAW   =        T    paw PP                                                  
   EAUG   =  544.565                                                            
   DEXC   =    0.000                                                            
   RMAX   =    2.357    core radius for proj-oper                               
   RAUG   =    1.300    factor for augmentation sphere                          
   RDEP   =    2.390    radius for radial grids                                 
   RDEPT  =    1.838    core radius for aug-charge                              
                                                                                
   Atomic configuration                                                         
    9 entries                                                                   
     n  l   j            E        occ.                                          
     1  0  0.50     -8206.4253   2.0000                                         
     2  0  0.50      -976.1748   2.0000                                         
     2  1  1.50      -839.0571   6.0000                                         
     3  0  0.50      -105.9991   2.0000                                         
     3  1  1.50       -66.4603   6.0000                                         
     3  2  2.50        -4.6458   9.0000                                         
     4  0  0.50        -4.4926   1.0000                                         
     4  1  1.50        -4.0817   0.0000                                         
     4  3  2.50        -1.3606   0.0000                                         
   Description                                                                  
     l       E           TYP  RCUT    TYP  RCUT                                 
     2     -4.6457903     23  2.300                                             
     2     -6.0063729     23  2.300                                             
     0     -4.4925590     23  2.300                                             
     0      5.0102601     23  2.300                                             
     1     -2.7211652     23  2.300                                             
     1     16.5183231     23  2.300                                             
  local pseudopotential read in
  partial core-charges read in
  partial kinetic energy density read in
  atomic valenz-charges read in
  non local Contribution for L=           2  read in
    real space projection operators read in
  non local Contribution for L=           2  read in
    real space projection operators read in
  non local Contribution for L=           0  read in
    real space projection operators read in
  non local Contribution for L=           0  read in
    real space projection operators read in
  non local Contribution for L=           1  read in
    real space projection operators read in
  non local Contribution for L=           1  read in
    real space projection operators read in
    PAW grid and wavefunctions read in
 
   number of l-projection  operators is LMAX  =           6
   number of lm-projection operators is LMMAX =          18
 
 POTCAR:    PAW_PBE H 15Jun2001                   
   VRHFIN =H: ultrasoft test                                                    
   LEXCH  = PE                                                                  
   EATOM  =    12.4884 eV,    0.9179 Ry                                         
                                                                                
   TITEL  = PAW_PBE H 15Jun2001                                                 
   LULTRA =        F    use ultrasoft PP ?                                      
   IUNSCR =        0    unscreen: 0-lin 1-nonlin 2-no                           
   RPACOR =    0.000    partial core radius                                     
   POMASS =    1.000; ZVAL   =    1.000    mass and valenz                      
   RCORE  =    1.100    outmost cutoff radius                                   
   RWIGS  =    0.700; RWIGS  =    0.370    wigner-seitz radius (au A)           
   ENMAX  =  250.000; ENMIN  =  200.000 eV                                      
   RCLOC  =    0.701    cutoff for local pot                                    
   LCOR   =        T    correct aug charges                                     
   LPAW   =        T    paw PP                                                  
   EAUG   =  400.000                                                            
   RMAX   =    1.123    core radius for proj-oper                               
   RAUG   =    1.200    factor for augmentation sphere                          
   RDEP   =    1.112    radius for radial grids                                 
   RDEPT  =    0.926    core radius for aug-charge                              
                                                                                
   Atomic configuration                                                         
    2 entries                                                                   
     n  l   j            E        occ.                                          
     1  0  0.50        -6.4927   1.0000                                         
     2  1  0.50        -3.4015   0.0000                                         
   Description                                                                  
     l       E           TYP  RCUT    TYP  RCUT                                 
     0     -6.4927494     23  1.100                                             
     0      6.8029130     23  1.100                                             
     1     -4.0817478     23  1.100                                             
  local pseudopotential read in
  atomic valenz-charges read in
  non local Contribution for L=           0  read in
    real space projection operators read in
  non local Contribution for L=           0  read in
    real space projection operators read in
  non local Contribution for L=           1  read in
    real space projection operators read in
    PAW grid and wavefunctions read in
 
   number of l-projection  operators is LMAX  =           3
   number of lm-projection operators is LMMAX =           5
 
 Optimization of the real space projectors (new method)

 maximal supplied QI-value         = 14.36
 optimisation between [QCUT,QGAM] = [ 11.92, 23.98] = [ 39.79,161.09] Ry 
 Optimized for a Real-space Cutoff    1.49 Angstroem

   l    n(q)    QCUT    max X(q) W(low)/X(q) W(high)/X(q)  e(spline) 
   2     10    11.920    66.195    0.79E-04    0.18E-03    0.24E-06
   2     10    11.920    64.643    0.81E-04    0.19E-03    0.24E-06
   0     11    11.920    95.520    0.28E-04    0.54E-04    0.18E-06
   0     11    11.920    63.403    0.27E-04    0.52E-04    0.17E-06
   1     10    11.920    19.961    0.18E-04    0.11E-03    0.23E-06
   1     10    11.920    13.289    0.25E-04    0.87E-04    0.19E-06
 Optimization of the real space projectors (new method)

 maximal supplied QI-value         = 16.25
 optimisation between [QCUT,QGAM] = [ 11.86, 23.89] = [ 39.41,159.82] Ry 
 Optimized for a Real-space Cutoff    1.49 Angstroem

   l    n(q)    QCUT    max X(q) W(low)/X(q) W(high)/X(q)  e(spline) 
   2     10    11.864    80.901    0.13E-03    0.23E-03    0.37E-06
   2     10    11.864    75.754    0.13E-03    0.23E-03    0.38E-06
   0     11    11.864    58.752    0.44E-04    0.11E-04    0.20E-06
   0     11    11.864    30.679    0.36E-04    0.10E-04    0.18E-06
   1     10    11.864    17.977    0.31E-04    0.45E-04    0.10E-06
   1     10    11.864    13.559    0.25E-04    0.37E-04    0.89E-07
 Optimization of the real space projectors (new method)

 maximal supplied QI-value         = 16.25
 optimisation between [QCUT,QGAM] = [ 11.86, 23.89] = [ 39.41,159.82] Ry 
 Optimized for a Real-space Cutoff    1.33 Angstroem

   l    n(q)    QCUT    max X(q) W(low)/X(q) W(high)/X(q)  e(spline) 
   2      9    11.864    65.824    0.22E-03    0.53E-03    0.26E-06
   2      9    11.864    61.429    0.22E-03    0.53E-03    0.26E-06
   0      9    11.864    56.174    0.21E-03    0.32E-04    0.15E-06
   0      9    11.864    31.263    0.19E-03    0.30E-04    0.14E-06
   1      9    11.864    19.828    0.63E-04    0.30E-03    0.16E-06
   1      9    11.864    15.139    0.49E-04    0.25E-03    0.13E-06
 Optimization of the real space projectors (new method)

 maximal supplied QI-value         = 16.25
 optimisation between [QCUT,QGAM] = [ 11.86, 23.89] = [ 39.41,159.82] Ry 
 Optimized for a Real-space Cutoff    1.49 Angstroem

   l    n(q)    QCUT    max X(q) W(low)/X(q) W(high)/X(q)  e(spline) 
   2     10    11.864     4.610    0.10E-03    0.20E-03    0.29E-06
   2     10    11.864     8.522    0.17E-03    0.33E-03    0.50E-06
   0     11    11.864    51.609    0.52E-04    0.55E-04    0.33E-06
   0     11    11.864    27.747    0.46E-04    0.52E-04    0.31E-06
   1     10    11.864    20.408    0.54E-04    0.25E-04    0.21E-06
   1     10    11.864    13.425    0.48E-04    0.22E-04    0.18E-06
 Optimization of the real space projectors (new method)

 maximal supplied QI-value         = 16.25
 optimisation between [QCUT,QGAM] = [ 11.86, 23.89] = [ 39.41,159.82] Ry 
 Optimized for a Real-space Cutoff    1.33 Angstroem

   l    n(q)    QCUT    max X(q) W(low)/X(q) W(high)/X(q)  e(spline) 
   2      9    11.864    60.317    0.21E-03    0.51E-03    0.25E-06
   2      9    11.864    55.921    0.21E-03    0.51E-03    0.26E-06
   0      9    11.864    51.690    0.22E-03    0.30E-04    0.17E-06
   0      9    11.864    30.015    0.20E-03    0.28E-04    0.15E-06
   1      9    11.864    18.849    0.76E-04    0.33E-03    0.17E-06
   1      9    11.864    14.624    0.60E-04    0.28E-03    0.15E-06
 Optimization of the real space projectors (new method)

 maximal supplied QI-value         = 34.20
 optimisation between [QCUT,QGAM] = [ 11.97, 23.94] = [ 40.13,160.53] Ry 
 Optimized for a Real-space Cutoff    1.18 Angstroem

   l    n(q)    QCUT    max X(q) W(low)/X(q) W(high)/X(q)  e(spline) 
   0      8    11.971    19.460    0.15E-03    0.31E-03    0.25E-06
   0      8    11.971    12.209    0.13E-03    0.29E-03    0.25E-06
   1      8    11.971     4.655    0.22E-03    0.24E-03    0.21E-06
  PAW_PBE Pt 04Feb2005                  :
 energy of atom  1       EATOM= -729.1176
 kinetic energy error for atom=    0.0021 (will be added to EATOM!!)
  PAW_PBE Fe 06Sep2000                  :
 energy of atom  2       EATOM= -594.3153
 kinetic energy error for atom=    0.0024 (will be added to EATOM!!)
  PAW_PBE Co 02Aug2007                  :
 energy of atom  3       EATOM= -813.3670
 kinetic energy error for atom=    0.0026 (will be added to EATOM!!)
  PAW_PBE Cu 22Jun2005                  :
 energy of atom  4       EATOM=-1390.9808
 kinetic energy error for atom=    0.0036 (will be added to EATOM!!)
  PAW_PBE Ni 02Aug2007                  :
 energy of atom  5       EATOM=-1077.6739
 kinetic energy error for atom=    0.0027 (will be added to EATOM!!)
  PAW_PBE H 15Jun2001                   :
 energy of atom  6       EATOM=  -12.4884
 kinetic energy error for atom=    0.0008 (will be added to EATOM!!)
 
 
 POSCAR: 10.76                                   
  positions in direct lattice
  velocities in cartesian coordinates
 exchange correlation table for  LEXCH =        8
   RHO(1)=    0.500       N(1)  =     2000
   RHO(2)=  100.500       N(2)  =     4000
 


--------------------------------------------------------------------------------------------------------


 ion  position               nearest neighbor table
   1  0.786  0.880  0.316-  49 2.61  28 2.63  59 2.64  19 2.68  61 2.70  33 2.71  29 2.72  60 2.72
                            11 2.75   2 2.77   4 2.82  12 2.84
   2  0.042  0.882  0.314-  79 2.55  77 2.60  60 2.67  28 2.67  30 2.68  52 2.71  33 2.71  22 2.73
                             1 2.77   6 2.79   4 2.86  16 2.93
   3  0.279  0.381  0.318-  64 2.56  39 2.61  31 2.64  33 2.64  68 2.70  19 2.75  43 2.76  30 2.76
                             5 2.76  13 2.79  25 2.83  18 2.87
   4  0.871  0.964  0.422-  17 2.65  11 2.67   9 2.70  12 2.73   6 2.74  16 2.76  60 2.80   1 2.82
                             2 2.86
   5  0.120  0.463  0.424-  16 2.65  12 2.66   7 2.66  10 2.67  39 2.70  33 2.71  25 2.72  13 2.74
                             3 2.76
   6  0.125  0.964  0.420-   8 2.65  10 2.68   9 2.71  14 2.72   4 2.74  16 2.76  52 2.78   2 2.79
                            22 2.85
   7  0.874  0.459  0.423-   9 2.66  15 2.66   5 2.66  39 2.67  10 2.68  12 2.68  27 2.72  75 2.72
                            29 2.77
   8  0.374  0.960  0.418-  43 2.59   6 2.65  14 2.66  52 2.67  27 2.67  13 2.68  10 2.69  11 2.70
                            61 2.70
   9  0.872  0.214  0.417-  81 1.80  75 2.65   7 2.66  15 2.66  17 2.68   4 2.70  60 2.70   6 2.71
                            10 2.72  22 2.80
  10  0.125  0.212  0.419-  13 2.66  39 2.66   5 2.67   6 2.68   7 2.68   8 2.69  43 2.71   9 2.72
                            22 2.76
  11  0.624  0.960  0.420-   4 2.67  12 2.68  13 2.68  27 2.69  17 2.69   8 2.70   1 2.75  61 2.80
                            19 2.81
  12  0.872  0.710  0.423-   5 2.66  27 2.68  11 2.68   7 2.68  33 2.69  16 2.72   4 2.73  29 2.76
                             1 2.84
  13  0.374  0.209  0.421-  10 2.66   8 2.68  11 2.68  17 2.70  25 2.71   5 2.74  43 2.74   3 2.79
                            19 2.80
  14  0.378  0.711  0.420-  27 2.63  44 2.66   8 2.66  15 2.67  25 2.71   6 2.72  52 2.72  16 2.73
                            30 2.75
  15  0.626  0.462  0.420-  81 1.89   9 2.66   7 2.66  44 2.67  27 2.67  14 2.67  75 2.70  17 2.71
                            25 2.71  18 2.75
  16  0.126  0.707  0.425-   5 2.65  25 2.66  33 2.70  12 2.72  14 2.73   6 2.76   4 2.76  30 2.82
                             2 2.93
  17  0.624  0.211  0.419-  81 1.90   4 2.65   9 2.68  25 2.69  11 2.69  13 2.70  15 2.71  18 2.74
                            60 2.76  19 2.84
  18  0.548  0.376  0.316-  67 2.56  68 2.64  60 2.65  26 2.66  75 2.67  44 2.69  17 2.74  15 2.75
                            30 2.76  19 2.78  25 2.85   3 2.87
  19  0.534  0.125  0.314-  80 2.55  68 2.57  59 2.60  43 2.60   1 2.68  61 2.69   3 2.75  18 2.78
                            13 2.80  11 2.81  60 2.81  17 2.84
  20  0.548  0.123  0.044-  57 2.55  37 2.55  48 2.57  62 2.68  63 2.73  47 2.75  34 2.75  45 2.76
                            56 2.76
  21  0.119  0.460  0.129-  40 2.52  36 2.52  47 2.52  42 2.60  64 2.63  69 2.65  70 2.68  50 2.68
                            31 2.71  58 2.75  57 2.76  74 2.79
  22  0.044  0.136  0.313-  65 2.53  55 2.54  77 2.57  43 2.62  39 2.63  75 2.68   2 2.73  60 2.74
                            10 2.76  52 2.77   9 2.80   6 2.85  31 3.40
  23  0.041  0.131  0.035-  70 2.57  41 2.60  40 2.62  45 2.66  76 2.67  62 2.67  24 2.69  35 2.79
                            53 2.85
  24  0.131  0.958  0.133-  79 2.51  77 2.55  35 2.56  53 2.58  55 2.59  70 2.66  38 2.68  58 2.69
                            23 2.69  73 2.69  66 2.75  41 2.78
  25  0.374  0.461  0.422-  16 2.66  17 2.69  15 2.71  13 2.71  14 2.71   5 2.72  30 2.81   3 2.83
                            18 2.85
  26  0.455  0.547  0.219-  73 2.50  74 2.54  51 2.56  79 2.64  30 2.65  18 2.66  64 2.69  78 2.70
                            32 2.71  68 2.72  44 2.73  67 2.78
  27  0.622  0.712  0.421-  14 2.63  15 2.67   8 2.67  12 2.68  44 2.68  11 2.69   7 2.72  61 2.74
                            29 2.78
  28  0.956  0.787  0.221-  58 2.56  66 2.58  50 2.58  42 2.62   1 2.63  49 2.64   2 2.67  64 2.68
                            33 2.69  59 2.77  79 2.86  77 2.87
  29  0.795  0.623  0.318-  42 2.55  39 2.58  32 2.62  75 2.62  49 2.67  33 2.69  44 2.71   1 2.72
                            61 2.72  12 2.76   7 2.77  27 2.78
  30  0.290  0.632  0.317-  79 2.56  64 2.60  52 2.65  26 2.65   2 2.68  44 2.69  33 2.69  14 2.75
                             3 2.76  18 2.76  25 2.81  16 2.82
  31  0.201  0.279  0.225-  70 2.51  43 2.58  55 2.59  57 2.59  65 2.60   3 2.64  39 2.65  21 2.71
                            80 2.75  42 2.76  68 2.84  64 2.87  22 3.40
  32  0.705  0.551  0.221-  54 2.54  69 2.56  51 2.58  49 2.61  29 2.62  78 2.65  42 2.65  65 2.67
                            44 2.68  75 2.69  26 2.71  67 2.74
  33  0.040  0.632  0.323-   3 2.64  30 2.69  29 2.69  28 2.69  64 2.69  12 2.69  39 2.69  16 2.70
                             1 2.71   5 2.71   2 2.71  42 2.72
  34  0.795  0.861  0.046-  50 2.37  48 2.50  66 2.51  36 2.59  71 2.61  63 2.64  20 2.75  62 2.83
                            35 2.84
  35  0.058  0.864  0.041-  58 2.53  24 2.56  36 2.57  72 2.57  66 2.62  53 2.71  23 2.79  62 2.80
                            34 2.84
  36  0.046  0.632  0.040-  21 2.52  35 2.57  58 2.57  34 2.59  50 2.60  72 2.69  47 2.69  71 2.80
                            40 2.81
  37  0.628  0.225  0.130-  67 2.51  51 2.51  56 2.52  74 2.55  20 2.55  68 2.56  59 2.56  41 2.58
                            62 2.59  66 2.72  57 2.81  48 3.01
  38  0.383  0.954  0.131-  53 2.46  80 2.47  45 2.47  78 2.53  63 2.55  73 2.57  55 2.57  48 2.58
                            54 2.59  24 2.68  57 2.68  70 2.73
  39  0.035  0.384  0.323-  29 2.58   3 2.61  75 2.63  22 2.63  42 2.64  31 2.65  10 2.66   7 2.67
                            33 2.69   5 2.70  65 2.73  43 2.85
  40  0.026  0.381  0.040-  69 2.42  21 2.52  76 2.55  71 2.56  70 2.56  23 2.62  36 2.81  45 2.87
                            47 2.92
  41  0.872  0.215  0.130-  76 2.45  77 2.51  65 2.52  67 2.53  62 2.57  37 2.58  23 2.60  69 2.61
                            51 2.63  66 2.70  70 2.70  24 2.78
  42  0.955  0.544  0.224-  50 2.54  29 2.55  21 2.60  69 2.60  28 2.62  39 2.64  32 2.65  65 2.67
                            49 2.67  64 2.71  33 2.72  31 2.76
  43  0.297  0.116  0.320-  55 2.52  31 2.58   8 2.59  52 2.60  19 2.60  61 2.61  22 2.62  80 2.63
                            10 2.71  13 2.74   3 2.76  39 2.85
  44  0.541  0.629  0.321-  61 2.62  78 2.62  52 2.63  14 2.66  15 2.67  32 2.68  27 2.68  18 2.69
                            30 2.69  75 2.69  29 2.71  26 2.73
  45  0.295  0.116  0.043-  70 2.47  38 2.47  57 2.57  53 2.60  23 2.66  63 2.67  20 2.76  40 2.87
                            47 2.87
  46  0.550  0.625  0.046-  51 2.38  73 2.40  54 2.40  71 2.58  53 2.61  63 2.63  76 2.64  56 2.66
                            72 2.70
  47  0.297  0.382  0.042-  74 2.38  21 2.52  57 2.61  72 2.64  56 2.64  36 2.69  20 2.75  45 2.87
                            40 2.92
  48  0.625  0.947  0.134-  49 2.39  80 2.48  54 2.49  34 2.50  63 2.55  59 2.56  20 2.57  38 2.58
                            50 2.61  57 2.72  66 2.76  37 3.01
  49  0.707  0.793  0.220-  48 2.39  50 2.47  54 2.49  80 2.59   1 2.61  32 2.61  61 2.64  28 2.64
                            78 2.66  42 2.67  29 2.67  59 2.77
  50  0.864  0.703  0.130-  34 2.37  71 2.41  49 2.47  54 2.50  42 2.54  28 2.58  69 2.59  36 2.60
                            48 2.61  21 2.68  66 2.86
  51  0.627  0.459  0.128-  46 2.38  76 2.45  56 2.51  37 2.51  26 2.56  32 2.58  67 2.63  41 2.63
                            69 2.65  73 2.66  74 2.67  54 2.76
  52  0.298  0.874  0.318-  55 2.43  79 2.52  78 2.52  61 2.59  43 2.60  44 2.63  30 2.65   8 2.67
                             2 2.71  14 2.72  22 2.77   6 2.78
  53  0.307  0.869  0.043-  73 2.41  38 2.46  24 2.58  63 2.58  45 2.60  46 2.61  72 2.65  35 2.71
                            23 2.85
  54  0.626  0.716  0.129-  46 2.40  71 2.46  63 2.48  49 2.49  48 2.49  50 2.50  32 2.54  38 2.59
                            73 2.60  78 2.62  69 2.73  51 2.76
  55  0.226  0.027  0.228-  52 2.43  78 2.49  43 2.52  79 2.52  22 2.54  80 2.55  38 2.57  24 2.59
                            31 2.59  70 2.73  77 2.78  65 2.95
  56  0.542  0.382  0.037-  74 2.50  51 2.51  37 2.52  72 2.64  47 2.64  76 2.65  46 2.66  20 2.76
                            62 2.76
  57  0.377  0.206  0.134-  68 2.47  20 2.55  80 2.55  45 2.57  31 2.59  47 2.61  70 2.68  74 2.68
                            38 2.68  48 2.72  21 2.76  37 2.81
  58  0.139  0.705  0.134-  72 2.45  64 2.50  35 2.53  79 2.56  28 2.56  36 2.57  74 2.67  24 2.69
                            73 2.71  21 2.75
  59  0.704  0.051  0.220-  66 2.52  37 2.56  48 2.56  19 2.60  60 2.61  68 2.63   1 2.64  67 2.65
                            77 2.72  80 2.74  49 2.77  28 2.77
  60  0.793  0.129  0.316-  67 2.52  77 2.57  59 2.61  18 2.65   2 2.67   9 2.70  75 2.71   1 2.72
                            22 2.74  17 2.76   4 2.80  19 2.81
  61  0.539  0.873  0.317-  78 2.48  80 2.52  52 2.59  43 2.61  44 2.62  49 2.64  19 2.69   1 2.70
                             8 2.70  29 2.72  27 2.74  11 2.80
  62  0.796  0.123  0.038-  66 2.52  41 2.57  37 2.59  23 2.67  20 2.68  76 2.70  56 2.76  35 2.80
                            34 2.83
  63  0.545  0.871  0.038-  54 2.48  38 2.55  48 2.55  53 2.58  46 2.63  34 2.64  45 2.67  71 2.67
                            20 2.73
  64  0.208  0.542  0.224-  58 2.50   3 2.56  30 2.60  21 2.63  74 2.66  28 2.68  68 2.68  26 2.69
                            33 2.69  42 2.71  79 2.79  31 2.87
  65  0.950  0.299  0.222-  69 2.51  41 2.52  22 2.53  67 2.56  31 2.60  77 2.60  75 2.61  70 2.62
                            42 2.67  32 2.67  39 2.73  55 2.95
  66  0.872  0.965  0.131-  34 2.51  59 2.52  62 2.52  77 2.57  28 2.58  35 2.62  41 2.70  37 2.72
                            24 2.75  48 2.76  50 2.86
  67  0.716  0.291  0.224-  37 2.51  60 2.52  41 2.53  18 2.56  77 2.56  65 2.56  75 2.62  51 2.63
                            59 2.65  32 2.74  68 2.77  26 2.78
  68  0.457  0.293  0.221-  57 2.47  74 2.52  37 2.56  19 2.57  59 2.63  18 2.64  64 2.68   3 2.70
                            26 2.72  67 2.77  80 2.82  31 2.84
  69  0.875  0.457  0.129-  40 2.42  71 2.45  76 2.46  65 2.51  32 2.56  50 2.59  42 2.60  41 2.61
                            21 2.65  51 2.65  70 2.71  54 2.73
  70  0.127  0.207  0.130-  45 2.47  31 2.51  40 2.56  23 2.57  65 2.62  24 2.66  21 2.68  57 2.68
                            41 2.70  69 2.71  38 2.73  55 2.73
  71  0.791  0.621  0.042-  50 2.41  69 2.45  54 2.46  40 2.56  46 2.58  34 2.61  76 2.63  63 2.67
                            36 2.80
  72  0.298  0.627  0.045-  74 2.45  58 2.45  73 2.48  35 2.57  47 2.64  56 2.64  53 2.65  36 2.69
                            46 2.70
  73  0.386  0.713  0.130-  46 2.40  53 2.41  72 2.48  26 2.50  78 2.55  38 2.57  54 2.60  79 2.62
                            51 2.66  24 2.69  58 2.71  74 2.83
  74  0.382  0.452  0.128-  47 2.38  72 2.45  56 2.50  68 2.52  26 2.54  37 2.55  64 2.66  51 2.67
                            58 2.67  57 2.68  21 2.79  73 2.83
  75  0.793  0.381  0.320-  65 2.61  67 2.62  29 2.62  39 2.63   9 2.65  18 2.67  22 2.68  32 2.69
                            44 2.69  15 2.70  60 2.71   7 2.72
  76  0.791  0.377  0.042-  51 2.45  41 2.45  69 2.46  40 2.55  71 2.63  46 2.64  56 2.65  23 2.67
                            62 2.70
  77  0.955  0.054  0.222-  41 2.51  24 2.55  67 2.56  22 2.57  60 2.57  66 2.57   2 2.60  65 2.60
                            59 2.72  79 2.78  55 2.78  28 2.87
  78  0.459  0.796  0.225-  61 2.48  55 2.49  80 2.52  52 2.52  38 2.53  73 2.55  79 2.61  44 2.62
                            54 2.62  32 2.65  49 2.66  26 2.70
  79  0.216  0.798  0.225-  24 2.51  52 2.52  55 2.52   2 2.55  58 2.56  30 2.56  78 2.61  73 2.62
                            26 2.64  77 2.78  64 2.79  28 2.86
  80  0.462  0.029  0.223-  38 2.47  48 2.48  78 2.52  61 2.52  55 2.55  19 2.55  57 2.55  49 2.59
                            43 2.63  59 2.74  31 2.75  68 2.82
  81  0.716  0.290  0.466-   9 1.80  15 1.89  17 1.90
 
  LATTYP: Found a hexagonal cell.
 ALAT       =    10.7600002289
 C/A-ratio  =     2.0446096219
  
  Lattice vectors:
  
 A1 = (   5.3800001145,  -9.3184335429,   0.0000000000)
 A2 = ( -10.7600002289,   0.0000000000,   0.0000000000)
 A3 = (   0.0000000000,   0.0000000000, -22.0000000000)


Analysis of symmetry for initial positions (statically):
=====================================================================
 Subroutine PRICEL returns:
 Original cell was already a primitive cell.
 

 Routine SETGRP: Setting up the symmetry group for a 
 hexagonal supercell.


 Subroutine GETGRP returns: Found  1 space group operations
 (whereof  1 operations were pure point group operations)
 out of a pool of 24 trial point group operations.


The static configuration has the point symmetry C_1 .


Analysis of symmetry for dynamics (positions and initial velocities):
=====================================================================
 Subroutine PRICEL returns:
 Original cell was already a primitive cell.
 

 Routine SETGRP: Setting up the symmetry group for a 
 hexagonal supercell.


 Subroutine GETGRP returns: Found  1 space group operations
 (whereof  1 operations were pure point group operations)
 out of a pool of 24 trial point group operations.


The dynamic configuration has the point symmetry C_1 .


Analysis of constrained symmetry for selective dynamics:
=====================================================================
 Subroutine PRICEL returns:
 Original cell was already a primitive cell.
 

 Routine SETGRP: Setting up the symmetry group for a 
 hexagonal supercell.


 Subroutine GETGRP returns: Found  1 space group operations
 (whereof  1 operations were pure point group operations)
 out of a pool of 24 trial point group operations.


The constrained configuration has the point symmetry C_1 .


Analysis of structural, dynamic, and magnetic symmetry:
=====================================================================
 Subroutine PRICEL returns:
 Original cell was already a primitive cell.
 

 Routine SETGRP: Setting up the symmetry group for a 
 hexagonal supercell.


 Subroutine GETGRP returns: Found  1 space group operations
 (whereof  1 operations were pure point group operations)
 out of a pool of 24 trial point group operations.


The magnetic configuration has the point symmetry C_1 .


 Subroutine INISYM returns: Found  1 space group operations
 (whereof  1 operations are pure point group operations),
 and found     1 'primitive' translations

 
 
 KPOINTS: mesh auto                               

Automatic generation of k-mesh.
Space group operators:
 irot       det(A)        alpha          n_x          n_y          n_z        tau_x        tau_y        tau_z
    1     1.000000     0.000001     1.000000     0.000000     0.000000     0.000000     0.000000     0.000000
 
 Subroutine IBZKPT returns following result:
 ===========================================
 
 Found      4 irreducible k-points:
 
 Following reciprocal coordinates:
            Coordinates               Weight
  0.000000  0.000000  0.000000      1.000000
  0.500000  0.000000  0.000000      1.000000
  0.000000  0.500000  0.000000      1.000000
  0.500000  0.500000  0.000000      1.000000
 
 Following cartesian coordinates:
            Coordinates               Weight
  0.000000  0.000000  0.000000      1.000000
  0.046468 -0.026829  0.000000      1.000000
  0.000000  0.053657  0.000000      1.000000
  0.046468  0.026829  0.000000      1.000000
 


--------------------------------------------------------------------------------------------------------




 Dimension of arrays:
   k-points           NKPTS =      4   k-points in BZ     NKDIM =      4   number of bands    NBANDS=    588
   number of dos      NEDOS =    301   number of ions     NIONS =     81
   non local maximal  LDIM  =      6   non local SUM 2l+1 LMDIM =     18
   total plane-waves  NPLWV = ******
   max r-space proj   IRMAX =   7517   max aug-charges    IRDMAX=  32744
   dimension x,y,z NGX =    84 NGY =   84 NGZ =  168
   dimension x,y,z NGXF=   168 NGYF=  168 NGZF=  336
   support grid    NGXF=   168 NGYF=  168 NGZF=  336
   ions per type =              32  13  10  13  12   1
   NGX,Y,Z   is equivalent  to a cutoff of  12.98, 12.98, 12.70 a.u.
   NGXF,Y,Z  is equivalent  to a cutoff of  25.96, 25.96, 25.39 a.u.

 SYSTEM =  Pt111                                   
 POSCAR =  10.76                                   

 Startparameter for this run:
   NWRITE =      2    write-flag & timer
   PREC   = accura    normal or accurate (medium, high low for compatibility)
   ISTART =      0    job   : 0-new  1-cont  2-samecut
   ICHARG =      2    charge: 1-file 2-atom 10-const
   ISPIN  =      2    spin polarized calculation?
   LNONCOLLINEAR =      F non collinear calculations
   LSORBIT =      F    spin-orbit coupling
   INIWAV =      1    electr: 0-lowe 1-rand  2-diag
   LASPH  =      F    aspherical Exc in radial PAW
   METAGGA=      F    non-selfconsistent MetaGGA calc.

 Electronic Relaxation 1
   ENCUT  =  550.0 eV  40.42 Ry    6.36 a.u.  20.58 20.58 42.07*2*pi/ulx,y,z
   ENINI  =  550.0     initial cutoff
   ENAUG  =  587.0 eV  augmentation charge cutoff
   NELM   =    200;   NELMIN=  2; NELMDL= -5     # of ELM steps 
   EDIFF  = 0.1E-04   stopping-criterion for ELM
   LREAL  =      T    real-space projection
   NLSPLINE    = F    spline interpolate recip. space projectors
   LCOMPAT=      F    compatible to vasp.4.4
   GGA_COMPAT  = T    GGA compatible to vasp.4.4-vasp.4.6
   LMAXPAW     = -100 max onsite density
   LMAXMIX     =    2 max onsite mixed and CHGCAR
   VOSKOWN=      0    Vosko Wilk Nusair interpolation
   ROPT   =   -0.00025  -0.00025  -0.00025  -0.00025
   ROPT   =   -0.00025  -0.00025
 Ionic relaxation
   EDIFFG = -.5E-01   stopping-criterion for IOM
   NSW    =    300    number of steps for IOM
   NBLOCK =      1;   KBLOCK =    300    inner block; outer block 
   IBRION =      2    ionic relax: 0-MD 1-quasi-New 2-CG
   NFREE  =      1    steps in history (QN), initial steepest desc. (CG)
   ISIF   =      2    stress and relaxation
   IWAVPR =     11    prediction:  0-non 1-charg 2-wave 3-comb
   ISYM   =      2    0-nonsym 1-usesym 2-fastsym
   LCORR  =      T    Harris-Foulkes like correction to forces

   POTIM  = 0.5000    time-step for ionic-motion
   TEIN   =    0.0    initial temperature
   TEBEG  =    0.0;   TEEND  =   0.0 temperature during run
   SMASS  =  -3.00    Nose mass-parameter (am)
   estimated Nose-frequenzy (Omega)   =  0.10E-29 period in steps =****** mass=  -0.265E-26a.u.
   SCALEE = 1.0000    scale energy and forces
   NPACO  =    256;   APACO  = 16.0  distance and # of slots for P.C.
   PSTRESS=    0.0 pullay stress

  Mass of Ions in am
   POMASS = 195.08 55.85 58.93 63.55 58.69  1.00
  Ionic Valenz
   ZVAL   =  10.00  8.00  9.00 11.00 10.00  1.00
  Atomic Wigner-Seitz radii
   RWIGS  =  -1.00 -1.00 -1.00 -1.00 -1.00 -1.00
  virtual crystal weights 
   VCA    =   1.00  1.00  1.00  1.00  1.00  1.00
   NELECT =     778.0000    total number of electrons
   NUPDOWN=      -1.0000    fix difference up-down

 DOS related values:
   EMIN   =  10.00;   EMAX   =-10.00  energy-range for DOS
   EFERMI =   0.00
   ISMEAR =     1;   SIGMA  =   0.10  broadening in eV -4-tet -1-fermi 0-gaus

 Electronic relaxation 2 (details)
   IALGO  =     68    algorithm
   LDIAG  =      T    sub-space diagonalisation (order eigenvalues)
   LSUBROT=      F    optimize rotation matrix (better conditioning)
   TURBO    =      0    0=normal 1=particle mesh
   IRESTART =      0    0=no restart 2=restart with 2 vectors
   NREBOOT  =      0    no. of reboots
   NMIN     =      0    reboot dimension
   EREF     =   0.00    reference energy to select bands
   IMIX   =      4    mixing-type and parameters
     AMIX     =   0.40;   BMIX     =  1.00
     AMIX_MAG =   1.60;   BMIX_MAG =  1.00
     AMIN     =   0.10
     WC   =   100.;   INIMIX=   1;  MIXPRE=   1;  MAXMIX= -45

 Intra band minimization:
   WEIMIN = 0.0010     energy-eigenvalue tresh-hold
   EBREAK =  0.43E-08  absolut break condition
   DEPER  =   0.30     relativ break condition  

   TIME   =   0.40     timestep for ELM

  volume/ion in A,a.u.               =      27.23       183.78
  Fermi-wavevector in a.u.,A,eV,Ry     =   1.156668  2.185786 18.202976  1.337881
  Thomas-Fermi vector in A             =   2.293286
 
 Write flags
   LWAVE        =      F    write WAVECAR
   LDOWNSAMPLE  =      F    k-point downsampling of WAVECAR
   LCHARG       =      F    write CHGCAR
   LVTOT        =      F    write LOCPOT, total local potential
   LVHAR        =      F    write LOCPOT, Hartree potential only
   LELF         =      F    write electronic localiz. function (ELF)
   LORBIT       =      0    0 simple, 1 ext, 2 COOP (PROOUT), +10 PAW based schemes


 Dipole corrections
   LMONO  =      F    monopole corrections only (constant potential shift)
   LDIPOL =      F    correct potential (dipole corrections)
   IDIPOL =      0    1-x, 2-y, 3-z, 4-all directions 
   EPSILON=  1.0000000 bulk dielectric constant

 Exchange correlation treatment:
   GGA     =    --    GGA type
   LEXCH   =     8    internal setting for exchange type
   VOSKOWN=      0    Vosko Wilk Nusair interpolation
   LHFCALC =     F    Hartree Fock is set to
   LHFONE  =     F    Hartree Fock one center treatment
   AEXX    =    0.0000 exact exchange contribution

 Linear response parameters
   LEPSILON=     F    determine dielectric tensor
   LRPA    =     F    only Hartree local field effects (RPA)
   LNABLA  =     F    use nabla operator in PAW spheres
   LVEL    =     F    velocity operator in full k-point grid
   LINTERFAST=   F  fast interpolation
   KINTER  =     0    interpolate to denser k-point grid
   CSHIFT  =0.1000    complex shift for real part using Kramers Kronig
   OMEGAMAX=  -1.0    maximum frequency
   DEG_THRESHOLD= 0.2000000E-02 threshold for treating states as degnerate
   RTIME   =   -0.100 relaxation time in fs
  (WPLASMAI=    0.000 imaginary part of plasma frequency in eV, 0.658/RTIME)
   DFIELD  = 0.0000000 0.0000000 0.0000000 field for delta impulse in time
 
 Orbital magnetization related:
   ORBITALMAG=     F  switch on orbital magnetization
   LCHIMAG   =     F  perturbation theory with respect to B field
   DQ        =  0.001000  dq finite difference perturbation B field
   LLRAUG    =     F  two centre corrections for induced B field



--------------------------------------------------------------------------------------------------------


 conjugate gradient relaxation of ions
   using selective dynamics as specified on POSCAR
 charge density and potential will be updated during run
 spin polarized calculation
 RMM-DIIS sequential band-by-band and
  variant of blocked Davidson during initial phase
 perform sub-space diagonalisation
    before iterative eigenvector-optimisation
 modified Broyden-mixing scheme, WC =      100.0
 initial mixing is a Kerker type mixing with AMIX =  0.4000 and BMIX =      1.0000
 Hartree-type preconditioning will be used
 using additional bands          199
 real space projection scheme for non local part
 use partial core corrections
 calculate Harris-corrections to forces 
   (improved forces if not selfconsistent)
 use gradient corrections 
 use of overlap-Matrix (Vanderbilt PP)
 Methfessel and Paxton  Order N= 1 SIGMA  =   0.10


--------------------------------------------------------------------------------------------------------


  energy-cutoff  :      550.00
  volume of cell :     2205.86
      direct lattice vectors                 reciprocal lattice vectors
    10.760000229  0.000000000  0.000000000     0.092936801 -0.053657087  0.000000000
     5.380000114  9.318433543  0.000000000     0.000000000  0.107314174  0.000000000
     0.000000000  0.000000000 22.000000000     0.000000000  0.000000000  0.045454545

  length of vectors
    10.760000229 10.760000229 22.000000000     0.107314174  0.107314174  0.045454545


 
 k-points in units of 2pi/SCALE and weight: mesh auto                               
   0.00000000  0.00000000  0.00000000       0.250
   0.04646840 -0.02682854  0.00000000       0.250
   0.00000000  0.05365709  0.00000000       0.250
   0.04646840  0.02682854  0.00000000       0.250
 
 k-points in reciprocal lattice and weights: mesh auto                               
   0.00000000  0.00000000  0.00000000       0.250
   0.50000000  0.00000000  0.00000000       0.250
   0.00000000  0.50000000  0.00000000       0.250
   0.50000000  0.50000000  0.00000000       0.250
 
 position of ions in fractional coordinates (direct lattice) 
   0.78630364  0.87985516  0.31579062
   0.04224145  0.88241600  0.31447087
   0.27901334  0.38063736  0.31781889
   0.87059820  0.96425044  0.42229538
   0.11985466  0.46347373  0.42381962
   0.12534141  0.96365774  0.42039088
   0.87435511  0.45921883  0.42339424
   0.37365696  0.96026939  0.41753756
   0.87155940  0.21408433  0.41720951
   0.12547606  0.21244857  0.41934278
   0.62422563  0.96044136  0.42042077
   0.87200071  0.70988016  0.42286043
   0.37417258  0.20904536  0.42138655
   0.37802308  0.71127443  0.42019954
   0.62568644  0.46188242  0.41983128
   0.12633321  0.70689834  0.42512744
   0.62399740  0.21084321  0.41900992
   0.54776837  0.37585151  0.31592551
   0.53367310  0.12508775  0.31375184
   0.54792673  0.12328922  0.04383544
   0.11934534  0.45972459  0.12874496
   0.04423495  0.13553346  0.31339626
   0.04080409  0.13114989  0.03536365
   0.13130448  0.95799902  0.13303643
   0.37415327  0.46114175  0.42243279
   0.45548595  0.54686581  0.21920607
   0.62191861  0.71206042  0.42107375
   0.95569127  0.78735065  0.22050316
   0.79499587  0.62310480  0.31818313
   0.28974496  0.63167392  0.31731182
   0.20123751  0.27885537  0.22539603
   0.70531330  0.55071706  0.22107616
   0.04021377  0.63182323  0.32341881
   0.79547831  0.86112383  0.04571520
   0.05752126  0.86417890  0.04095355
   0.04560842  0.63181793  0.04035269
   0.62783056  0.22534483  0.13048248
   0.38256550  0.95351772  0.13142638
   0.03521903  0.38395190  0.32275966
   0.02606154  0.38108859  0.04031026
   0.87237117  0.21512876  0.12980204
   0.95473355  0.54429733  0.22390732
   0.29689872  0.11600876  0.32000987
   0.54070692  0.62864430  0.32103635
   0.29497516  0.11635164  0.04266773
   0.54978575  0.62534505  0.04613061
   0.29695661  0.38236522  0.04225645
   0.62494582  0.94748125  0.13365829
   0.70737833  0.79257412  0.22040958
   0.86436375  0.70296060  0.12998592
   0.62697878  0.45925237  0.12844896
   0.29789209  0.87406327  0.31758793
   0.30717798  0.86850230  0.04269928
   0.62598466  0.71583948  0.12941889
   0.22636977  0.02657626  0.22776586
   0.54227868  0.38236495  0.03729113
   0.37702362  0.20555691  0.13422710
   0.13865409  0.70465584  0.13379824
   0.70443847  0.05100720  0.22039029
   0.79292857  0.12924932  0.31584784
   0.53873159  0.87286112  0.31655115
   0.79646401  0.12292985  0.03752709
   0.54537813  0.87134059  0.03811632
   0.20799686  0.54236125  0.22387311
   0.95025177  0.29885657  0.22184935
   0.87213940  0.96454459  0.13055765
   0.71606081  0.29079466  0.22408721
   0.45720633  0.29314346  0.22115087
   0.87466671  0.45688038  0.12942461
   0.12748153  0.20654114  0.12968723
   0.79120473  0.62110974  0.04224622
   0.29782181  0.62682596  0.04505060
   0.38631574  0.71285295  0.13020276
   0.38227049  0.45188866  0.12824332
   0.79281427  0.38079923  0.31974615
   0.79144401  0.37652223  0.04177987
   0.95541234  0.05424527  0.22153844
   0.45873218  0.79628882  0.22538547
   0.21584487  0.79782265  0.22481112
   0.46163445  0.02868030  0.22280218
   0.71623504  0.29046847  0.46576459
 
 position of ions in cartesian coordinates  (Angst):
  13.19424822  8.19887186  6.94739367
   5.20191625  8.22273487  6.91835920
   5.05001263  3.54694393  6.99201568
  14.55530436  8.98530365  9.29049844
   3.78312494  4.31884917  9.32403160
   6.53315229  8.97978059  9.24859929
  11.87865858  4.27920019  9.31467326
   9.18679843  8.94820646  9.18582643
  10.52975302  1.99493057  9.17860932
   2.49309574  1.97968788  9.22554119
  11.88384260  8.94980901  9.24925697
  13.20188321  6.61497109  9.30292954
   5.15076115  1.94797528  9.27050407
   7.89418501  6.62796355  9.24438998
   9.21731369  4.30402065  9.23628810
   5.16245853  6.58718519  9.35280366
   7.84854866  1.96472843  9.21821827
   7.91606892  3.50234732  6.95036118
   6.41529472  1.16562184  6.90254055
   6.55898775  1.14886237  0.96437977
   3.75747418  4.28391300  2.83238908
   1.20513812  1.26295949  6.89471779
   1.14463842  1.22211154  0.77800032
   6.56687105  8.92705020  2.92680150
   6.50683193  4.29711880  9.29352134
   7.84316702  5.09593270  4.82253351
  10.52272949  6.63528772  9.26362240
  14.51918494  7.33687474  4.85106957
  11.90645966  5.80636069  7.00002893
   6.51606159  5.88621141  6.98086013
   3.66555757  2.59849521  4.95871257
  10.55202913  5.13182036  4.86367551
   3.83190924  5.88760283  7.11521375
  13.19219308  8.02432517  1.00573441
   5.26821132  8.05279369  0.90097800
   3.88992717  5.88755336  0.88775920
   7.96781219  2.09986084  2.87061459
   9.24633038  8.88529155  2.89138037
   2.44461807  3.57783030  7.10071246
   2.33067882  3.55114870  0.88682572
  10.54410677  2.00466306  2.85564487
  13.20125292  5.07199845  4.92596105
   3.81875744  1.08101994  7.04021717
   9.20011306  5.85798017  7.06279970
   3.79990464  1.08421507  0.93869010
   9.28005122  5.82723631  1.01487350
   5.25237804  3.56304485  0.92964181
  11.82186637  8.82904104  2.94048247
  11.87543982  7.38554930  4.84901070
  13.08248223  6.55049166  2.85969017
   9.21706959  4.27951266  2.82587719
   7.90777947  8.14490051  6.98693446
   7.97777754  8.09308092  0.93938418
  10.58681158  6.67050258  2.84721558
   2.57871913  0.24764915  5.01084896
   7.89204220  3.56304242  0.82040476
   5.16267047  1.91546844  2.95299618
   5.28296656  6.56628862  2.94356121
   7.85417690  0.47530725  4.84858632
   9.22727294  1.20440124  6.94865257
  10.49274493  8.13369836  6.96412523
   9.23131555  1.14551366  0.82559594
  10.55608126  8.11952937  0.83855902
   5.15594988  5.05395730  4.92520835
  11.83255762  2.78487505  4.88068561
  14.57347016  8.98804467  2.87226841
   9.26928977  2.70975073  4.92991863
   6.49665205  2.73163781  4.86531912
  11.86943045  4.25740942  2.84734150
   2.48289262  1.92463988  2.85311896
  11.85493352  5.78776983  0.92941673
   6.57688653  5.84103608  0.99111319
   7.99190642  6.64267286  2.86446066
   6.54439165  4.21089446  2.82135314
  10.57938165  3.54845234  7.03441524
  10.54162732  3.50859735  0.91915711
  10.57207652  0.50548096  4.87384564
   9.21999232  7.42016445  4.95848029
   6.61477676  7.43445734  4.94584463
   5.12148683  0.26725547  4.90164786
   9.26940967  2.70671118 10.24682090
 


--------------------------------------------------------------------------------------------------------


 k-point  1 :   0.0000 0.0000 0.0000  plane waves:   64687
 k-point  2 :   0.5000 0.0000 0.0000  plane waves:   64612
 k-point  3 :   0.0000 0.5000 0.0000  plane waves:   64612
 k-point  4 :   0.5000 0.5000 0.0000  plane waves:   64612

 maximum and minimum number of plane-waves per node :     16191    16134

 maximum number of plane-waves:     64687
 maximum index in each direction: 
   IXMAX=   20   IYMAX=   20   IZMAX=   42
   IXMIN=  -21   IYMIN=  -21   IZMIN=  -42


 real space projection operators:
  total allocation   :      74970.07 KBytes
  max/ min on nodes  :      18753.75      18730.57


 parallel 3D FFT for wavefunctions:
    minimum data exchange during FFTs selected (reduces bandwidth)
 parallel 3D FFT for charge:
    minimum data exchange during FFTs selected (reduces bandwidth)


 total amount of memory used by VASP MPI-rank0   233093. kBytes
=======================================================================

   base      :      30000. kBytes
   nonlr-proj:      33408. kBytes
   fftplans  :      16137. kBytes
   grid      :      49182. kBytes
   one-center:        653. kBytes
   wavefun   :     103713. kBytes
 
     INWAV:  cpu time    0.0000: real time    0.0000
 Broyden mixing: mesh for mixing (old mesh)
   NGX = 41   NGY = 41   NGZ = 85
  (NGX  =168   NGY  =168   NGZ  =336)
  gives a total of 142885 points

 initial charge density was supplied:
 charge density of overlapping atoms calculated
 number of electron     778.0000000 magnetization     231.0000000
 keeping initial charge density in first step


--------------------------------------------------------------------------------------------------------


 Maximum index for non-local projection operator         1828
 Maximum index for augmentation-charges         1428 (set IRDMAX)


--------------------------------------------------------------------------------------------------------


 First call to EWALD:  gamma=   0.136
 Maximum number of real-space cells 4x 4x 2
 Maximum number of reciprocal cells 2x 2x 4

    FEWALD:  cpu time    0.0044: real time    0.0044


--------------------------------------- Iteration      1(   1)  ---------------------------------------


    POTLOK:  cpu time    0.3680: real time    0.3709
    SETDIJ:  cpu time    0.0337: real time    0.0349
     EDDAV:  cpu time   59.7178: real time   60.0175
       DOS:  cpu time    0.0033: real time    0.0998
    --------------------------------------------
      LOOP:  cpu time   60.1229: real time   60.5231

 eigenvalue-minimisations  :  9408
 total energy-change (2. order) : 0.7766591E+04  (-0.3290315E+05)
 number of electron     778.0000000 magnetization     231.0000000
 augmentation part      778.0000000 magnetization     231.0000000

 Free energy of the ion-electron system (eV)
  ---------------------------------------------------
  alpha Z        PSCENC =      2156.50569604
  Ewald energy   TEWEN  =    221621.93553025
  -Hartree energ DENC   =   -293650.37045793
  -exchange      EXHF   =         0.00000000
  -V(xc)+E(xc)   XCENC  =      1381.52014161
  PAW double counting   =     64136.80006862   -66038.70876209
  entropy T*S    EENTRO =         0.00072336
  eigenvalues    EBANDS =      7940.25341327
  atomic energy  EATOM  =     70218.65458108
  Solvation  Ediel_sol  =         0.00000000
  ---------------------------------------------------
  free energy    TOTEN  =      7766.59093421 eV

  energy without entropy =     7766.59021085  energy(sigma->0) =     7766.59069309


--------------------------------------------------------------------------------------------------------




--------------------------------------- Iteration      1(   2)  ---------------------------------------


     EDDAV:  cpu time   59.7294: real time   60.0243
       DOS:  cpu time    0.0023: real time    0.0594
    --------------------------------------------
      LOOP:  cpu time   59.7317: real time   60.0836

 eigenvalue-minimisations  :  9408
 total energy-change (2. order) :-0.6953790E+04  (-0.6222910E+04)
 number of electron     778.0000000 magnetization     231.0000000
 augmentation part      778.0000000 magnetization     231.0000000

 Free energy of the ion-electron system (eV)
  ---------------------------------------------------
  alpha Z        PSCENC =      2156.50569604
  Ewald energy   TEWEN  =    221621.93553025
  -Hartree energ DENC   =   -293650.37045793
  -exchange      EXHF   =         0.00000000
  -V(xc)+E(xc)   XCENC  =      1381.52014161
  PAW double counting   =     64136.80006862   -66038.70876209
  entropy T*S    EENTRO =         0.00466744
  eigenvalues    EBANDS =       986.45987436
  atomic energy  EATOM  =     70218.65458108
  Solvation  Ediel_sol  =         0.00000000
  ---------------------------------------------------
  free energy    TOTEN  =       812.80133938 eV

  energy without entropy =      812.79667194  energy(sigma->0) =      812.79978357


--------------------------------------------------------------------------------------------------------




--------------------------------------- Iteration      1(   3)  ---------------------------------------


     EDDAV:  cpu time   59.7604: real time   61.3004
       DOS:  cpu time    0.0027: real time    0.0056
    --------------------------------------------
      LOOP:  cpu time   59.7632: real time   61.3060

 eigenvalue-minimisations  :  9408
 total energy-change (2. order) :-0.1188808E+04  (-0.9629299E+03)
 number of electron     778.0000000 magnetization     231.0000000
 augmentation part      778.0000000 magnetization     231.0000000

 Free energy of the ion-electron system (eV)
  ---------------------------------------------------
  alpha Z        PSCENC =      2156.50569604
  Ewald energy   TEWEN  =    221621.93553025
  -Hartree energ DENC   =   -293650.37045793
  -exchange      EXHF   =         0.00000000
  -V(xc)+E(xc)   XCENC  =      1381.52014161
  PAW double counting   =     64136.80006862   -66038.70876209
  entropy T*S    EENTRO =        -0.00761678
  eigenvalues    EBANDS =      -202.33599308
  atomic energy  EATOM  =     70218.65458108
  Solvation  Ediel_sol  =         0.00000000
  ---------------------------------------------------
  free energy    TOTEN  =      -376.00681228 eV

  energy without entropy =     -375.99919550  energy(sigma->0) =     -376.00427336


--------------------------------------------------------------------------------------------------------




--------------------------------------- Iteration      1(   4)  ---------------------------------------


     EDDAV:  cpu time   71.4695: real time   71.6865
       DOS:  cpu time    0.0029: real time    0.0073
    --------------------------------------------
      LOOP:  cpu time   71.4724: real time   71.6938

 eigenvalue-minimisations  : 11868
 total energy-change (2. order) :-0.1167907E+03  (-0.1067830E+03)
 number of electron     778.0000000 magnetization     231.0000000
 augmentation part      778.0000000 magnetization     231.0000000

 Free energy of the ion-electron system (eV)
  ---------------------------------------------------
  alpha Z        PSCENC =      2156.50569604
  Ewald energy   TEWEN  =    221621.93553025
  -Hartree energ DENC   =   -293650.37045793
  -exchange      EXHF   =         0.00000000
  -V(xc)+E(xc)   XCENC  =      1381.52014161
  PAW double counting   =     64136.80006862   -66038.70876209
  entropy T*S    EENTRO =        -0.00384359
  eigenvalues    EBANDS =      -319.13043579
  atomic energy  EATOM  =     70218.65458108
  Solvation  Ediel_sol  =         0.00000000
  ---------------------------------------------------
  free energy    TOTEN  =      -492.79748180 eV

  energy without entropy =     -492.79363821  energy(sigma->0) =     -492.79620060


--------------------------------------------------------------------------------------------------------




--------------------------------------- Iteration      1(   5)  ---------------------------------------


     EDDAV:  cpu time   68.4543: real time   68.7248
       DOS:  cpu time    0.0028: real time    0.0038
    CHARGE:  cpu time    3.7622: real time    3.7791
    MIXING:  cpu time    0.0100: real time    0.0103
    --------------------------------------------
      LOOP:  cpu time   72.2293: real time   72.5179

 eigenvalue-minimisations  : 11220
 total energy-change (2. order) :-0.4386282E+01  (-0.4349806E+01)
 number of electron     777.9999975 magnetization     216.6533793
 augmentation part      335.1305619 magnetization     183.7676178

 Broyden mixing:
  rms(total) = 0.11565E+02    rms(broyden)= 0.11565E+02
  rms(prec ) = 0.11898E+02
  weight for this iteration     100.00

 Free energy of the ion-electron system (eV)
  ---------------------------------------------------
  alpha Z        PSCENC =      2156.50569604
  Ewald energy   TEWEN  =    221621.93553025
  -Hartree energ DENC   =   -293650.37045793
  -exchange      EXHF   =         0.00000000
  -V(xc)+E(xc)   XCENC  =      1381.52014161
  PAW double counting   =     64136.80006862   -66038.70876209
  entropy T*S    EENTRO =        -0.00462422
  eigenvalues    EBANDS =      -323.51593676
  atomic energy  EATOM  =     70218.65458108
  Solvation  Ediel_sol  =         0.00000000
  ---------------------------------------------------
  free energy    TOTEN  =      -497.18376340 eV

  energy without entropy =     -497.17913918  energy(sigma->0) =     -497.18222199


--------------------------------------------------------------------------------------------------------




--------------------------------------- Iteration      1(   6)  ---------------------------------------


    POTLOK:  cpu time    0.3565: real time    0.3955
    SETDIJ:  cpu time    0.0318: real time    0.0319
    EDDIAG:  cpu time   10.6044: real time   10.6705
  RMM-DIIS:  cpu time   37.1150: real time   37.2149
    ORTHCH:  cpu time    1.2171: real time    1.2954
       DOS:  cpu time    0.0024: real time    0.0024
    CHARGE:  cpu time    3.6318: real time    3.6417
    MIXING:  cpu time    0.0101: real time    0.0106
    --------------------------------------------
      LOOP:  cpu time   52.9691: real time   53.2628

 eigenvalue-minimisations  :  9588
 total energy-change (2. order) :-0.1879066E+03  (-0.9490806E+02)
 number of electron     777.9999957 magnetization     212.7268850
 augmentation part      406.7272101 magnetization     179.5528918

 Broyden mixing:
  rms(total) = 0.20120E+02    rms(broyden)= 0.20120E+02
  rms(prec ) = 0.26174E+02
  weight for this iteration     100.00

 eigenvalues of (default mixing * dielectric matrix)
  average eigenvalue GAMMA=   0.2135
  0.2135

 Free energy of the ion-electron system (eV)
  ---------------------------------------------------
  alpha Z        PSCENC =      2156.50569604
  Ewald energy   TEWEN  =    221621.93553025
  -Hartree energ DENC   =   -292044.95489655
  -exchange      EXHF   =         0.00000000
  -V(xc)+E(xc)   XCENC  =      1335.33022026
  PAW double counting   =     68852.79172551   -70540.70977516
  entropy T*S    EENTRO =         0.01077536
  eigenvalues    EBANDS =     -2284.65424832
  atomic energy  EATOM  =     70218.65458108
  Solvation  Ediel_sol  =         0.00000000
  ---------------------------------------------------
  free energy    TOTEN  =      -685.09039153 eV

  energy without entropy =     -685.10116689  energy(sigma->0) =     -685.09398332


--------------------------------------------------------------------------------------------------------




--------------------------------------- Iteration      1(   7)  ---------------------------------------


    POTLOK:  cpu time    0.3477: real time    0.3581
    SETDIJ:  cpu time    0.0324: real time    0.0325
    EDDIAG:  cpu time   10.6385: real time   10.6674
  RMM-DIIS:  cpu time   36.4757: real time   36.5754
    ORTHCH:  cpu time    1.2090: real time    1.2147
       DOS:  cpu time    0.0025: real time    0.0025
    CHARGE:  cpu time    3.6888: real time    3.6985
    MIXING:  cpu time    0.0106: real time    0.0106
    --------------------------------------------
      LOOP:  cpu time   52.4052: real time   52.5596

 eigenvalue-minimisations  :  9423
 total energy-change (2. order) : 0.1629130E+03  (-0.1618065E+02)
 number of electron     777.9999972 magnetization     207.9878619
 augmentation part      368.8018838 magnetization     164.6749679

 Broyden mixing:
  rms(total) = 0.14879E+02    rms(broyden)= 0.14879E+02
  rms(prec ) = 0.19877E+02
  weight for this iteration     100.00

 eigenvalues of (default mixing * dielectric matrix)
  average eigenvalue GAMMA=   0.2712
  0.3746  0.1677

 Free energy of the ion-electron system (eV)
  ---------------------------------------------------
  alpha Z        PSCENC =      2156.50569604
  Ewald energy   TEWEN  =    221621.93553025
  -Hartree energ DENC   =   -292710.00923853
  -exchange      EXHF   =         0.00000000
  -V(xc)+E(xc)   XCENC  =      1354.98179079
  PAW double counting   =     69856.37675415   -71700.49423451
  entropy T*S    EENTRO =        -0.00957453
  eigenvalues    EBANDS =     -1320.11869752
  atomic energy  EATOM  =     70218.65458108
  Solvation  Ediel_sol  =         0.00000000
  ---------------------------------------------------
  free energy    TOTEN  =      -522.17739277 eV

  energy without entropy =     -522.16781824  energy(sigma->0) =     -522.17420126


--------------------------------------------------------------------------------------------------------




--------------------------------------- Iteration      1(   8)  ---------------------------------------


    POTLOK:  cpu time    0.3438: real time    0.3656
    SETDIJ:  cpu time    0.0324: real time    0.0326
    EDDIAG:  cpu time   10.5895: real time   10.6194
  RMM-DIIS:  cpu time   36.5405: real time   36.6450
    ORTHCH:  cpu time    1.2106: real time    1.2244
       DOS:  cpu time    0.0025: real time    0.0025
    CHARGE:  cpu time    3.5347: real time    3.5490
    MIXING:  cpu time    0.0112: real time    0.0114
    --------------------------------------------
      LOOP:  cpu time   52.2653: real time   52.4500

 eigenvalue-minimisations  :  9436
 total energy-change (2. order) : 0.3879851E+02  (-0.1136378E+02)
 number of electron     777.9999974 magnetization     200.8658649
 augmentation part      372.9519118 magnetization     163.9528986

 Broyden mixing:
  rms(total) = 0.16340E+02    rms(broyden)= 0.16340E+02
  rms(prec ) = 0.19191E+02
  weight for this iteration     100.00

 eigenvalues of (default mixing * dielectric matrix)
  average eigenvalue GAMMA=   0.3082
  0.5830  0.2600  0.0815

 Free energy of the ion-electron system (eV)
  ---------------------------------------------------
  alpha Z        PSCENC =      2156.50569604
  Ewald energy   TEWEN  =    221621.93553025
  -Hartree energ DENC   =   -292963.83569137
  -exchange      EXHF   =         0.00000000
  -V(xc)+E(xc)   XCENC  =      1360.86929900
  PAW double counting   =     71057.48219958   -72974.14514306
  entropy T*S    EENTRO =         0.01204652
  eigenvalues    EBANDS =      -960.85740056
  atomic energy  EATOM  =     70218.65458108
  Solvation  Ediel_sol  =         0.00000000
  ---------------------------------------------------
  free energy    TOTEN  =      -483.37888252 eV

  energy without entropy =     -483.39092904  energy(sigma->0) =     -483.38289803


--------------------------------------------------------------------------------------------------------




--------------------------------------- Iteration      1(   9)  ---------------------------------------


    POTLOK:  cpu time    0.3429: real time    0.3571
    SETDIJ:  cpu time    0.0321: real time    0.0323
    EDDIAG:  cpu time   10.6192: real time   10.6504
  RMM-DIIS:  cpu time   36.6073: real time   36.7491
    ORTHCH:  cpu time    1.2084: real time    1.2130
       DOS:  cpu time    0.0024: real time    0.0024
    CHARGE:  cpu time    3.6370: real time    3.6467
    MIXING:  cpu time    0.0107: real time    0.0108
    --------------------------------------------
      LOOP:  cpu time   52.4601: real time   52.6618

 eigenvalue-minimisations  :  9449
 total energy-change (2. order) : 0.9729162E+02  (-0.1497291E+02)
 number of electron     777.9999968 magnetization     192.6205758
 augmentation part      375.2132409 magnetization     146.9135976

 Broyden mixing:
  rms(total) = 0.12233E+02    rms(broyden)= 0.12233E+02
  rms(prec ) = 0.13869E+02
  weight for this iteration     100.00

 eigenvalues of (default mixing * dielectric matrix)
  average eigenvalue GAMMA=   0.3625
  0.8757  0.3445  0.1305  0.0991

 Free energy of the ion-electron system (eV)
  ---------------------------------------------------
  alpha Z        PSCENC =      2156.50569604
  Ewald energy   TEWEN  =    221621.93553025
  -Hartree energ DENC   =   -292696.76290886
  -exchange      EXHF   =         0.00000000
  -V(xc)+E(xc)   XCENC  =      1377.66981273
  PAW double counting   =     72440.52965948   -74408.63514857
  entropy T*S    EENTRO =        -0.00237960
  eigenvalues    EBANDS =     -1095.98210663
  atomic energy  EATOM  =     70218.65458108
  Solvation  Ediel_sol  =         0.00000000
  ---------------------------------------------------
  free energy    TOTEN  =      -386.08726409 eV

  energy without entropy =     -386.08488449  energy(sigma->0) =     -386.08647089


[...]
   -.462E+01 0.273E+02 -.286E+04   0.482E+01 -.275E+02 0.286E+04   -.208E+00 0.212E+00 0.118E+01   0.808E-03 -.117E-01 0.155E-02
   -.143E+02 0.684E+01 -.286E+04   0.136E+02 -.638E+01 0.286E+04   0.631E+00 -.481E+00 0.168E+01   0.600E-01 0.193E-01 0.498E-01
   0.354E+01 0.425E+01 -.285E+04   -.346E+01 -.457E+01 0.285E+04   -.102E+00 0.333E+00 0.126E+01   0.456E-01 -.461E-01 -.396E-01
   -.208E+02 -.635E+01 -.288E+04   0.212E+02 0.595E+01 0.288E+04   -.402E+00 0.342E+00 0.178E+01   0.131E-01 0.385E-01 0.991E-01
   0.133E+02 -.215E+02 -.287E+04   -.136E+02 0.218E+02 0.287E+04   0.341E+00 -.175E+00 0.205E+01   -.222E-01 -.215E-01 -.575E-01
   -.320E+02 0.199E+02 -.287E+04   0.325E+02 -.200E+02 0.287E+04   -.500E+00 0.172E+00 0.748E+00   -.217E-01 -.800E-01 0.651E-01
   -.135E+02 -.119E+01 -.284E+04   0.139E+02 0.157E+01 0.284E+04   -.398E+00 -.254E+00 0.185E+01   0.447E-01 -.930E-01 0.384E-01
   -.963E+01 -.451E+01 -.288E+04   0.985E+01 0.419E+01 0.288E+04   -.240E+00 0.257E+00 0.101E+01   -.189E-01 0.146E-01 -.703E-02
   -.147E+02 0.944E+00 -.286E+04   0.150E+02 -.125E+01 0.286E+04   -.248E+00 0.268E+00 0.136E+01   0.229E-01 0.463E-01 0.208E-01
   0.784E+01 -.238E+02 -.286E+04   -.808E+01 0.234E+02 0.286E+04   0.220E+00 0.406E+00 0.119E+01   0.106E-01 -.387E-01 -.259E-03
   0.295E+02 0.834E+01 -.287E+04   -.290E+02 -.826E+01 0.287E+04   -.570E+00 -.149E+00 0.168E+01   -.491E-02 0.679E-01 -.410E-01
   0.246E+02 -.143E+02 -.287E+04   -.241E+02 0.158E+02 0.287E+04   -.398E+00 -.156E+01 0.150E+01   -.584E-01 0.333E-01 0.599E-01
   -.971E+00 -.138E+01 -.286E+04   0.625E+00 0.862E+00 0.285E+04   0.336E+00 0.497E+00 0.135E+01   0.229E-01 0.231E-01 -.602E-02
   0.364E+02 -.284E+01 -.286E+04   -.369E+02 0.279E+01 0.286E+04   0.499E+00 0.547E-01 0.619E+00   -.314E-01 -.283E-01 0.231E-01
   0.675E+02 -.617E+02 -.151E+04   -.660E+02 0.619E+02 0.150E+04   -.132E+01 -.187E+00 0.176E+01   -.841E-01 0.297E-02 -.206E-01
   0.247E+02 -.426E+02 -.148E+04   -.256E+02 0.424E+02 0.148E+04   0.907E+00 0.266E+00 0.223E+01   -.453E-01 -.394E-01 -.347E-01
   0.337E+02 0.243E+02 0.295E+04   -.339E+02 -.245E+02 -.295E+04   0.945E-01 0.241E+00 -.266E+01   0.149E-02 0.906E-02 -.268E-01
   0.257E+02 -.572E+01 0.158E+04   -.266E+02 0.643E+01 -.158E+04   0.963E+00 -.679E+00 0.938E+00   -.442E-02 0.528E-02 -.501E-01
   -.629E+02 0.953E+01 -.145E+04   0.636E+02 -.862E+01 0.144E+04   -.703E+00 -.716E+00 0.239E+01   0.317E-01 -.163E+00 0.506E-02
   -.525E+02 0.592E+02 0.302E+04   0.533E+02 -.581E+02 -.301E+04   -.732E+00 -.107E+01 -.239E+01   -.515E-02 -.410E-01 -.111E-01
   0.917E+01 -.550E+02 0.156E+04   -.890E+01 0.544E+02 -.156E+04   -.314E+00 0.513E+00 -.768E+00   -.145E-01 -.366E-01 -.693E-01
   0.875E+01 0.233E+01 -.285E+04   -.923E+01 -.219E+01 0.285E+04   0.488E+00 -.164E+00 0.112E+01   -.693E-02 0.130E-01 0.912E-02
   -.161E+02 0.195E+01 0.947E+01   0.161E+02 -.164E+01 -.107E+02   -.678E-01 -.466E+00 0.120E+01   0.127E-01 0.660E-01 -.330E-01
   -.155E+02 0.786E+01 -.288E+04   0.150E+02 -.807E+01 0.288E+04   0.579E+00 0.165E+00 0.154E+01   -.349E-01 0.675E-01 0.104E-01
   0.125E+02 0.516E+02 0.280E+02   -.135E+02 -.529E+02 -.283E+02   0.111E+01 0.123E+01 0.131E+00   0.987E-02 0.238E-01 -.336E-01
   -.630E+02 0.715E+01 -.146E+04   0.635E+02 -.848E+01 0.145E+04   -.430E+00 0.126E+01 0.282E+01   -.709E-02 0.138E+00 -.366E-01
   0.282E+02 0.280E+02 -.150E+04   -.280E+02 -.274E+02 0.150E+04   -.265E+00 -.664E+00 0.223E+01   0.340E-01 0.788E-01 -.173E-01
   0.875E+01 -.639E+02 -.633E+02   -.979E+01 0.633E+02 0.638E+02   0.104E+01 0.554E+00 -.329E+00   0.740E-01 -.432E-01 -.604E-01
   -.207E+02 -.155E+02 0.478E+01   0.215E+02 0.161E+02 -.533E+01   -.769E+00 -.830E+00 0.674E+00   -.414E-01 0.997E-01 -.113E+00
   0.180E+02 0.129E+02 -.121E+04   -.182E+02 -.133E+02 0.121E+04   0.100E+00 0.456E+00 0.372E+00   0.442E-01 0.521E-01 -.200E-01
   -.670E+02 -.766E+01 0.237E+04   0.673E+02 0.642E+01 -.237E+04   -.306E+00 0.128E+01 -.286E+01   0.276E-01 -.100E-01 -.221E-01
   0.361E+02 -.202E+02 0.241E+04   -.359E+02 0.186E+02 -.241E+04   -.872E-01 0.166E+01 -.256E+01   -.346E-02 0.831E-02 -.869E-02
   0.267E+02 0.377E+01 0.241E+04   -.266E+02 -.304E+01 -.240E+04   -.434E-01 -.812E+00 -.312E+01   0.371E-02 0.272E-01 -.833E-02
   0.178E+02 0.606E+02 0.125E+04   -.169E+02 -.598E+02 -.125E+04   -.960E+00 -.813E+00 -.819E-01   0.849E-02 -.287E-02 -.237E-01
   0.302E+02 -.650E+02 0.125E+04   -.301E+02 0.648E+02 -.125E+04   -.894E-01 0.312E+00 -.389E+00   0.876E-02 -.371E-01 0.109E-02
   -.558E+02 -.205E+02 -.120E+04   0.558E+02 0.207E+02 0.120E+04   -.141E+00 -.243E+00 0.603E+00   0.744E-01 -.788E-02 -.165E-01
   -.119E+03 0.181E+02 0.242E+04   0.118E+03 -.179E+02 -.242E+04   0.772E+00 -.169E+00 -.299E+01   0.128E-01 0.967E-03 -.973E-02
   -.344E+02 0.506E+02 0.127E+04   0.336E+02 -.501E+02 -.127E+04   0.863E+00 -.528E+00 -.445E+00   -.110E-01 -.185E-01 -.303E-01
   -.516E+02 0.372E+01 -.353E+02   0.513E+02 -.341E+01 0.354E+02   0.216E+00 -.427E+00 -.148E+00   0.790E-02 0.481E-01 -.787E-01
   0.147E+02 -.809E+02 -.121E+04   -.148E+02 0.808E+02 0.121E+04   0.128E+00 0.195E+00 0.919E+00   0.474E-01 -.928E-01 -.533E-02
   0.126E+02 0.290E+02 -.121E+04   -.127E+02 -.292E+02 0.121E+04   0.131E+00 0.368E-01 0.231E+00   -.609E-01 0.122E+00 -.346E-01
   0.329E+01 -.624E+02 0.239E+04   -.411E+01 0.613E+02 -.239E+04   0.840E+00 0.108E+01 -.302E+01   -.304E-02 -.119E-01 -.292E-02
   0.110E+02 -.153E+02 0.269E+04   -.111E+02 0.156E+02 -.269E+04   0.486E-01 -.306E+00 -.254E+01   0.146E-02 0.258E-01 0.941E-02
   0.132E+03 0.387E+02 0.272E+04   -.132E+03 -.378E+02 -.272E+04   0.161E+00 -.873E+00 -.273E+01   -.985E-02 -.873E-02 -.246E-01
   -.478E+02 -.445E+02 0.138E+04   0.473E+02 0.434E+02 -.138E+04   0.512E+00 0.119E+01 -.378E+00   -.355E-01 -.163E-01 0.617E-02
   -.639E+02 0.532E+02 0.241E+02   0.641E+02 -.531E+02 -.247E+02   -.916E-01 -.191E+00 0.621E+00   -.542E-01 0.271E-01 -.197E-01
   -.105E+03 0.125E+02 0.138E+04   0.105E+03 -.121E+02 -.138E+04   0.480E+00 -.475E+00 -.164E+00   -.495E-03 0.130E-02 -.342E-01
   -.158E+02 0.677E+01 0.136E+04   0.159E+02 -.711E+01 -.136E+04   -.149E+00 0.348E+00 -.155E+00   0.231E-03 0.340E-01 -.304E-01
   0.432E+02 0.403E+01 -.137E+04   -.431E+02 -.416E+01 0.137E+04   -.189E+00 0.197E+00 0.121E+01   0.334E-01 -.196E-01 0.294E-03
   0.599E+02 -.792E+02 0.270E+04   -.595E+02 0.791E+02 -.270E+04   -.463E+00 0.218E+00 -.273E+01   -.410E-02 -.611E-02 0.555E-02
   -.131E+02 0.430E+01 0.135E+04   0.133E+02 -.406E+01 -.135E+04   -.170E+00 -.274E+00 -.473E+00   -.440E-01 0.537E-02 -.617E-02
   0.261E+02 -.744E+02 -.146E+02   -.253E+02 0.739E+02 0.148E+02   -.826E+00 0.598E+00 -.408E+00   0.651E-01 -.963E-01 0.224E-01
   0.357E+02 0.408E+02 0.336E+04   -.358E+02 -.400E+02 -.336E+04   0.131E+00 -.916E+00 -.400E+01   0.490E-02 0.109E-02 -.189E-01
   0.572E+02 0.544E+01 0.170E+04   -.574E+02 -.603E+01 -.170E+04   0.175E+00 0.657E+00 -.111E+00   -.145E-01 -.268E-01 -.752E-02
   0.113E+03 -.349E+02 0.167E+04   -.113E+03 0.349E+02 -.167E+04   -.187E+00 -.553E-01 -.775E-01   -.381E-02 0.508E-01 -.493E-01
   0.171E+02 0.625E+02 0.979E+02   -.178E+02 -.623E+02 -.983E+02   0.698E+00 -.234E+00 0.425E+00   -.234E-01 -.116E-01 -.113E-01
   0.144E+02 0.503E+02 -.167E+04   -.139E+02 -.497E+02 0.167E+04   -.461E+00 -.531E+00 0.125E+01   -.404E-01 -.921E-01 -.278E-01
   -.396E+02 0.275E+02 -.164E+04   0.388E+02 -.273E+02 0.164E+04   0.962E+00 -.242E+00 0.210E+01   -.924E-01 0.548E-01 -.711E-01
   0.162E+01 0.102E+03 0.331E+04   -.152E+01 -.102E+03 -.331E+04   -.157E+00 0.450E+00 -.330E+01   0.101E-01 -.388E-01 -.114E-01
   -.232E+02 -.844E+02 0.334E+04   0.223E+02 0.842E+02 -.334E+04   0.101E+01 0.277E+00 -.299E+01   -.306E-01 -.274E-01 -.567E-02
   0.109E+03 0.109E+02 -.514E+02   -.109E+03 -.107E+02 0.517E+02   -.215E-01 -.246E+00 -.468E+00   0.243E-01 0.266E-01 -.278E-01
   -.112E+03 -.300E+02 0.376E+02   0.112E+03 0.298E+02 -.374E+02   0.265E+00 0.208E+00 -.238E-01   -.702E-02 -.307E-01 -.143E+00
   -.795E+01 0.628E+02 0.176E+04   0.767E+01 -.621E+02 -.176E+04   0.289E+00 -.667E+00 -.868E+00   0.369E-01 -.189E-01 -.532E-01
   0.177E+02 -.650E+02 0.385E+02   -.173E+02 0.640E+02 -.389E+02   -.371E+00 0.128E+01 0.422E+00   -.508E-01 -.296E-01 -.111E+00
   0.522E+02 -.227E+02 0.868E+01   -.516E+02 0.223E+02 -.868E+01   -.603E+00 0.387E+00 0.117E+00   -.162E-01 -.450E-01 -.219E-01
   -.780E+02 0.344E+01 0.151E+04   0.775E+02 -.334E+01 -.151E+04   0.474E+00 -.894E-01 -.249E+00   -.595E-02 0.287E-01 -.439E-01
   -.182E+02 0.171E+02 0.159E+04   0.185E+02 -.173E+02 -.159E+04   -.397E+00 0.271E+00 -.478E+00   0.149E-01 -.975E-02 -.609E-01
   -.109E+03 -.795E+01 0.302E+04   0.109E+03 0.795E+01 -.302E+04   -.455E+00 0.872E-02 -.171E+01   -.845E-02 0.241E-01 0.356E-02
   0.696E+02 -.466E+02 0.301E+04   -.701E+02 0.472E+02 -.301E+04   0.471E+00 -.606E+00 -.108E+01   0.226E-02 0.417E-01 -.175E-01
   0.196E+02 -.326E+02 0.152E+04   -.193E+02 0.324E+02 -.152E+04   -.383E+00 0.205E+00 -.463E-01   0.481E-01 0.320E-01 -.535E-02
   0.559E+02 0.706E+01 0.155E+04   -.554E+02 -.710E+01 -.155E+04   -.560E+00 0.892E-01 -.246E+00   0.104E-01 -.261E-02 -.319E-01
   -.321E+02 -.588E+02 -.153E+04   0.320E+02 0.588E+02 0.153E+04   0.170E+00 -.301E-01 0.586E+00   -.488E-01 0.663E-02 -.238E-01
   -.426E+02 0.319E+02 0.300E+04   0.431E+02 -.314E+02 -.300E+04   -.488E+00 -.595E+00 -.204E+01   -.108E-01 0.107E-01 -.235E-02
   -.424E+02 0.767E+02 0.796E+02   0.429E+02 -.764E+02 -.795E+02   -.474E+00 -.387E+00 -.947E-01   -.242E-01 -.489E-01 -.426E-01
   -.211E+00 0.578E+02 -.127E+02   0.135E+00 -.571E+02 0.125E+02   0.111E+00 -.817E+00 -.736E-02   0.247E-02 0.282E-01 -.396E-04
   0.583E+02 0.374E+00 -.265E+02   -.580E+02 0.233E+00 0.265E+02   -.402E+00 -.646E+00 -.112E+00   0.509E-01 -.680E-02 0.234E-01
   0.802E+01 -.630E+02 0.349E+02   -.843E+01 0.626E+02 -.351E+02   0.400E+00 0.483E+00 0.101E+00   -.121E-01 -.417E-01 0.139E-01
   0.162E+00 -.174E+01 -.342E+03   -.128E+00 0.195E+01 0.343E+03   -.404E-01 -.234E+00 -.160E+01   -.287E-02 -.232E-02 0.394E-02
 -----------------------------------------------------------------------------------------------
   -.201E+01 0.820E-01 0.367E+00   -.398E-12 0.955E-13 -.185E-10   0.198E+01 -.144E-01 0.104E+01   0.103E-01 -.154E-01 -.141E+01
 
 
 POSITION                                       TOTAL-FORCE (eV/Angst)
 -----------------------------------------------------------------------------------
     13.18753      8.19990      6.94008         0.003307      0.007438      0.000705
      5.20163      8.22240      6.89995         0.013299      0.007230     -0.005850
      5.05740      3.54638      6.98999        -0.003781     -0.009185     -0.002841
     14.58749      8.94747      9.22380        -0.005569      0.001768      0.011836
      3.78866      4.32197      9.32882         0.010941     -0.017895     -0.002836
      6.52244      8.95020      9.19812        -0.001151      0.002978      0.003617
     11.89832      4.29032      9.29853        -0.018506      0.000855      0.001147
      9.19221      8.95177      9.18517        -0.001903      0.006196      0.001616
     10.57373      1.94815      9.22983        -0.008406      0.009124      0.018202
      2.49723      1.97384      9.21890        -0.002445      0.006427      0.000670
     11.88194      8.94462      9.25377        -0.002255     -0.013030     -0.004015
     13.22556      6.63177      9.30740        -0.004003      0.008732      0.003742
      5.15044      1.95010      9.27129        -0.009717      0.004576     -0.013519
      7.87477      6.64302      9.24986        -0.001069      0.002384      0.000171
      9.21777      4.34411      9.27856         0.012279     -0.002389     -0.004272
      5.15440      6.62414      9.29560         0.019621      0.010420      0.006466
      7.82146      1.94463      9.26733         0.008487     -0.007057      0.001733
      7.93125      3.50616      6.96707         0.009627     -0.001473      0.012606
      6.42918      1.17401      6.91063        -0.000553     -0.001214      0.001152
      6.55899      1.14886      0.96438        -0.011985     -0.005620     -0.005189
      3.75747      4.28391      2.83239        -0.022208     -0.016279     -0.024692
      1.20479      1.27381      6.89215        -0.014782     -0.004786      0.001839
      1.14464      1.22211      0.77800         0.000962      0.012772     -0.011128
      6.56687      8.92705      2.92680        -0.006851      0.008015      0.003082
      6.48587      4.31033      9.29006        -0.008790      0.005202     -0.001032
      7.84317      5.09593      4.82253         0.028387     -0.037155     -0.031074
     10.52484      6.63838      9.25540         0.011237     -0.006428      0.000388
     14.51918      7.33687      4.85107         0.022949     -0.011701     -0.055836
     11.90793      5.80833      6.99672         0.001097     -0.000028      0.002792
      6.52764      5.88072      6.97321         0.000680      0.011981      0.001687
      3.66556      2.59850      4.95871        -0.007130     -0.016930     -0.006267
     10.55203      5.13182      4.86368        -0.015638     -0.029096     -0.000194
      3.83180      5.88175      7.10920         0.010832      0.000678     -0.003395
     13.19219      8.02433      1.00573        -0.009037     -0.003134      0.027185
      5.26821      8.05279      0.90098        -0.001734      0.002770      0.013342
      3.88993      5.88755      0.88776         0.004768     -0.009936      0.023111
      7.96781      2.09986      2.87061        -0.017398      0.003350     -0.003128
      9.24633      8.88529      2.89138        -0.002680      0.046711      0.011534
      2.44816      3.57998      7.09639        -0.007160      0.007803      0.007657
      2.33068      3.55115      0.88683         0.024536      0.002342     -0.003034
     10.54411      2.00466      2.85564        -0.013465      0.022639     -0.019950
     13.20125      5.07200      4.92596        -0.012183     -0.034707     -0.006776
      3.82581      1.08325      7.04071         0.005840      0.001270      0.006692
      9.20272      5.86061      7.06229        -0.000950     -0.003234     -0.003570
      3.79990      1.08422      0.93869        -0.010669      0.000913      0.019616
      9.28005      5.82724      1.01487        -0.008077      0.017813      0.004824
      5.25238      3.56304      0.92964        -0.010957      0.002540      0.016268
     11.82187      8.82904      2.94048        -0.008616      0.009498      0.009005
     11.87544      7.38555      4.84901        -0.012100      0.012292     -0.015354
     13.08248      6.55049      2.85969         0.018933     -0.010176      0.005610
      9.21707      4.27951      2.82588         0.005587     -0.000620     -0.010483
      7.90456      8.15733      6.98696        -0.007209     -0.006783      0.005569
      7.97778      8.09308      0.93938        -0.006137      0.021793      0.002291
     10.58681      6.67050      2.84722        -0.022058     -0.016022      0.003965
      2.57872      0.24765      5.01085         0.073088      0.008421     -0.064166
      7.89204      3.56304      0.82040        -0.007984     -0.009396      0.013982
      5.16267      1.91547      2.95300        -0.000638     -0.006478      0.016380
      5.28297      6.56629      2.94356         0.008236     -0.005776     -0.002184
      7.85418      0.47531      4.84859         0.015703      0.029326      0.011690
      9.23374      1.21733      6.96555        -0.000577     -0.004351     -0.017686
     10.49450      8.13935      6.96118         0.007173     -0.007074      0.002774
      9.23132      1.14551      0.82560        -0.022790      0.006492      0.009390
     10.55608      8.11953      0.83856        -0.010499      0.006943      0.022998
      5.15595      5.05396      4.92521         0.000589     -0.000253     -0.053501
     11.83256      2.78488      4.88069        -0.010733      0.012135      0.037410
     14.57347      8.98804      2.87227         0.004532      0.013690     -0.017602
      9.26929      2.70975      4.92992        -0.007072     -0.005918      0.043282
      6.49665      2.73164      4.86532         0.017930      0.001435      0.037074
     11.86943      4.25741      2.84734         0.015589     -0.020311     -0.032900
      2.48289      1.92464      2.85312        -0.028440     -0.001643      0.002449
     11.85493      5.78777      0.92942        -0.011163      0.021716      0.011094
      6.57689      5.84104      0.99111         0.010536      0.006664     -0.011976
      7.99191      6.64267      2.86446         0.012767     -0.019023      0.014479
      6.54439      4.21089      2.82135        -0.014280      0.004004      0.013982
     10.57524      3.55155      7.05042         0.006652     -0.003240     -0.020215
     10.54163      3.50860      0.91916        -0.006062     -0.008851      0.012517
     10.57208      0.50548      4.87385        -0.017245      0.016253      0.009077
      9.21999      7.42016      4.95848         0.014113     -0.002535     -0.018268
      6.61478      7.43446      4.94584         0.031365     -0.013120     -0.023991
      5.12149      0.26726      4.90165         0.011887      0.015069      0.005982
      9.20302      2.64437     10.20876        -0.008871     -0.027811      0.002244
 -----------------------------------------------------------------------------------
    total drift:                               -0.020168      0.052197      0.004731


--------------------------------------------------------------------------------------------------------



  FREE ENERGIE OF THE ION-ELECTRON SYSTEM (eV)
  ---------------------------------------------------
  free  energy   TOTEN  =      -509.11397095 eV

  energy  without entropy=     -509.13934619  energy(sigma->0) =     -509.12242936
 
 d Force = 0.8443661E-03[ 0.444E-03, 0.125E-02]  d Energy = 0.8587919E-03-0.144E-04
 d Force =-0.2127769E+02[-0.213E+02,-0.213E+02]  d Ewald  =-0.2127768E+02-0.301E-05


--------------------------------------------------------------------------------------------------------


    POTLOK:  cpu time    0.3824: real time    0.3930


--------------------------------------------------------------------------------------------------------


 Conjugate gradient step on ions:
 trial-energy change:   -0.000859  1 .order   -0.000844   -0.001245   -0.000444
  (g-gl).g = 0.117E-02      g.g   = 0.111E-02  gl.gl    = 0.123E-02
 g(Force)  = 0.111E-02   g(Stress)= 0.000E+00 ortho     =-0.194E-03
 gamma     =   0.94689
 trial     =   1.34577
 opt step  =   2.09032  (harmonic =   2.09032) maximal distance =0.00438083
 next E    =  -509.114079   (d E  =  -0.00097)


--------------------------------------------------------------------------------------------------------


  
 reached required accuracy - stopping structural energy minimisation
     LOOP+:  cpu time  541.0318: real time  543.6463
    4ORBIT:  cpu time    0.0000: real time    0.0000

 total amount of memory used by VASP MPI-rank0   233093. kBytes
=======================================================================

   base      :      30000. kBytes
   nonlr-proj:      33408. kBytes
   fftplans  :      16137. kBytes
   grid      :      49182. kBytes
   one-center:        653. kBytes
   wavefun   :     103713. kBytes
 
  
  
 General timing and accounting informations for this job:
 ========================================================
  
                  Total CPU time used (sec):    14264.243
                            User time (sec):    13881.794
                          System time (sec):      382.450
                         Elapsed time (sec):    14344.227
  
                   Maximum memory used (kb):      423108.
                   Average memory used (kb):           0.
  
                          Minor page faults:      3090710
                          Major page faults:          161
                 Voluntary context switches:         8513
