 vasp.5.4.4.18Apr17-6-g9f103f2a35 (build Oct 25 2019 11:13:22) complex          
  
 executed on             LinuxIFC date 2021.10.29  18:45:39
 running on   48 total cores
 distrk:  each k-point on   48 cores,    1 groups
 distr:  one band on NCORES_PER_BAND=   4 cores,   12 groups


--------------------------------------------------------------------------------------------------------


 INCAR:
 POTCAR:    PAW_PBE Pt 04Feb2005                  
 POTCAR:    PAW_PBE Fe 06Sep2000                  
 POTCAR:    PAW_PBE Co 02Aug2007                  
 POTCAR:    PAW_PBE Cu 22Jun2005                  
 POTCAR:    PAW_PBE Ni 02Aug2007                  
 POTCAR:    PAW_PBE H 15Jun2001                   
 POTCAR:    PAW_PBE Pt 04Feb2005                  
   VRHFIN =Pt: s1d9                                                             
   LEXCH  = PE                                                                  
   EATOM  =   729.1176 eV,   53.5886 Ry                                         
                                                                                
   TITEL  = PAW_PBE Pt 04Feb2005                                                
   LULTRA =        F    use ultrasoft PP ?                                      
   IUNSCR =        1    unscreen: 0-lin 1-nonlin 2-no                           
   RPACOR =    2.330    partial core radius                                     
   POMASS =  195.080; ZVAL   =   10.000    mass and valenz                      
   RCORE  =    2.600    outmost cutoff radius                                   
   RWIGS  =    2.750; RWIGS  =    1.455    wigner-seitz radius (au A)           
   ENMAX  =  230.283; ENMIN  =  172.712 eV                                      
   ICORE  =        3    local potential                                         
   LCOR   =        T    correct aug charges                                     
   LPAW   =        T    paw PP                                                  
   EAUG   =  358.966                                                            
   DEXC   =    0.000                                                            
   RMAX   =    2.658    core radius for proj-oper                               
   RAUG   =    1.300    factor for augmentation sphere                          
   RDEP   =    2.761    radius for radial grids                                 
   RDEPT  =    2.203    core radius for aug-charge                              
                                                                                
   Atomic configuration                                                         
   16 entries                                                                   
     n  l   j            E        occ.                                          
     1  0  0.50    -78401.1885   2.0000                                         
     2  0  0.50    -13770.7750   2.0000                                         
     2  1  1.50    -11931.0468   6.0000                                         
     3  0  0.50     -3234.7234   2.0000                                         
     3  1  1.50     -2699.2216   6.0000                                         
     3  2  2.50     -2119.5714  10.0000                                         
     4  0  0.50      -695.1528   2.0000                                         
     4  1  1.50      -519.6034   6.0000                                         
     4  2  2.50      -306.6786  10.0000                                         
     4  3  3.50       -70.1041  14.0000                                         
     5  0  0.50      -101.7747   2.0000                                         
     5  1  1.50       -55.9873   6.0000                                         
     5  2  2.50        -6.1423   9.0000                                         
     6  0  0.50        -5.6573   1.0000                                         
     6  1  1.50        -6.8029   0.0000                                         
     5  3  2.50        -1.3606   0.0000                                         
   Description                                                                  
     l       E           TYP  RCUT    TYP  RCUT                                 
     2     -6.1423404     23  2.500                                             
     2     -7.5029230     23  2.500                                             
     0     -5.6573207     23  2.500                                             
     0      0.7416693     23  2.500                                             
     1     -2.7211652     23  2.600                                             
     1     20.4087390     23  2.600                                             
     3     -1.3605826     23  2.500                                             
  local pseudopotential read in
  partial core-charges read in
  partial kinetic energy density read in
  atomic valenz-charges read in
  non local Contribution for L=           2  read in
    real space projection operators read in
  non local Contribution for L=           2  read in
    real space projection operators read in
  non local Contribution for L=           0  read in
    real space projection operators read in
  non local Contribution for L=           0  read in
    real space projection operators read in
  non local Contribution for L=           1  read in
    real space projection operators read in
  non local Contribution for L=           1  read in
    real space projection operators read in
    PAW grid and wavefunctions read in
 
   number of l-projection  operators is LMAX  =           6
   number of lm-projection operators is LMMAX =          18
 
 POTCAR:    PAW_PBE Fe 06Sep2000                  
   VRHFIN =Fe:  d7 s1                                                           
   LEXCH  = PE                                                                  
   EATOM  =   594.3153 eV,   43.6809 Ry                                         
                                                                                
   TITEL  = PAW_PBE Fe 06Sep2000                                                
   LULTRA =        F    use ultrasoft PP ?                                      
   IUNSCR =        1    unscreen: 0-lin 1-nonlin 2-no                           
   RPACOR =    2.000    partial core radius                                     
   POMASS =   55.847; ZVAL   =    8.000    mass and valenz                      
   RCORE  =    2.300    outmost cutoff radius                                   
   RWIGS  =    2.460; RWIGS  =    1.302    wigner-seitz radius (au A)           
   ENMAX  =  267.882; ENMIN  =  200.911 eV                                      
   RCLOC  =    1.701    cutoff for local pot                                    
   LCOR   =        T    correct aug charges                                     
   LPAW   =        T    paw PP                                                  
   EAUG   =  511.368                                                            
   DEXC   =    0.000                                                            
   RMAX   =    2.356    core radius for proj-oper                               
   RAUG   =    1.300    factor for augmentation sphere                          
   RDEP   =    2.442    radius for radial grids                                 
   RDEPT  =    1.890    core radius for aug-charge                              
                                                                                
   Atomic configuration                                                         
    9 entries                                                                   
     n  l   j            E        occ.                                          
     1  0  0.50     -6993.8440   2.0000                                         
     2  0  0.50      -814.6047   2.0000                                         
     2  1  1.50      -693.3689   6.0000                                         
     3  0  0.50       -89.4732   2.0000                                         
     3  1  1.50       -55.6373   6.0000                                         
     3  2  2.50        -3.8151   7.0000                                         
     4  0  0.50        -4.2551   1.0000                                         
     4  1  1.50        -3.4015   0.0000                                         
     4  3  2.50        -1.3606   0.0000                                         
   Description                                                                  
     l       E           TYP  RCUT    TYP  RCUT                                 
     2     -3.8151135     23  2.300                                             
     2     -5.1756961     23  2.300                                             
     0     -4.2550963     23  2.300                                             
     0      7.2035603     23  2.300                                             
     1     -2.7211652     23  2.300                                             
     1     18.4316424     23  2.300                                             
  local pseudopotential read in
  partial core-charges read in
  partial kinetic energy density read in
  atomic valenz-charges read in
  non local Contribution for L=           2  read in
    real space projection operators read in
  non local Contribution for L=           2  read in
    real space projection operators read in
  non local Contribution for L=           0  read in
    real space projection operators read in
  non local Contribution for L=           0  read in
    real space projection operators read in
  non local Contribution for L=           1  read in
    real space projection operators read in
  non local Contribution for L=           1  read in
    real space projection operators read in
    PAW grid and wavefunctions read in
 
   number of l-projection  operators is LMAX  =           6
   number of lm-projection operators is LMMAX =          18
 
 POTCAR:    PAW_PBE Co 02Aug2007                  
   VRHFIN =Co: d8 s1                                                            
   LEXCH  = PE                                                                  
   EATOM  =   813.3670 eV,   59.7808 Ry                                         
                                                                                
   TITEL  = PAW_PBE Co 02Aug2007                                                
   LULTRA =        F    use ultrasoft PP ?                                      
   IUNSCR =        1    unscreen: 0-lin 1-nonlin 2-no                           
   RPACOR =    2.000    partial core radius                                     
   POMASS =   58.933; ZVAL   =    9.000    mass and valenz                      
   RCORE  =    2.300    outmost cutoff radius                                   
   RWIGS  =    2.460; RWIGS  =    1.302    wigner-seitz radius (au A)           
   ENMAX  =  267.968; ENMIN  =  200.976 eV                                      
   RCLOC  =    1.203    cutoff for local pot                                    
   LCOR   =        T    correct aug charges                                     
   LPAW   =        T    paw PP                                                  
   EAUG   =  477.818                                                            
   DEXC   =    0.000                                                            
   RMAX   =    2.360    core radius for proj-oper                               
   RAUG   =    1.300    factor for augmentation sphere                          
   RDEP   =    2.393    radius for radial grids                                 
   RDEPT  =    1.864    core radius for aug-charge                              
                                                                                
   Atomic configuration                                                         
    9 entries                                                                   
     n  l   j            E        occ.                                          
     1  0  0.50     -7587.6674   2.0000                                         
     2  0  0.50      -893.6084   2.0000                                         
     2  1  1.50      -764.5805   6.0000                                         
     3  0  0.50       -97.5973   2.0000                                         
     3  1  1.50       -60.9648   6.0000                                         
     3  2  2.50        -4.2382   8.0000                                         
     4  0  0.50        -4.3746   1.0000                                         
     4  1  1.50        -4.0817   0.0000                                         
     4  3  2.50        -1.3606   0.0000                                         
   Description                                                                  
     l       E           TYP  RCUT    TYP  RCUT                                 
     2     -4.2382362     23  2.300                                             
     2     -5.5988188     23  2.300                                             
     0     -4.3745797     23  2.300                                             
     0      5.7660125     23  2.300                                             
     1     -2.7211652     23  2.300                                             
     1     16.9860234     23  2.300                                             
  local pseudopotential read in
  partial core-charges read in
  partial kinetic energy density read in
  atomic valenz-charges read in
  non local Contribution for L=           2  read in
    real space projection operators read in
  non local Contribution for L=           2  read in
    real space projection operators read in
  non local Contribution for L=           0  read in
    real space projection operators read in
  non local Contribution for L=           0  read in
    real space projection operators read in
  non local Contribution for L=           1  read in
    real space projection operators read in
  non local Contribution for L=           1  read in
    real space projection operators read in
    PAW grid and wavefunctions read in
 
   number of l-projection  operators is LMAX  =           6
   number of lm-projection operators is LMMAX =          18
 
 POTCAR:    PAW_PBE Cu 22Jun2005                  
   VRHFIN =Cu: d10 p1                                                           
   LEXCH  = PE                                                                  
   EATOM  =  1390.9808 eV,  102.2342 Ry                                         
                                                                                
   TITEL  = PAW_PBE Cu 22Jun2005                                                
   LULTRA =        F    use ultrasoft PP ?                                      
   IUNSCR =        1    unscreen: 0-lin 1-nonlin 2-no                           
   RPACOR =    2.000    partial core radius                                     
   POMASS =   63.546; ZVAL   =   11.000    mass and valenz                      
   RCORE  =    2.300    outmost cutoff radius                                   
   RWIGS  =    2.200; RWIGS  =    1.164    wigner-seitz radius (au A)           
   ENMAX  =  295.446; ENMIN  =  221.585 eV                                      
   ICORE  =        3    local potential                                         
   LCOR   =        T    correct aug charges                                     
   LPAW   =        T    paw PP                                                  
   EAUG   =  586.980                                                            
   DEXC   =    0.000                                                            
   RMAX   =    2.344    core radius for proj-oper                               
   RAUG   =    1.300    factor for augmentation sphere                          
   RDEP   =    2.302    radius for radial grids                                 
   RDEPT  =    1.771    core radius for aug-charge                              
                                                                                
   Atomic configuration                                                         
    9 entries                                                                   
     n  l   j            E        occ.                                          
     1  0  0.50     -8850.2468   2.0000                                         
     2  0  0.50     -1062.3498   2.0000                                         
     2  1  1.50      -916.8226   6.0000                                         
     3  0  0.50      -114.6929   2.0000                                         
     3  1  1.50       -72.1325   6.0000                                         
     3  2  2.50        -5.0394  10.0000                                         
     4  0  0.50        -4.6097   1.0000                                         
     4  1  0.50        -4.0817   0.0000                                         
     4  3  2.50        -1.3606   0.0000                                         
   Description                                                                  
     l       E           TYP  RCUT    TYP  RCUT                                 
     2     -5.0393973     23  2.200                                             
     2     10.8846608     23  2.200                                             
     0     -4.6097109     23  2.200                                             
     0      8.2520465     23  2.200                                             
     1     -2.7211652     23  2.200                                             
     1     21.7055443     23  2.200                                             
     3      2.7211652     23  2.300                                             
  local pseudopotential read in
  partial core-charges read in
  partial kinetic energy density read in
  atomic valenz-charges read in
  non local Contribution for L=           2  read in
    real space projection operators read in
  non local Contribution for L=           2  read in
    real space projection operators read in
  non local Contribution for L=           0  read in
    real space projection operators read in
  non local Contribution for L=           0  read in
    real space projection operators read in
  non local Contribution for L=           1  read in
    real space projection operators read in
  non local Contribution for L=           1  read in
    real space projection operators read in
    PAW grid and wavefunctions read in
 
   number of l-projection  operators is LMAX  =           6
   number of lm-projection operators is LMMAX =          18
 
 POTCAR:    PAW_PBE Ni 02Aug2007                  
   VRHFIN =Ni:                                                                  
   LEXCH  = PE                                                                  
   EATOM  =  1077.6739 eV,   79.2068 Ry                                         
                                                                                
   TITEL  = PAW_PBE Ni 02Aug2007                                                
   LULTRA =        F    use ultrasoft PP ?                                      
   IUNSCR =        1    unscreen: 0-lin 1-nonlin 2-no                           
   RPACOR =    2.000    partial core radius                                     
   POMASS =   58.690; ZVAL   =   10.000    mass and valenz                      
   RCORE  =    2.300    outmost cutoff radius                                   
   RWIGS  =    2.430; RWIGS  =    1.286    wigner-seitz radius (au A)           
   ENMAX  =  269.532; ENMIN  =  202.149 eV                                      
   RCLOC  =    1.201    cutoff for local pot                                    
   LCOR   =        T    correct aug charges                                     
   LPAW   =        T    paw PP                                                  
   EAUG   =  544.565                                                            
   DEXC   =    0.000                                                            
   RMAX   =    2.357    core radius for proj-oper                               
   RAUG   =    1.300    factor for augmentation sphere                          
   RDEP   =    2.390    radius for radial grids                                 
   RDEPT  =    1.838    core radius for aug-charge                              
                                                                                
   Atomic configuration                                                         
    9 entries                                                                   
     n  l   j            E        occ.                                          
     1  0  0.50     -8206.4253   2.0000                                         
     2  0  0.50      -976.1748   2.0000                                         
     2  1  1.50      -839.0571   6.0000                                         
     3  0  0.50      -105.9991   2.0000                                         
     3  1  1.50       -66.4603   6.0000                                         
     3  2  2.50        -4.6458   9.0000                                         
     4  0  0.50        -4.4926   1.0000                                         
     4  1  1.50        -4.0817   0.0000                                         
     4  3  2.50        -1.3606   0.0000                                         
   Description                                                                  
     l       E           TYP  RCUT    TYP  RCUT                                 
     2     -4.6457903     23  2.300                                             
     2     -6.0063729     23  2.300                                             
     0     -4.4925590     23  2.300                                             
     0      5.0102601     23  2.300                                             
     1     -2.7211652     23  2.300                                             
     1     16.5183231     23  2.300                                             
  local pseudopotential read in
  partial core-charges read in
  partial kinetic energy density read in
  atomic valenz-charges read in
  non local Contribution for L=           2  read in
    real space projection operators read in
  non local Contribution for L=           2  read in
    real space projection operators read in
  non local Contribution for L=           0  read in
    real space projection operators read in
  non local Contribution for L=           0  read in
    real space projection operators read in
  non local Contribution for L=           1  read in
    real space projection operators read in
  non local Contribution for L=           1  read in
    real space projection operators read in
    PAW grid and wavefunctions read in
 
   number of l-projection  operators is LMAX  =           6
   number of lm-projection operators is LMMAX =          18
 
 POTCAR:    PAW_PBE H 15Jun2001                   
   VRHFIN =H: ultrasoft test                                                    
   LEXCH  = PE                                                                  
   EATOM  =    12.4884 eV,    0.9179 Ry                                         
                                                                                
   TITEL  = PAW_PBE H 15Jun2001                                                 
   LULTRA =        F    use ultrasoft PP ?                                      
   IUNSCR =        0    unscreen: 0-lin 1-nonlin 2-no                           
   RPACOR =    0.000    partial core radius                                     
   POMASS =    1.000; ZVAL   =    1.000    mass and valenz                      
   RCORE  =    1.100    outmost cutoff radius                                   
   RWIGS  =    0.700; RWIGS  =    0.370    wigner-seitz radius (au A)           
   ENMAX  =  250.000; ENMIN  =  200.000 eV                                      
   RCLOC  =    0.701    cutoff for local pot                                    
   LCOR   =        T    correct aug charges                                     
   LPAW   =        T    paw PP                                                  
   EAUG   =  400.000                                                            
   RMAX   =    1.123    core radius for proj-oper                               
   RAUG   =    1.200    factor for augmentation sphere                          
   RDEP   =    1.112    radius for radial grids                                 
   RDEPT  =    0.926    core radius for aug-charge                              
                                                                                
   Atomic configuration                                                         
    2 entries                                                                   
     n  l   j            E        occ.                                          
     1  0  0.50        -6.4927   1.0000                                         
     2  1  0.50        -3.4015   0.0000                                         
   Description                                                                  
     l       E           TYP  RCUT    TYP  RCUT                                 
     0     -6.4927494     23  1.100                                             
     0      6.8029130     23  1.100                                             
     1     -4.0817478     23  1.100                                             
  local pseudopotential read in
  atomic valenz-charges read in
  non local Contribution for L=           0  read in
    real space projection operators read in
  non local Contribution for L=           0  read in
    real space projection operators read in
  non local Contribution for L=           1  read in
    real space projection operators read in
    PAW grid and wavefunctions read in
 
   number of l-projection  operators is LMAX  =           3
   number of lm-projection operators is LMMAX =           5
 
 Optimization of the real space projectors (new method)

 maximal supplied QI-value         = 14.36
 optimisation between [QCUT,QGAM] = [ 11.92, 23.98] = [ 39.79,161.09] Ry 
 Optimized for a Real-space Cutoff    1.49 Angstroem

   l    n(q)    QCUT    max X(q) W(low)/X(q) W(high)/X(q)  e(spline) 
   2     10    11.920    66.195    0.79E-04    0.18E-03    0.24E-06
   2     10    11.920    64.643    0.81E-04    0.19E-03    0.24E-06
   0     11    11.920    95.520    0.28E-04    0.54E-04    0.18E-06
   0     11    11.920    63.403    0.27E-04    0.52E-04    0.17E-06
   1     10    11.920    19.961    0.18E-04    0.11E-03    0.23E-06
   1     10    11.920    13.289    0.25E-04    0.87E-04    0.19E-06
 Optimization of the real space projectors (new method)

 maximal supplied QI-value         = 16.25
 optimisation between [QCUT,QGAM] = [ 11.86, 23.89] = [ 39.41,159.82] Ry 
 Optimized for a Real-space Cutoff    1.49 Angstroem

   l    n(q)    QCUT    max X(q) W(low)/X(q) W(high)/X(q)  e(spline) 
   2     10    11.864    80.901    0.13E-03    0.23E-03    0.37E-06
   2     10    11.864    75.754    0.13E-03    0.23E-03    0.38E-06
   0     11    11.864    58.752    0.44E-04    0.11E-04    0.20E-06
   0     11    11.864    30.679    0.36E-04    0.10E-04    0.18E-06
   1     10    11.864    17.977    0.31E-04    0.45E-04    0.10E-06
   1     10    11.864    13.559    0.25E-04    0.37E-04    0.89E-07
 Optimization of the real space projectors (new method)

 maximal supplied QI-value         = 16.25
 optimisation between [QCUT,QGAM] = [ 11.86, 23.89] = [ 39.41,159.82] Ry 
 Optimized for a Real-space Cutoff    1.33 Angstroem

   l    n(q)    QCUT    max X(q) W(low)/X(q) W(high)/X(q)  e(spline) 
   2      9    11.864    65.824    0.22E-03    0.53E-03    0.26E-06
   2      9    11.864    61.429    0.22E-03    0.53E-03    0.26E-06
   0      9    11.864    56.174    0.21E-03    0.32E-04    0.15E-06
   0      9    11.864    31.263    0.19E-03    0.30E-04    0.14E-06
   1      9    11.864    19.828    0.63E-04    0.30E-03    0.16E-06
   1      9    11.864    15.139    0.49E-04    0.25E-03    0.13E-06
 Optimization of the real space projectors (new method)

 maximal supplied QI-value         = 16.25
 optimisation between [QCUT,QGAM] = [ 11.86, 23.89] = [ 39.41,159.82] Ry 
 Optimized for a Real-space Cutoff    1.49 Angstroem

   l    n(q)    QCUT    max X(q) W(low)/X(q) W(high)/X(q)  e(spline) 
   2     10    11.864     4.610    0.10E-03    0.20E-03    0.29E-06
   2     10    11.864     8.522    0.17E-03    0.33E-03    0.50E-06
   0     11    11.864    51.609    0.52E-04    0.55E-04    0.33E-06
   0     11    11.864    27.747    0.46E-04    0.52E-04    0.31E-06
   1     10    11.864    20.408    0.54E-04    0.25E-04    0.21E-06
   1     10    11.864    13.425    0.48E-04    0.22E-04    0.18E-06
 Optimization of the real space projectors (new method)

 maximal supplied QI-value         = 16.25
 optimisation between [QCUT,QGAM] = [ 11.86, 23.89] = [ 39.41,159.82] Ry 
 Optimized for a Real-space Cutoff    1.33 Angstroem

   l    n(q)    QCUT    max X(q) W(low)/X(q) W(high)/X(q)  e(spline) 
   2      9    11.864    60.317    0.21E-03    0.51E-03    0.25E-06
   2      9    11.864    55.921    0.21E-03    0.51E-03    0.26E-06
   0      9    11.864    51.690    0.22E-03    0.30E-04    0.17E-06
   0      9    11.864    30.015    0.20E-03    0.28E-04    0.15E-06
   1      9    11.864    18.849    0.76E-04    0.33E-03    0.17E-06
   1      9    11.864    14.624    0.60E-04    0.28E-03    0.15E-06
 Optimization of the real space projectors (new method)

 maximal supplied QI-value         = 34.20
 optimisation between [QCUT,QGAM] = [ 11.97, 23.94] = [ 40.13,160.53] Ry 
 Optimized for a Real-space Cutoff    1.18 Angstroem

   l    n(q)    QCUT    max X(q) W(low)/X(q) W(high)/X(q)  e(spline) 
   0      8    11.971    19.460    0.15E-03    0.31E-03    0.25E-06
   0      8    11.971    12.209    0.13E-03    0.29E-03    0.25E-06
   1      8    11.971     4.655    0.22E-03    0.24E-03    0.21E-06
  PAW_PBE Pt 04Feb2005                  :
 energy of atom  1       EATOM= -729.1176
 kinetic energy error for atom=    0.0021 (will be added to EATOM!!)
  PAW_PBE Fe 06Sep2000                  :
 energy of atom  2       EATOM= -594.3153
 kinetic energy error for atom=    0.0024 (will be added to EATOM!!)
  PAW_PBE Co 02Aug2007                  :
 energy of atom  3       EATOM= -813.3670
 kinetic energy error for atom=    0.0026 (will be added to EATOM!!)
  PAW_PBE Cu 22Jun2005                  :
 energy of atom  4       EATOM=-1390.9808
 kinetic energy error for atom=    0.0036 (will be added to EATOM!!)
  PAW_PBE Ni 02Aug2007                  :
 energy of atom  5       EATOM=-1077.6739
 kinetic energy error for atom=    0.0027 (will be added to EATOM!!)
  PAW_PBE H 15Jun2001                   :
 energy of atom  6       EATOM=  -12.4884
 kinetic energy error for atom=    0.0008 (will be added to EATOM!!)
 
 
 POSCAR: 11.16                                   
  positions in cartesian coordinates
  No initial velocities read in
 exchange correlation table for  LEXCH =        8
   RHO(1)=    0.500       N(1)  =     2000
   RHO(2)=  100.500       N(2)  =     4000
 


--------------------------------------------------------------------------------------------------------


 ion  position               nearest neighbor table
   1  0.784  0.881  0.307-  49 2.55  59 2.61  28 2.67  11 2.78  61 2.78   4 2.78  19 2.78  33 2.79
                            29 2.81  60 2.82   2 2.83  12 2.85
   2  0.038  0.880  0.302-  79 2.52  77 2.57  28 2.75  30 2.76  33 2.76  60 2.81   4 2.82   6 2.83
                             1 2.83  22 2.90  52 2.91  16 2.92
   3  0.277  0.374  0.314-  64 2.54  68 2.66  31 2.66  39 2.69   5 2.73  13 2.77  43 2.79  25 2.80
                            19 2.80  33 2.80  30 2.85  18 2.98
   4  0.874  0.965  0.408-  60 2.67   9 2.74   6 2.75  17 2.76  16 2.77   1 2.78  12 2.80  11 2.82
                             2 2.82
   5  0.112  0.470  0.415-  39 2.63  33 2.70  12 2.72   3 2.73   7 2.73  16 2.75  10 2.78  25 2.81
                            13 2.96
   6  0.124  0.958  0.409-  81 1.72  52 2.62  22 2.75   4 2.75  16 2.76  14 2.77   8 2.78   2 2.83
                             9 2.83  10 2.87
   7  0.874  0.456  0.417-  39 2.62  75 2.63   5 2.73  15 2.75  29 2.75   9 2.75  10 2.77  27 2.84
                            12 2.88
   8  0.372  0.959  0.414-  43 2.57  52 2.59  61 2.69  14 2.76  13 2.77  27 2.77   6 2.78  10 2.79
                            11 2.81
   9  0.871  0.212  0.409-  75 2.63  60 2.66   4 2.74   7 2.75  22 2.77  17 2.77  15 2.77   6 2.83
                            10 2.87
  10  0.126  0.213  0.413-  39 2.63  43 2.66  22 2.72  13 2.74   7 2.77   5 2.78   8 2.79   9 2.87
                             6 2.87
  11  0.624  0.958  0.412-  61 2.68  12 2.73  13 2.76  19 2.77   1 2.78  27 2.79  17 2.79   8 2.81
                             4 2.82
  12  0.871  0.715  0.414-  29 2.69  33 2.70   5 2.72  11 2.73  16 2.75   4 2.80  27 2.82   1 2.85
                             7 2.88
  13  0.376  0.205  0.415-  43 2.66  10 2.74  19 2.74  11 2.76   8 2.77   3 2.77  17 2.79  25 2.82
                             5 2.96
  14  0.374  0.711  0.412-  44 2.59  52 2.62  27 2.75   8 2.76   6 2.77  30 2.79  15 2.79  25 2.83
                            16 2.84
  15  0.625  0.462  0.415-  44 2.60  75 2.63  18 2.73   7 2.75  27 2.75   9 2.77  14 2.79  17 2.83
                            25 2.87
  16  0.119  0.713  0.413-  81 1.82  33 2.64  30 2.71   5 2.75  12 2.75   6 2.76   4 2.77  25 2.80
                            14 2.84   2 2.92
  17  0.624  0.209  0.412-  18 2.70  60 2.71   4 2.76   9 2.77  13 2.79  11 2.79  19 2.80  15 2.83
                            25 2.84
  18  0.542  0.379  0.314-  67 2.54  68 2.62  26 2.66  17 2.70  15 2.73  44 2.75  60 2.75  25 2.77
                            75 2.78  30 2.86  19 2.89   3 2.98
  19  0.531  0.126  0.310-  80 2.53  68 2.56  59 2.56  43 2.66  13 2.74  11 2.77   1 2.78  61 2.79
                             3 2.80  17 2.80  18 2.89  60 2.90
  20  0.548  0.126  0.056-  37 2.53  57 2.54  48 2.56  62 2.66  63 2.78  56 2.85  34 2.87  47 2.95
                            45 3.10
  21  0.105  0.437  0.124-  47 2.49  40 2.51  36 2.52  42 2.63  70 2.63  69 2.69  31 2.74  64 2.75
                            57 2.77  50 2.80
  22  0.048  0.133  0.311-  65 2.53  77 2.53  55 2.56  43 2.71  39 2.72  10 2.72   6 2.75   9 2.77
                            52 2.82  75 2.89   2 2.90  60 2.91  31 3.30
  23  0.025  0.125  0.040-  40 2.55  41 2.57  70 2.58  62 2.68  24 2.71  76 2.76  45 2.76  35 2.85
                            53 2.93
  24  0.130  0.955  0.138-  79 2.50  35 2.55  77 2.58  53 2.59  55 2.59  70 2.62  58 2.65  23 2.71
                            73 2.74  38 2.78  66 2.83  41 2.96
  25  0.368  0.461  0.414-  18 2.77  30 2.78   3 2.80  16 2.80   5 2.81  13 2.82  14 2.83  17 2.84
                            15 2.87
  26  0.455  0.557  0.222-  74 2.48  73 2.50  51 2.55  79 2.59  30 2.62  44 2.64  18 2.66  32 2.72
                            78 2.73  67 2.85  68 2.91  64 3.02
  27  0.620  0.711  0.415-  44 2.62  61 2.67  14 2.75  15 2.75  29 2.76   8 2.77  11 2.79  12 2.82
                             7 2.84
  28  0.951  0.771  0.212-  58 2.55  50 2.56  66 2.62  42 2.63  33 2.65   1 2.67  49 2.69   2 2.75
                            64 2.78  59 3.09
  29  0.797  0.624  0.316-  42 2.55  32 2.63  49 2.64  39 2.65  75 2.69  12 2.69  33 2.73   7 2.75
                            27 2.76   1 2.81  61 2.81  44 2.84
  30  0.279  0.628  0.312-  79 2.52  26 2.62  64 2.68  33 2.68  16 2.71   2 2.76  25 2.78  14 2.79
                             3 2.85  18 2.86  52 2.90  44 2.92
  31  0.191  0.272  0.226-  70 2.50  57 2.57  43 2.58  55 2.60  39 2.61  65 2.64   3 2.66  21 2.74
                            42 2.81  80 2.88  64 2.89  68 3.08  22 3.30
  32  0.699  0.556  0.222-  69 2.53  54 2.57  51 2.59  49 2.60  29 2.63  44 2.65  78 2.66  75 2.68
                            42 2.71  26 2.72  65 2.74  67 2.77
  33  0.036  0.634  0.316-  16 2.64  28 2.65  64 2.67  30 2.68  12 2.70   5 2.70  42 2.71  29 2.73
                             2 2.76   1 2.79   3 2.80  39 2.82
  34  0.795  0.860  0.060-  50 2.36  48 2.39  66 2.52  36 2.64  63 2.78  35 2.83  20 2.87  62 2.94
                            71 2.95
  35  0.047  0.861  0.053-  36 2.39  24 2.55  66 2.58  58 2.58  72 2.69  34 2.83  23 2.85  53 2.93
                            62 2.95
  36  0.049  0.647  0.061-  35 2.39  58 2.50  21 2.52  50 2.57  34 2.64  72 2.66  47 2.76
  37  0.626  0.239  0.134-  67 2.49  56 2.50  74 2.51  20 2.53  59 2.54  51 2.54  41 2.55  62 2.55
                            68 2.57  66 2.78
  38  0.381  0.951  0.136-  45 2.39  53 2.44  80 2.45  55 2.48  78 2.51  63 2.53  54 2.55  73 2.57
                            48 2.65  57 2.76  24 2.78  70 2.88
  39  0.031  0.384  0.320-  42 2.60  31 2.61   7 2.62   5 2.63  10 2.63  29 2.65  65 2.67   3 2.69
                            75 2.71  22 2.72  33 2.82  43 3.00
  40  0.991  0.368  0.044-  69 2.32  76 2.41  21 2.51  23 2.55  71 2.58  70 2.61  45 3.10
  41  0.864  0.218  0.133-  77 2.41  76 2.42  67 2.52  69 2.54  37 2.55  65 2.56  23 2.57  62 2.59
                            66 2.64  70 2.68  51 2.78  24 2.96
  42  0.952  0.535  0.222-  50 2.47  29 2.55  39 2.60  21 2.63  28 2.63  65 2.64  69 2.64  32 2.71
                            33 2.71  64 2.74  49 2.79  31 2.81
  43  0.299  0.114  0.319-  55 2.52   8 2.57  31 2.58  80 2.59  52 2.64  19 2.66  10 2.66  13 2.66
                            61 2.70  22 2.71   3 2.79  39 3.00
  44  0.542  0.625  0.320-  14 2.59  15 2.60  27 2.62  78 2.63  26 2.64  32 2.65  75 2.68  18 2.75
                            61 2.75  52 2.78  29 2.84  30 2.92
  45  0.281  0.106  0.052-  38 2.39  70 2.42  53 2.44  57 2.60  63 2.70  23 2.76  40 3.10  20 3.10

  46  0.539  0.630  0.048-  51 2.37  73 2.39  54 2.40  71 2.49  53 2.71  72 2.73  56 2.75  76 2.79
                            63 2.82
  47  0.298  0.402  0.056-  74 2.25  21 2.49  72 2.50  56 2.57  57 2.64  36 2.76  20 2.95
  48  0.623  0.941  0.138-  49 2.33  34 2.39  80 2.48  63 2.51  54 2.53  20 2.56  59 2.60  38 2.65
                            50 2.74  57 2.91  66 2.95
  49  0.703  0.787  0.220-  48 2.33  50 2.44  54 2.51   1 2.55  32 2.60  78 2.63  61 2.63  29 2.64
                            28 2.69  80 2.69  42 2.79
  50  0.849  0.681  0.131-  71 2.36  34 2.36  49 2.44  42 2.47  54 2.49  69 2.54  28 2.56  36 2.57
                            48 2.74  21 2.80
  51  0.617  0.470  0.130-  46 2.37  76 2.43  56 2.53  37 2.54  26 2.55  69 2.59  32 2.59  74 2.59
                            67 2.66  73 2.69  54 2.77  41 2.78
  52  0.298  0.878  0.318-  55 2.40  79 2.41  78 2.55   8 2.59   6 2.62  14 2.62  43 2.64  61 2.67
                            44 2.78  22 2.82  30 2.90   2 2.91
  53  0.301  0.878  0.048-  73 2.42  38 2.44  45 2.44  24 2.59  63 2.67  46 2.71  72 2.83  23 2.93
                            35 2.93
  54  0.609  0.722  0.131-  46 2.40  71 2.46  63 2.47  50 2.49  49 2.51  73 2.52  48 2.53  38 2.55
                            78 2.55  32 2.57  51 2.77  69 2.94
  55  0.234  0.021  0.228-  52 2.40  79 2.48  38 2.48  43 2.52  80 2.52  78 2.53  22 2.56  24 2.59
                            31 2.60  70 2.72  77 2.99
  56  0.535  0.386  0.041-  74 2.48  37 2.50  51 2.53  47 2.57  76 2.59  72 2.69  46 2.75  20 2.85

  57  0.365  0.206  0.138-  68 2.52  20 2.54  31 2.57  80 2.59  45 2.60  47 2.64  38 2.76  21 2.77
                            70 2.86  48 2.91
  58  0.163  0.703  0.145-  72 2.42  79 2.43  64 2.44  36 2.50  28 2.55  73 2.57  35 2.58  24 2.65
                            74 2.68
  59  0.694  0.064  0.219-  66 2.45  37 2.54  19 2.56  60 2.57  48 2.60   1 2.61  68 2.65  67 2.77
                            77 2.85  80 2.87  28 3.09
  60  0.788  0.132  0.312-  77 2.50  67 2.51  59 2.57   9 2.66   4 2.67  17 2.71  18 2.75   2 2.81
                             1 2.82  75 2.86  19 2.90  22 2.91
  61  0.541  0.872  0.316-  78 2.45  80 2.50  49 2.63  27 2.67  52 2.67  11 2.68   8 2.69  43 2.70
                            44 2.75   1 2.78  19 2.79  29 2.81
  62  0.785  0.126  0.043-  66 2.50  37 2.55  41 2.59  76 2.65  20 2.66  23 2.68  34 2.94  35 2.95

  63  0.537  0.883  0.044-  54 2.47  48 2.51  38 2.53  53 2.67  45 2.70  34 2.78  20 2.78  46 2.82
                            71 2.86
  64  0.202  0.525  0.219-  58 2.44   3 2.54  74 2.63  33 2.67  30 2.68  68 2.69  42 2.74  21 2.75
                            28 2.78  31 2.89  26 3.02
  65  0.940  0.305  0.225-  69 2.47  22 2.53  75 2.54  41 2.56  67 2.57  77 2.57  70 2.62  42 2.64
                            31 2.64  39 2.67  32 2.74
  66  0.865  0.981  0.137-  59 2.45  77 2.50  62 2.50  34 2.52  35 2.58  28 2.62  41 2.64  37 2.78
                            24 2.83  48 2.95
  67  0.711  0.303  0.226-  37 2.49  60 2.51  41 2.52  18 2.54  65 2.57  75 2.57  77 2.59  51 2.66
                            32 2.77  59 2.77  26 2.85
  68  0.453  0.297  0.222-  74 2.45  57 2.52  19 2.56  37 2.57  18 2.62  59 2.65   3 2.66  64 2.69
                            26 2.91  31 3.08
  69  0.859  0.448  0.132-  40 2.32  71 2.45  65 2.47  76 2.48  32 2.53  41 2.54  50 2.54  51 2.59
                            42 2.64  21 2.69  70 2.82  54 2.94
  70  0.113  0.198  0.134-  45 2.42  31 2.50  23 2.58  40 2.61  24 2.62  65 2.62  21 2.63  41 2.68
                            55 2.72  69 2.82  57 2.86  38 2.88
  71  0.771  0.610  0.046-  50 2.36  69 2.45  54 2.46  46 2.49  40 2.58  76 2.67  63 2.86  34 2.95

  72  0.296  0.627  0.052-  58 2.42  74 2.47  73 2.49  47 2.50  36 2.66  56 2.69  35 2.69  46 2.73
                            53 2.83
  73  0.384  0.719  0.133-  46 2.39  53 2.42  72 2.49  26 2.50  54 2.52  79 2.53  58 2.57  38 2.57
                            78 2.57  51 2.69  24 2.74  74 2.90
  74  0.393  0.455  0.135-  47 2.25  68 2.45  72 2.47  56 2.48  26 2.48  37 2.51  51 2.59  64 2.63
                            58 2.68  73 2.90
  75  0.786  0.389  0.319-  65 2.54  67 2.57  15 2.63   9 2.63   7 2.63  32 2.68  44 2.68  29 2.69
                            39 2.71  18 2.78  60 2.86  22 2.89
  76  0.775  0.368  0.045-  40 2.41  41 2.42  51 2.43  69 2.48  56 2.59  62 2.65  71 2.67  23 2.76
                            46 2.79
  77  0.945  0.072  0.222-  41 2.41  66 2.50  60 2.50  22 2.53   2 2.57  65 2.57  24 2.58  67 2.59
                            59 2.85  55 2.99
  78  0.463  0.796  0.227-  61 2.45  38 2.51  80 2.52  79 2.53  55 2.53  52 2.55  54 2.55  73 2.57
                            44 2.63  49 2.63  32 2.66  26 2.73
  79  0.235  0.799  0.228-  52 2.41  58 2.43  55 2.48  24 2.50  30 2.52   2 2.52  78 2.53  73 2.53
                            26 2.59
  80  0.459  0.025  0.225-  38 2.45  48 2.48  61 2.50  78 2.52  55 2.52  19 2.53  57 2.59  43 2.59
                            49 2.69  59 2.87  31 2.88
  81  0.130  0.839  0.461-   6 1.72  16 1.82
 
  LATTYP: Found a hexagonal cell.
 ALAT       =    11.1599998474
 C/A-ratio  =     1.9713261918
  
  Lattice vectors:
  
 A1 = (   5.5799999237,  -9.6648433741,   0.0000000000)
 A2 = ( -11.1599998474,   0.0000000000,   0.0000000000)
 A3 = (   0.0000000000,   0.0000000000, -22.0000000000)


Analysis of symmetry for initial positions (statically):
=====================================================================
 Subroutine PRICEL returns:
 Original cell was already a primitive cell.
 

 Routine SETGRP: Setting up the symmetry group for a 
 hexagonal supercell.


 Subroutine GETGRP returns: Found  1 space group operations
 (whereof  1 operations were pure point group operations)
 out of a pool of 24 trial point group operations.


The static configuration has the point symmetry C_1 .


Analysis of symmetry for dynamics (positions and initial velocities):
=====================================================================
 Subroutine PRICEL returns:
 Original cell was already a primitive cell.
 

 Routine SETGRP: Setting up the symmetry group for a 
 hexagonal supercell.


 Subroutine GETGRP returns: Found  1 space group operations
 (whereof  1 operations were pure point group operations)
 out of a pool of 24 trial point group operations.


The dynamic configuration has the point symmetry C_1 .


Analysis of constrained symmetry for selective dynamics:
=====================================================================
 Subroutine PRICEL returns:
 Original cell was already a primitive cell.
 

 Routine SETGRP: Setting up the symmetry group for a 
 hexagonal supercell.


 Subroutine GETGRP returns: Found  1 space group operations
 (whereof  1 operations were pure point group operations)
 out of a pool of 24 trial point group operations.


The constrained configuration has the point symmetry C_1 .


Analysis of structural, dynamic, and magnetic symmetry:
=====================================================================
 Subroutine PRICEL returns:
 Original cell was already a primitive cell.
 

 Routine SETGRP: Setting up the symmetry group for a 
 hexagonal supercell.


 Subroutine GETGRP returns: Found  1 space group operations
 (whereof  1 operations were pure point group operations)
 out of a pool of 24 trial point group operations.


The magnetic configuration has the point symmetry C_1 .


 Subroutine INISYM returns: Found  1 space group operations
 (whereof  1 operations are pure point group operations),
 and found     1 'primitive' translations

 
 
 KPOINTS: mesh auto                               

Automatic generation of k-mesh.
Space group operators:
 irot       det(A)        alpha          n_x          n_y          n_z        tau_x        tau_y        tau_z
    1     1.000000     0.000000     1.000000     0.000000     0.000000     0.000000     0.000000     0.000000
 
 Subroutine IBZKPT returns following result:
 ===========================================
 
 Found      4 irreducible k-points:
 
 Following reciprocal coordinates:
            Coordinates               Weight
  0.000000  0.000000  0.000000      1.000000
  0.500000  0.000000  0.000000      1.000000
  0.000000  0.500000  0.000000      1.000000
  0.500000  0.500000  0.000000      1.000000
 
 Following cartesian coordinates:
            Coordinates               Weight
  0.000000  0.000000  0.000000      1.000000
  0.044803 -0.025867  0.000000      1.000000
  0.000000  0.051734  0.000000      1.000000
  0.044803  0.025867  0.000000      1.000000
 


--------------------------------------------------------------------------------------------------------




 Dimension of arrays:
   k-points           NKPTS =      4   k-points in BZ     NKDIM =      4   number of bands    NBANDS=    588
   number of dos      NEDOS =    301   number of ions     NIONS =     81
   non local maximal  LDIM  =      6   non local SUM 2l+1 LMDIM =     18
   total plane-waves  NPLWV = ******
   max r-space proj   IRMAX =   8018   max aug-charges    IRDMAX=  34929
   dimension x,y,z NGX =    90 NGY =   90 NGZ =  168
   dimension x,y,z NGXF=   180 NGYF=  180 NGZF=  336
   support grid    NGXF=   180 NGYF=  180 NGZF=  336
   ions per type =              32  13  10  13  12   1
   NGX,Y,Z   is equivalent  to a cutoff of  13.41, 13.41, 12.70 a.u.
   NGXF,Y,Z  is equivalent  to a cutoff of  26.81, 26.81, 25.39 a.u.

 SYSTEM =  Pt111                                   
 POSCAR =  11.16                                   

 Startparameter for this run:
   NWRITE =      2    write-flag & timer
   PREC   = accura    normal or accurate (medium, high low for compatibility)
   ISTART =      0    job   : 0-new  1-cont  2-samecut
   ICHARG =      2    charge: 1-file 2-atom 10-const
   ISPIN  =      2    spin polarized calculation?
   LNONCOLLINEAR =      F non collinear calculations
   LSORBIT =      F    spin-orbit coupling
   INIWAV =      1    electr: 0-lowe 1-rand  2-diag
   LASPH  =      F    aspherical Exc in radial PAW
   METAGGA=      F    non-selfconsistent MetaGGA calc.

 Electronic Relaxation 1
   ENCUT  =  550.0 eV  40.42 Ry    6.36 a.u.  21.34 21.34 42.07*2*pi/ulx,y,z
   ENINI  =  550.0     initial cutoff
   ENAUG  =  587.0 eV  augmentation charge cutoff
   NELM   =    200;   NELMIN=  2; NELMDL= -5     # of ELM steps 
   EDIFF  = 0.1E-04   stopping-criterion for ELM
   LREAL  =      T    real-space projection
   NLSPLINE    = F    spline interpolate recip. space projectors
   LCOMPAT=      F    compatible to vasp.4.4
   GGA_COMPAT  = T    GGA compatible to vasp.4.4-vasp.4.6
   LMAXPAW     = -100 max onsite density
   LMAXMIX     =    2 max onsite mixed and CHGCAR
   VOSKOWN=      0    Vosko Wilk Nusair interpolation
   ROPT   =   -0.00025  -0.00025  -0.00025  -0.00025
   ROPT   =   -0.00025  -0.00025
 Ionic relaxation
   EDIFFG = -.5E-01   stopping-criterion for IOM
   NSW    =    300    number of steps for IOM
   NBLOCK =      1;   KBLOCK =    300    inner block; outer block 
   IBRION =      2    ionic relax: 0-MD 1-quasi-New 2-CG
   NFREE  =      1    steps in history (QN), initial steepest desc. (CG)
   ISIF   =      2    stress and relaxation
   IWAVPR =     11    prediction:  0-non 1-charg 2-wave 3-comb
   ISYM   =      2    0-nonsym 1-usesym 2-fastsym
   LCORR  =      T    Harris-Foulkes like correction to forces

   POTIM  = 0.5000    time-step for ionic-motion
   TEIN   =    0.0    initial temperature
   TEBEG  =    0.0;   TEEND  =   0.0 temperature during run
   SMASS  =  -3.00    Nose mass-parameter (am)
   estimated Nose-frequenzy (Omega)   =  0.10E-29 period in steps =****** mass=  -0.285E-26a.u.
   SCALEE = 1.0000    scale energy and forces
   NPACO  =    256;   APACO  = 16.0  distance and # of slots for P.C.
   PSTRESS=    0.0 pullay stress

  Mass of Ions in am
   POMASS = 195.08 55.85 58.93 63.55 58.69  1.00
  Ionic Valenz
   ZVAL   =  10.00  8.00  9.00 11.00 10.00  1.00
  Atomic Wigner-Seitz radii
   RWIGS  =  -1.00 -1.00 -1.00 -1.00 -1.00 -1.00
  virtual crystal weights 
   VCA    =   1.00  1.00  1.00  1.00  1.00  1.00
   NELECT =     778.0000    total number of electrons
   NUPDOWN=      -1.0000    fix difference up-down

 DOS related values:
   EMIN   =  10.00;   EMAX   =-10.00  energy-range for DOS
   EFERMI =   0.00
   ISMEAR =     1;   SIGMA  =   0.10  broadening in eV -4-tet -1-fermi 0-gaus

 Electronic relaxation 2 (details)
   IALGO  =     68    algorithm
   LDIAG  =      T    sub-space diagonalisation (order eigenvalues)
   LSUBROT=      F    optimize rotation matrix (better conditioning)
   TURBO    =      0    0=normal 1=particle mesh
   IRESTART =      0    0=no restart 2=restart with 2 vectors
   NREBOOT  =      0    no. of reboots
   NMIN     =      0    reboot dimension
   EREF     =   0.00    reference energy to select bands
   IMIX   =      4    mixing-type and parameters
     AMIX     =   0.40;   BMIX     =  1.00
     AMIX_MAG =   1.60;   BMIX_MAG =  1.00
     AMIN     =   0.10
     WC   =   100.;   INIMIX=   1;  MIXPRE=   1;  MAXMIX= -45

 Intra band minimization:
   WEIMIN = 0.0010     energy-eigenvalue tresh-hold
   EBREAK =  0.43E-08  absolut break condition
   DEPER  =   0.30     relativ break condition  

   TIME   =   0.40     timestep for ELM

  volume/ion in A,a.u.               =      29.30       197.69
  Fermi-wavevector in a.u.,A,eV,Ry     =   1.128862  2.133240 17.338300  1.274329
  Thomas-Fermi vector in A             =   2.265553
 
 Write flags
   LWAVE        =      F    write WAVECAR
   LDOWNSAMPLE  =      F    k-point downsampling of WAVECAR
   LCHARG       =      F    write CHGCAR
   LVTOT        =      F    write LOCPOT, total local potential
   LVHAR        =      F    write LOCPOT, Hartree potential only
   LELF         =      F    write electronic localiz. function (ELF)
   LORBIT       =      0    0 simple, 1 ext, 2 COOP (PROOUT), +10 PAW based schemes


 Dipole corrections
   LMONO  =      F    monopole corrections only (constant potential shift)
   LDIPOL =      F    correct potential (dipole corrections)
   IDIPOL =      0    1-x, 2-y, 3-z, 4-all directions 
   EPSILON=  1.0000000 bulk dielectric constant

 Exchange correlation treatment:
   GGA     =    --    GGA type
   LEXCH   =     8    internal setting for exchange type
   VOSKOWN=      0    Vosko Wilk Nusair interpolation
   LHFCALC =     F    Hartree Fock is set to
   LHFONE  =     F    Hartree Fock one center treatment
   AEXX    =    0.0000 exact exchange contribution

 Linear response parameters
   LEPSILON=     F    determine dielectric tensor
   LRPA    =     F    only Hartree local field effects (RPA)
   LNABLA  =     F    use nabla operator in PAW spheres
   LVEL    =     F    velocity operator in full k-point grid
   LINTERFAST=   F  fast interpolation
   KINTER  =     0    interpolate to denser k-point grid
   CSHIFT  =0.1000    complex shift for real part using Kramers Kronig
   OMEGAMAX=  -1.0    maximum frequency
   DEG_THRESHOLD= 0.2000000E-02 threshold for treating states as degnerate
   RTIME   =   -0.100 relaxation time in fs
  (WPLASMAI=    0.000 imaginary part of plasma frequency in eV, 0.658/RTIME)
   DFIELD  = 0.0000000 0.0000000 0.0000000 field for delta impulse in time
 
 Orbital magnetization related:
   ORBITALMAG=     F  switch on orbital magnetization
   LCHIMAG   =     F  perturbation theory with respect to B field
   DQ        =  0.001000  dq finite difference perturbation B field
   LLRAUG    =     F  two centre corrections for induced B field



--------------------------------------------------------------------------------------------------------


 conjugate gradient relaxation of ions
   using selective dynamics as specified on POSCAR
   WARNING: If single coordinates had been selected the selection of coordinates
            is made according to the corresponding   d i r e c t   coordinates!
            Don't support selection of single cartesian coordinates -- sorry ...
  !
 charge density and potential will be updated during run
 spin polarized calculation
 RMM-DIIS sequential band-by-band and
  variant of blocked Davidson during initial phase
 perform sub-space diagonalisation
    before iterative eigenvector-optimisation
 modified Broyden-mixing scheme, WC =      100.0
 initial mixing is a Kerker type mixing with AMIX =  0.4000 and BMIX =      1.0000
 Hartree-type preconditioning will be used
 using additional bands          199
 real space projection scheme for non local part
 use partial core corrections
 calculate Harris-corrections to forces 
   (improved forces if not selfconsistent)
 use gradient corrections 
 use of overlap-Matrix (Vanderbilt PP)
 Methfessel and Paxton  Order N= 1 SIGMA  =   0.10


--------------------------------------------------------------------------------------------------------


  energy-cutoff  :      550.00
  volume of cell :     2372.91
      direct lattice vectors                 reciprocal lattice vectors
    11.159999847  0.000000000  0.000000000     0.089605736 -0.051733896  0.000000000
     5.579999924  9.664843374  0.000000000     0.000000000  0.103467792  0.000000000
     0.000000000  0.000000000 22.000000000     0.000000000  0.000000000  0.045454545

  length of vectors
    11.159999847 11.159999847 22.000000000     0.103467792  0.103467792  0.045454545


 
 k-points in units of 2pi/SCALE and weight: mesh auto                               
   0.00000000  0.00000000  0.00000000       0.250
   0.04480287 -0.02586695  0.00000000       0.250
   0.00000000  0.05173390  0.00000000       0.250
   0.04480287  0.02586695  0.00000000       0.250
 
 k-points in reciprocal lattice and weights: mesh auto                               
   0.00000000  0.00000000  0.00000000       0.250
   0.50000000  0.00000000  0.00000000       0.250
   0.00000000  0.50000000  0.00000000       0.250
   0.50000000  0.50000000  0.00000000       0.250
 
 position of ions in fractional coordinates (direct lattice) 
   0.78388407  0.88132154  0.30696479
   0.03810103  0.87968187  0.30208629
   0.27710691  0.37420275  0.31405425
   0.87359232  0.96450559  0.40812939
   0.11190157  0.46980633  0.41465139
   0.12367127  0.95753857  0.40853925
   0.87405485  0.45605351  0.41689218
   0.37190362  0.95913158  0.41365528
   0.87073798  0.21173452  0.40915819
   0.12649075  0.21346429  0.41311602
   0.62449701  0.95829718  0.41204366
   0.87055142  0.71544534  0.41426715
   0.37637660  0.20470360  0.41512567
   0.37370107  0.71132153  0.41168343
   0.62491081  0.46184571  0.41452191
   0.11864444  0.71272833  0.41257945
   0.62406804  0.20889166  0.41166843
   0.54207971  0.37903850  0.31410885
   0.53053565  0.12648910  0.31038365
   0.54793603  0.12559094  0.05562120
   0.10504726  0.43654782  0.12441709
   0.04829221  0.13333213  0.31073477
   0.02529082  0.12493247  0.04047369
   0.13026485  0.95528544  0.13817680
   0.36817219  0.46102868  0.41431011
   0.45509049  0.55651272  0.22154554
   0.62026330  0.71071365  0.41475716
   0.95094057  0.77081544  0.21154233
   0.79698417  0.62401426  0.31607595
   0.27891846  0.62839764  0.31158998
   0.19082330  0.27236719  0.22566964
   0.69919994  0.55613805  0.22166573
   0.03625342  0.63438126  0.31566694
   0.79467647  0.85972118  0.06032101
   0.04722771  0.86083187  0.05262433
   0.04859995  0.64677341  0.06148323
   0.62562354  0.23868534  0.13390052
   0.38129809  0.95058438  0.13575460
   0.03122184  0.38448376  0.32010579
   0.99126956  0.36841850  0.04402170
   0.86350131  0.21842123  0.13306086
   0.95183731  0.53532270  0.22231013
   0.29918332  0.11430982  0.31907257
   0.54188606  0.62496889  0.32026419
   0.28073741  0.10572062  0.05217040
   0.53898716  0.62972570  0.04826805
   0.29843692  0.40217147  0.05639190
   0.62299507  0.94105548  0.13847503
   0.70309498  0.78725245  0.22023275
   0.84927807  0.68065811  0.13125409
   0.61676727  0.47016329  0.13003533
   0.29778424  0.87809113  0.31760946
   0.30104323  0.87798772  0.04776903
   0.60856387  0.72205278  0.13067254
   0.23442975  0.02118691  0.22845648
   0.53458295  0.38611139  0.04113969
   0.36549861  0.20554464  0.13827492
   0.16323487  0.70328636  0.14532740
   0.69430872  0.06353648  0.21923850
   0.78798624  0.13204834  0.31158304
   0.54052530  0.87169603  0.31627885
   0.78467988  0.12564699  0.04279190
   0.53720865  0.88323237  0.04365230
   0.20177430  0.52532489  0.21944794
   0.93965768  0.30525856  0.22474547
   0.86501396  0.98099372  0.13695687
   0.71102907  0.30256943  0.22580825
   0.45342655  0.29690968  0.22156689
   0.85908571  0.44811144  0.13181704
   0.11348559  0.19767859  0.13378399
   0.77114523  0.60971805  0.04620503
   0.29563368  0.62728335  0.05225088
   0.38421747  0.71875814  0.13293049
   0.39253970  0.45501358  0.13517071
   0.78633967  0.38894826  0.31861123
   0.77506619  0.36811979  0.04526885
   0.94496148  0.07237666  0.22177850
   0.46334471  0.79628971  0.22743685
   0.23540543  0.79883680  0.22766226
   0.45873779  0.02460247  0.22481212
   0.13047703  0.83928477  0.46091140
 
 position of ions in cartesian coordinates  (Angst):
  13.66592026  8.51783467  6.75322534
   5.33383226  8.50198745  6.64589834
   5.18056440  3.61661101  6.90919352
  15.13123131  9.32179546  8.97884656
   3.87034082  4.54060460  9.12233067
   6.72323656  9.25446033  8.98786354
  12.29923057  4.40768575  9.17162800
   9.50239850  9.26985646  9.10041618
  10.89891433  2.04638099  9.00148009
   2.60276747  2.06309891  9.08855248
  12.31668472  9.26179218  9.06496048
  13.70753861  6.91466712  9.11387730
   5.34260893  1.97842824  9.13276481
   8.13967800  6.87481118  9.05703544
   9.55110359  4.46366644  9.11948204
   5.30109596  6.88840771  9.07674790
   8.13021469  2.01890517  9.05670548
   8.16464424  3.66334773  6.91039468
   6.62658691  1.22249734  6.82844019
   6.81576348  1.21381676  1.22366642
   3.60826420  4.21916628  2.73717594
   1.28293430  1.28863418  6.83616496
   0.97936869  1.20745277  0.89042116
   6.78424835  9.23268414  3.03988958
   6.68134164  4.45577001  9.11482240
   8.18415069  5.37860823  4.87400199
  10.88792038  6.86893606  9.12465763
  14.91364670  7.44981051  4.65393115
  12.37634277  6.03100013  6.95367099
   6.61918878  6.07336474  6.85497952
   3.64939690  2.63238621  4.96473217
  10.90632152  5.37498713  4.87664604
   3.94443559  6.13119555  6.94467259
  13.66583347  8.30907059  1.32706224
   5.33050299  8.31980515  1.15773524
   4.15137100  6.25096369  1.35263108
   8.31382275  2.30685640  2.94581151
   9.55954743  9.18724919  2.98660111
   2.49385500  3.71597528  7.04232740
  13.11834335  3.56070709  0.96847749
  10.85546493  2.11100698  2.92733883
  13.60960483  5.17381000  4.89082288
   3.97673464  1.10478652  7.01959658
   9.53477477  6.04022645  7.04581214
   3.72295046  1.02177321  1.14774882
   9.52896595  6.08620024  1.06189717
   5.57467270  3.88692427  1.24062180
  12.20371438  9.09515381  3.04645062
  12.23940849  7.60867166  4.84512043
  13.27601528  6.57845401  2.88758994
   9.50663376  4.54405451  2.86077715
   8.22302056  8.48661328  6.98740816
   8.25881386  8.48561383  1.05091857
  10.82062721  6.97852707  2.87479592
   2.73445892  0.20476814  5.02604247
   8.12044716  3.73170614  0.90507316
   5.22590351  1.98655677  3.04204822
   5.74603891  6.79715252  3.19720269
   8.10301876  0.61407012  4.82324696
   9.53075600  1.27622652  6.85482692
  10.89632607  8.42480564  6.95813466
   9.45813751  1.21435845  0.94142187
  10.92368507  8.53630257  0.96035051
   5.18311405  5.07718277  4.82785464
  12.18992233  2.95027613  4.94440032
  15.12750054  9.48115063  3.01305103
   9.62342168  2.92428613  4.96778154
   6.71699620  2.86958551  4.87447167
  12.08785820  4.33092689  2.89997481
   2.36954570  1.91053259  2.94324780
  12.00820732  5.89282942  1.01651062
   6.79951286  6.06259537  1.14951932
   8.29853726  6.94668484  2.92447067
   6.91971874  4.39763498  2.97375560
  10.94588184  3.75912404  7.00944710
  10.70384693  3.55782008  0.99591470
  10.94963169  0.69950908  4.87912702
   9.61422348  7.69601536  5.00361061
   7.08463382  7.72063255  5.00856972
   5.25679540  0.23777902  4.94586657
   6.13933259  8.11155582 10.14005084
 


--------------------------------------------------------------------------------------------------------


 k-point  1 :   0.0000 0.0000 0.0000  plane waves:   69505
 k-point  2 :   0.5000 0.0000 0.0000  plane waves:   69454
 k-point  3 :   0.0000 0.5000 0.0000  plane waves:   69454
 k-point  4 :   0.5000 0.5000 0.0000  plane waves:   69454

 maximum and minimum number of plane-waves per node :     17422    17318

 maximum number of plane-waves:     69505
 maximum index in each direction: 
   IXMAX=   21   IYMAX=   21   IZMAX=   42
   IXMIN=  -21   IYMIN=  -21   IZMIN=  -42


 real space projection operators:
  total allocation   :      79977.79 KBytes
  max/ min on nodes  :      20457.04      19522.15


 parallel 3D FFT for wavefunctions:
    minimum data exchange during FFTs selected (reduces bandwidth)
 parallel 3D FFT for charge:
    minimum data exchange during FFTs selected (reduces bandwidth)


 total amount of memory used by VASP MPI-rank0   251635. kBytes
=======================================================================

   base      :      30000. kBytes
   nonlr-proj:      36178. kBytes
   fftplans  :      18294. kBytes
   grid      :      55120. kBytes
   one-center:        653. kBytes
   wavefun   :     111390. kBytes
 
     INWAV:  cpu time    0.0001: real time    0.0006
 Broyden mixing: mesh for mixing (old mesh)
   NGX = 43   NGY = 43   NGZ = 85
  (NGX  =180   NGY  =180   NGZ  =336)
  gives a total of 157165 points

 initial charge density was supplied:
 charge density of overlapping atoms calculated
 number of electron     778.0000000 magnetization     231.0000000
 keeping initial charge density in first step


--------------------------------------------------------------------------------------------------------


 Maximum index for non-local projection operator         2138
 Maximum index for augmentation-charges         1125 (set IRDMAX)


--------------------------------------------------------------------------------------------------------


 First call to EWALD:  gamma=   0.133
 Maximum number of real-space cells 4x 4x 2
 Maximum number of reciprocal cells 2x 2x 4

    FEWALD:  cpu time    0.0071: real time    0.0071


--------------------------------------- Iteration      1(   1)  ---------------------------------------


    POTLOK:  cpu time    0.4291: real time    0.4813
    SETDIJ:  cpu time    0.0327: real time    0.0328
     EDDAV:  cpu time   66.4035: real time   66.6482
       DOS:  cpu time    0.0022: real time    0.0044
    --------------------------------------------
      LOOP:  cpu time   66.8675: real time   67.1667

 eigenvalue-minimisations  :  9408
 total energy-change (2. order) : 0.7572915E+04  (-0.3278111E+05)
 number of electron     778.0000000 magnetization     231.0000000
 augmentation part      778.0000000 magnetization     231.0000000

 Free energy of the ion-electron system (eV)
  ---------------------------------------------------
  alpha Z        PSCENC =      2004.68801245
  Ewald energy   TEWEN  =    221869.07631744
  -Hartree energ DENC   =   -293413.03712324
  -exchange      EXHF   =         0.00000000
  -V(xc)+E(xc)   XCENC  =      1373.13398311
  PAW double counting   =     64136.80006862   -66038.70876209
  entropy T*S    EENTRO =        -0.00060433
  eigenvalues    EBANDS =      7422.30831583
  atomic energy  EATOM  =     70218.65458108
  Solvation  Ediel_sol  =         0.00000000
  ---------------------------------------------------
  free energy    TOTEN  =      7572.91478887 eV

  energy without entropy =     7572.91539320  energy(sigma->0) =     7572.91499031


--------------------------------------------------------------------------------------------------------




--------------------------------------- Iteration      1(   2)  ---------------------------------------


     EDDAV:  cpu time   66.4672: real time   66.6503
       DOS:  cpu time    0.0036: real time    0.0766
    --------------------------------------------
      LOOP:  cpu time   66.4708: real time   66.7269

 eigenvalue-minimisations  :  9408
 total energy-change (2. order) :-0.6825672E+04  (-0.6126223E+04)
 number of electron     778.0000000 magnetization     231.0000000
 augmentation part      778.0000000 magnetization     231.0000000

 Free energy of the ion-electron system (eV)
  ---------------------------------------------------
  alpha Z        PSCENC =      2004.68801245
  Ewald energy   TEWEN  =    221869.07631744
  -Hartree energ DENC   =   -293413.03712324
  -exchange      EXHF   =         0.00000000
  -V(xc)+E(xc)   XCENC  =      1373.13398311
  PAW double counting   =     64136.80006862   -66038.70876209
  entropy T*S    EENTRO =        -0.00119311
  eigenvalues    EBANDS =       596.63728699
  atomic energy  EATOM  =     70218.65458108
  Solvation  Ediel_sol  =         0.00000000
  ---------------------------------------------------
  free energy    TOTEN  =       747.24317125 eV

  energy without entropy =      747.24436436  energy(sigma->0) =      747.24356895


--------------------------------------------------------------------------------------------------------




--------------------------------------- Iteration      1(   3)  ---------------------------------------


     EDDAV:  cpu time   67.3558: real time   67.5530
       DOS:  cpu time    0.0026: real time    0.0063
    --------------------------------------------
      LOOP:  cpu time   67.3584: real time   67.5593

 eigenvalue-minimisations  :  9408
 total energy-change (2. order) :-0.1123613E+04  (-0.9119650E+03)
 number of electron     778.0000000 magnetization     231.0000000
 augmentation part      778.0000000 magnetization     231.0000000

 Free energy of the ion-electron system (eV)
  ---------------------------------------------------
  alpha Z        PSCENC =      2004.68801245
  Ewald energy   TEWEN  =    221869.07631744
  -Hartree energ DENC   =   -293413.03712324
  -exchange      EXHF   =         0.00000000
  -V(xc)+E(xc)   XCENC  =      1373.13398311
  PAW double counting   =     64136.80006862   -66038.70876209
  entropy T*S    EENTRO =        -0.00162948
  eigenvalues    EBANDS =      -526.97570444
  atomic energy  EATOM  =     70218.65458108
  Solvation  Ediel_sol  =         0.00000000
  ---------------------------------------------------
  free energy    TOTEN  =      -376.37025655 eV

  energy without entropy =     -376.36862707  energy(sigma->0) =     -376.36971339


--------------------------------------------------------------------------------------------------------




--------------------------------------- Iteration      1(   4)  ---------------------------------------


     EDDAV:  cpu time   80.4502: real time   80.7041
       DOS:  cpu time    0.0027: real time    0.0141
    --------------------------------------------
      LOOP:  cpu time   80.4529: real time   80.7181

 eigenvalue-minimisations  : 12012
 total energy-change (2. order) :-0.1117999E+03  (-0.1016860E+03)
 number of electron     778.0000000 magnetization     231.0000000
 augmentation part      778.0000000 magnetization     231.0000000

 Free energy of the ion-electron system (eV)
  ---------------------------------------------------
  alpha Z        PSCENC =      2004.68801245
  Ewald energy   TEWEN  =    221869.07631744
  -Hartree energ DENC   =   -293413.03712324
  -exchange      EXHF   =         0.00000000
  -V(xc)+E(xc)   XCENC  =      1373.13398311
  PAW double counting   =     64136.80006862   -66038.70876209
  entropy T*S    EENTRO =        -0.00662933
  eigenvalues    EBANDS =      -638.77055893
  atomic energy  EATOM  =     70218.65458108
  Solvation  Ediel_sol  =         0.00000000
  ---------------------------------------------------
  free energy    TOTEN  =      -488.17011089 eV

  energy without entropy =     -488.16348156  energy(sigma->0) =     -488.16790111


--------------------------------------------------------------------------------------------------------




--------------------------------------- Iteration      1(   5)  ---------------------------------------


     EDDAV:  cpu time   76.4154: real time   76.6392
       DOS:  cpu time    0.0027: real time    0.0200
    CHARGE:  cpu time    4.4263: real time    4.4436
    MIXING:  cpu time    0.0121: real time    0.0124
    --------------------------------------------
      LOOP:  cpu time   80.8565: real time   81.1152

 eigenvalue-minimisations  : 11280
 total energy-change (2. order) :-0.4280331E+01  (-0.4243027E+01)
 number of electron     778.0000012 magnetization     216.7108559
 augmentation part      335.6619559 magnetization     183.4937853

 Broyden mixing:
  rms(total) = 0.11168E+02    rms(broyden)= 0.11168E+02
  rms(prec ) = 0.11563E+02
  weight for this iteration     100.00

 Free energy of the ion-electron system (eV)
  ---------------------------------------------------
  alpha Z        PSCENC =      2004.68801245
  Ewald energy   TEWEN  =    221869.07631744
  -Hartree energ DENC   =   -293413.03712324
  -exchange      EXHF   =         0.00000000
  -V(xc)+E(xc)   XCENC  =      1373.13398311
  PAW double counting   =     64136.80006862   -66038.70876209
  entropy T*S    EENTRO =        -0.00613978
  eigenvalues    EBANDS =      -643.05137965
  atomic energy  EATOM  =     70218.65458108
  Solvation  Ediel_sol  =         0.00000000
  ---------------------------------------------------
  free energy    TOTEN  =      -492.45044206 eV

  energy without entropy =     -492.44430228  energy(sigma->0) =     -492.44839547


--------------------------------------------------------------------------------------------------------




--------------------------------------- Iteration      1(   6)  ---------------------------------------


    POTLOK:  cpu time    0.4125: real time    0.4326
    SETDIJ:  cpu time    0.0330: real time    0.0332
    EDDIAG:  cpu time   11.9251: real time   11.9674
  RMM-DIIS:  cpu time   43.2685: real time   43.4190
    ORTHCH:  cpu time    1.2915: real time    1.2968
       DOS:  cpu time    0.0023: real time    0.0023
    CHARGE:  cpu time    4.3049: real time    4.3163
    MIXING:  cpu time    0.0136: real time    0.0184
    --------------------------------------------
      LOOP:  cpu time   61.2516: real time   61.4861

 eigenvalue-minimisations  :  9698
 total energy-change (2. order) :-0.2683684E+03  (-0.1042034E+03)
 number of electron     778.0000023 magnetization     213.2110160
 augmentation part      407.6878695 magnetization     177.9627490

 Broyden mixing:
  rms(total) = 0.21576E+02    rms(broyden)= 0.21576E+02
  rms(prec ) = 0.28430E+02
  weight for this iteration     100.00

 eigenvalues of (default mixing * dielectric matrix)
  average eigenvalue GAMMA=   0.1865
  0.1865

 Free energy of the ion-electron system (eV)
  ---------------------------------------------------
  alpha Z        PSCENC =      2004.68801245
  Ewald energy   TEWEN  =    221869.07631744
  -Hartree energ DENC   =   -291806.32344070
  -exchange      EXHF   =         0.00000000
  -V(xc)+E(xc)   XCENC  =      1332.02043937
  PAW double counting   =     68342.83573018   -70017.64547776
  entropy T*S    EENTRO =        -0.00431929
  eigenvalues    EBANDS =     -2704.12071598
  atomic energy  EATOM  =     70218.65458108
  Solvation  Ediel_sol  =         0.00000000
  ---------------------------------------------------
  free energy    TOTEN  =      -760.81887321 eV

  energy without entropy =     -760.81455393  energy(sigma->0) =     -760.81743345


--------------------------------------------------------------------------------------------------------




--------------------------------------- Iteration      1(   7)  ---------------------------------------


    POTLOK:  cpu time    0.4095: real time    0.4247
    SETDIJ:  cpu time    0.0332: real time    0.0332
    EDDIAG:  cpu time   11.9556: real time   11.9887
  RMM-DIIS:  cpu time   42.1036: real time   42.2277
    ORTHCH:  cpu time    1.2921: real time    1.2959
       DOS:  cpu time    0.0025: real time    0.0025
    CHARGE:  cpu time    4.3311: real time    4.3434
    MIXING:  cpu time    0.0124: real time    0.0125
    --------------------------------------------
      LOOP:  cpu time   60.1401: real time   60.3285

 eigenvalue-minimisations  :  9433
 total energy-change (2. order) : 0.2847221E+03  (-0.1597561E+02)
 number of electron     778.0000020 magnetization     208.4328237
 augmentation part      375.5434840 magnetization     164.5985434

 Broyden mixing:
  rms(total) = 0.13763E+02    rms(broyden)= 0.13763E+02
  rms(prec ) = 0.17423E+02
  weight for this iteration     100.00

 eigenvalues of (default mixing * dielectric matrix)
  average eigenvalue GAMMA=   0.2583
  0.3394  0.1772

 Free energy of the ion-electron system (eV)
  ---------------------------------------------------
  alpha Z        PSCENC =      2004.68801245
  Ewald energy   TEWEN  =    221869.07631744
  -Hartree energ DENC   =   -292453.41340157
  -exchange      EXHF   =         0.00000000
  -V(xc)+E(xc)   XCENC  =      1349.72513075
  PAW double counting   =     69244.14271282   -71066.26216975
  entropy T*S    EENTRO =        -0.00166677
  eigenvalues    EBANDS =     -1642.70633802
  atomic energy  EATOM  =     70218.65458108
  Solvation  Ediel_sol  =         0.00000000
  ---------------------------------------------------
  free energy    TOTEN  =      -476.09682158 eV

  energy without entropy =     -476.09515481  energy(sigma->0) =     -476.09626599


--------------------------------------------------------------------------------------------------------




--------------------------------------- Iteration      1(   8)  ---------------------------------------


    POTLOK:  cpu time    0.4095: real time    0.4269
    SETDIJ:  cpu time    0.0332: real time    0.0333
    EDDIAG:  cpu time   11.9527: real time   11.9854
  RMM-DIIS:  cpu time   42.1814: real time   42.3009
    ORTHCH:  cpu time    1.2949: real time    1.2984
       DOS:  cpu time    0.0025: real time    0.0025
    CHARGE:  cpu time    4.1966: real time    4.2079
    MIXING:  cpu time    0.0128: real time    0.0130
    --------------------------------------------
      LOOP:  cpu time   60.0836: real time   60.2681

 eigenvalue-minimisations  :  9435
 total energy-change (2. order) : 0.1278289E+02  (-0.1532062E+02)
 number of electron     778.0000011 magnetization     201.1893338
 augmentation part      376.5491254 magnetization     162.8921872

 Broyden mixing:
  rms(total) = 0.15782E+02    rms(broyden)= 0.15782E+02
  rms(prec ) = 0.18426E+02
  weight for this iteration     100.00

 eigenvalues of (default mixing * dielectric matrix)
  average eigenvalue GAMMA=   0.3171
  0.5922  0.2722  0.0870

 Free energy of the ion-electron system (eV)
  ---------------------------------------------------
  alpha Z        PSCENC =      2004.68801245
  Ewald energy   TEWEN  =    221869.07631744
  -Hartree energ DENC   =   -292646.89334798
  -exchange      EXHF   =         0.00000000
  -V(xc)+E(xc)   XCENC  =      1357.89548994
  PAW double counting   =     70378.12786266   -72281.08522589
  entropy T*S    EENTRO =         0.00024638
  eigenvalues    EBANDS =     -1363.77786861
  atomic energy  EATOM  =     70218.65458108
  Solvation  Ediel_sol  =         0.00000000
  ---------------------------------------------------
  free energy    TOTEN  =      -463.31393253 eV

  energy without entropy =     -463.31417891  energy(sigma->0) =     -463.31401466


--------------------------------------------------------------------------------------------------------




--------------------------------------- Iteration      1(   9)  ---------------------------------------


    POTLOK:  cpu time    0.4103: real time    0.4163
    SETDIJ:  cpu time    0.0332: real time    0.0333
    EDDIAG:  cpu time   12.0543: real time   12.0892
  RMM-DIIS:  cpu time   42.2570: real time   42.3703
    ORTHCH:  cpu time    1.2911: real time    1.2945
       DOS:  cpu time    0.0024: real time    0.0024
    CHARGE:  cpu time    4.2929: real time    4.3046
    MIXING:  cpu time    0.0131: real time    0.0132
    --------------------------------------------
      LOOP:  cpu time   60.3542: real time   60.5237

 eigenvalue-minimisations  :  9443
 total energy-change (2. order) : 0.5674191E+02  (-0.1658148E+02)
 number of electron     778.0000016 magnetization     193.8783985
 augmentation part      378.8484987 magnetization     146.0587649

 Broyden mixing:
  rms(total) = 0.13418E+02    rms(broyden)= 0.13418E+02
  rms(prec ) = 0.15228E+02
  weight for this iteration     100.00

 eigenvalues of (default mixing * dielectric matrix)
  average eigenvalue GAMMA=   0.3472
  0.8021  0.3638  0.1115  0.1115

 Free energy of the ion-electron system (eV)
  ---------------------------------------------------
  alpha Z        PSCENC =      2004.68801245
  Ewald energy   TEWEN  =    221869.07631744
  -Hartree energ DENC   =   -292482.73750330
  -exchange      EXHF   =         0.00000000
  -V(xc)+E(xc)   XCENC  =      1375.95572517
  PAW double counting   =     71671.03854343   -73632.43189359
  entropy T*S    EENTRO =         0.01055002
  eigenvalues    EBANDS =     -1430.82635471
  atomic energy  EATOM  =     70218.65458108
  Solvation  Ediel_sol  =         0.00000000
  ---------------------------------------------------
  free energy    TOTEN  =      -406.57202200 eV

  energy without entropy =     -406.58257202  energy(sigma->0) =     -406.57553868


--------------------------------------------------------------------------------------------------------




--------------------------------------- Iteration      1(  10)  ---------------------------------------


    POTLOK:  cpu time    0.4069: real time    0.4250
[...]
   -.166E+02 0.521E+02 -.270E+04   0.162E+02 -.513E+02 0.270E+04   0.447E+00 -.809E+00 0.174E+01   0.211E-01 -.446E-02 -.295E-04
   -.293E+02 0.923E+01 -.273E+04   0.285E+02 -.809E+01 0.272E+04   0.882E+00 -.115E+01 0.231E+01   -.769E-02 -.884E-02 -.222E-01
   0.203E+02 -.749E+01 -.270E+04   -.203E+02 0.675E+01 0.270E+04   0.635E-01 0.763E+00 -.295E-01   -.102E-01 -.493E-01 -.235E-02
   -.352E+02 -.126E+02 -.281E+04   0.354E+02 0.115E+02 0.281E+04   -.210E+00 0.107E+01 0.240E+01   0.371E-02 -.169E-01 -.204E-01
   0.235E+02 -.243E+02 -.281E+04   -.237E+02 0.247E+02 0.281E+04   0.262E+00 -.371E+00 0.294E+01   -.690E-02 0.120E-01 -.891E-02
   -.272E+02 0.432E+02 -.277E+04   0.267E+02 -.427E+02 0.277E+04   0.450E+00 -.597E+00 0.200E+01   0.528E-02 0.595E-02 -.153E-01
   -.467E+01 -.267E+01 -.275E+04   0.536E+01 0.290E+01 0.275E+04   -.686E+00 -.250E+00 0.267E+01   0.155E-01 0.251E-01 -.162E-01
   -.390E+02 -.159E+02 -.277E+04   0.393E+02 0.153E+02 0.277E+04   -.250E+00 0.609E+00 0.161E+01   0.150E-02 0.410E-02 -.526E-02
   -.359E+02 -.984E+01 -.273E+04   0.357E+02 0.952E+01 0.273E+04   0.155E+00 0.295E+00 0.205E+01   0.758E-02 0.790E-02 -.175E-01
   -.241E+01 -.451E+02 -.277E+04   0.224E+01 0.444E+02 0.277E+04   0.184E+00 0.721E+00 0.210E+01   -.100E-01 -.508E-02 -.113E-01
   0.618E+02 0.185E+02 -.274E+04   -.599E+02 -.188E+02 0.274E+04   -.199E+01 0.302E+00 0.277E+01   -.240E-01 0.115E-01 0.741E-02
   0.494E+02 -.134E+01 -.281E+04   -.486E+02 0.182E+01 0.280E+04   -.804E+00 -.439E+00 0.242E+01   -.527E-02 -.130E-01 0.476E-02
   0.868E+01 -.173E+01 -.271E+04   -.898E+01 0.980E+00 0.271E+04   0.284E+00 0.742E+00 0.863E+00   0.151E-01 0.223E-01 -.489E-01
   0.334E+02 -.478E+01 -.277E+04   -.333E+02 0.506E+01 0.277E+04   -.142E+00 -.259E+00 0.212E+01   0.280E-02 -.168E-01 -.404E-02
   0.892E+02 -.548E+02 -.146E+04   -.880E+02 0.552E+02 0.146E+04   -.116E+01 -.317E+00 0.150E+01   -.186E-02 -.140E-01 -.167E-01
   0.108E+02 -.374E+02 -.141E+04   -.119E+02 0.370E+02 0.141E+04   0.119E+01 0.360E+00 0.244E+01   -.162E-01 -.409E-02 -.372E-01
   0.868E+02 0.251E+02 0.276E+04   -.860E+02 -.255E+02 -.276E+04   -.828E+00 0.411E+00 -.307E+01   0.742E-03 -.674E-02 -.531E-02
   -.531E+02 -.513E+02 0.171E+04   0.520E+02 0.518E+02 -.171E+04   0.111E+01 -.379E+00 0.156E+01   -.155E-01 0.543E-02 0.316E-02
   -.383E+02 0.262E+02 -.140E+04   0.392E+02 -.263E+02 0.140E+04   -.847E+00 0.150E+00 0.177E+01   0.177E-01 0.169E-01 -.492E-01
   -.741E+02 0.990E+02 0.291E+04   0.746E+02 -.975E+02 -.291E+04   -.535E+00 -.160E+01 -.255E+01   0.374E-02 -.121E-01 0.755E-02
   0.616E+02 -.432E+02 0.146E+04   -.613E+02 0.426E+02 -.146E+04   -.303E+00 0.559E+00 -.738E+00   0.116E-01 -.117E-01 -.133E-01
   0.132E+02 -.550E+01 -.274E+04   -.136E+02 0.524E+01 0.274E+04   0.423E+00 0.225E+00 0.198E+01   -.132E-01 0.196E-01 -.106E-01
   0.465E+02 0.283E+02 -.628E+02   -.462E+02 -.280E+02 0.621E+02   -.498E+00 -.434E+00 0.690E+00   -.777E-02 0.210E-01 -.369E-01
   -.228E+02 0.157E+02 -.280E+04   0.221E+02 -.157E+02 0.280E+04   0.700E+00 -.394E-01 0.233E+01   0.413E-02 0.807E-02 0.185E-02
   -.217E+02 0.137E+02 0.220E+03   0.205E+02 -.155E+02 -.220E+03   0.128E+01 0.184E+01 -.463E+00   -.105E-01 -.941E-02 -.156E-01
   -.872E+02 -.757E+01 -.142E+04   0.879E+02 0.642E+01 0.142E+04   -.729E+00 0.121E+01 0.260E+01   0.264E-01 -.773E-02 -.474E-01
   0.536E+02 0.185E+02 -.142E+04   -.541E+02 -.177E+02 0.141E+04   0.534E+00 -.851E+00 0.191E+01   -.135E-01 -.622E-02 -.305E-01
   -.357E+02 -.763E+02 -.421E+02   0.348E+02 0.759E+02 0.424E+02   0.101E+01 0.408E+00 -.288E+00   -.164E-01 -.116E-01 -.865E-02
   -.449E+02 -.208E+02 -.124E+02   0.454E+02 0.214E+02 0.120E+02   -.541E+00 -.719E+00 0.322E+00   0.313E-01 0.110E-01 -.330E-01
   0.330E+01 -.460E+01 -.110E+04   -.319E+01 0.452E+01 0.110E+04   -.105E+00 0.163E+00 0.350E+00   -.597E-02 -.506E-02 -.265E-01
   -.740E+02 0.362E+02 0.220E+04   0.749E+02 -.371E+02 -.220E+04   -.950E+00 0.893E+00 -.314E+01   0.496E-02 -.943E-02 0.288E-02
   0.586E+02 0.392E+01 0.226E+04   -.590E+02 -.548E+01 -.226E+04   0.520E+00 0.166E+01 -.300E+01   0.142E-01 -.854E-02 0.199E-02
   0.975E+02 0.336E+02 0.217E+04   -.966E+02 -.322E+02 -.217E+04   -.956E+00 -.144E+01 -.240E+01   0.885E-02 0.974E-02 0.163E-02
   0.690E+02 0.914E+02 0.119E+04   -.681E+02 -.906E+02 -.119E+04   -.928E+00 -.790E+00 -.524E-01   0.418E-02 -.829E-02 -.939E-02
   0.898E+01 -.107E+03 0.120E+04   -.884E+01 0.106E+03 -.120E+04   -.192E+00 0.571E+00 -.635E+00   -.149E-01 -.124E-01 0.182E-02
   -.708E+02 -.210E+02 -.117E+04   0.710E+02 0.211E+02 0.117E+04   -.149E+00 -.190E+00 0.106E+00   -.132E-03 0.151E-02 -.249E-01
   -.243E+03 -.149E+02 0.236E+04   0.241E+03 0.145E+02 -.236E+04   0.273E+01 0.421E+00 -.411E+01   0.371E-03 -.778E-04 0.593E-02
   -.380E+02 0.770E+02 0.122E+04   0.371E+02 -.766E+02 -.122E+04   0.892E+00 -.551E+00 -.580E+00   0.154E-01 -.683E-02 -.823E-02
   -.101E+03 -.178E+02 0.844E+01   0.101E+03 0.182E+02 -.820E+01   0.276E+00 -.517E+00 -.322E+00   -.296E-02 0.436E-02 -.106E-01
   0.137E+02 -.897E+02 -.119E+04   -.139E+02 0.896E+02 0.119E+04   0.179E+00 0.126E+00 0.473E+00   -.525E-02 0.425E-02 -.352E-01
   0.308E+02 0.152E+02 -.120E+04   -.310E+02 -.154E+02 0.120E+04   0.138E+00 0.155E+00 -.439E+00   0.365E-02 -.414E-03 -.204E-01
   -.547E+02 -.143E+03 0.228E+04   0.530E+02 0.140E+03 -.228E+04   0.170E+01 0.290E+01 -.344E+01   -.135E-01 -.443E-02 -.318E-03
   0.200E+02 -.474E+02 0.265E+04   -.199E+02 0.477E+02 -.265E+04   -.104E+00 -.280E+00 -.305E+01   -.151E-01 0.226E-01 0.190E-01
   0.237E+03 0.783E+02 0.255E+04   -.236E+03 -.766E+02 -.254E+04   -.863E+00 -.173E+01 -.293E+01   -.259E-02 0.170E-01 -.791E-02
   -.950E+02 -.645E+02 0.131E+04   0.942E+02 0.635E+02 -.131E+04   0.831E+00 0.102E+01 -.578E-02   -.264E-02 -.256E-01 0.875E-02
   -.127E+03 0.190E+02 0.359E+02   0.127E+03 -.189E+02 -.361E+02   -.591E-01 -.109E+00 0.183E+00   0.395E-02 -.897E-02 -.258E-01
   -.193E+03 -.116E+02 0.140E+04   0.193E+03 0.122E+02 -.140E+04   -.220E+00 -.711E+00 -.573E-02   -.117E-01 0.510E-03 0.862E-02
   -.681E+01 0.565E+01 0.132E+04   0.692E+01 -.597E+01 -.132E+04   -.154E+00 0.398E+00 -.331E+00   0.768E-02 0.242E-01 -.985E-02
   0.798E+02 0.107E+02 -.139E+04   -.797E+02 -.105E+02 0.138E+04   -.307E+00 -.139E+00 0.572E+00   -.744E-03 0.244E-01 -.400E-01
   0.883E+02 -.629E+02 0.263E+04   -.874E+02 0.631E+02 -.262E+04   -.913E+00 -.253E+00 -.320E+01   -.183E-01 -.209E-01 0.107E-01
   -.651E+02 -.163E+02 0.136E+04   0.651E+02 0.166E+02 -.136E+04   -.806E-01 -.371E+00 -.550E+00   0.413E-02 -.254E-02 -.114E-02
   0.548E+02 -.102E+03 -.321E+02   -.541E+02 0.102E+03 0.325E+02   -.743E+00 0.471E+00 -.456E+00   -.391E-03 0.150E-01 -.177E-01
   0.105E+03 0.652E+02 0.328E+04   -.105E+03 -.642E+02 -.327E+04   -.404E-01 -.105E+01 -.437E+01   -.383E-02 0.168E-01 -.113E-01
   0.480E+02 -.310E+02 0.166E+04   -.485E+02 0.304E+02 -.166E+04   0.445E+00 0.674E+00 0.288E+00   -.168E-01 -.635E-02 0.724E-02
   0.226E+03 -.386E+02 0.143E+04   -.226E+03 0.392E+02 -.143E+04   0.208E+00 -.589E+00 0.283E+00   0.181E-01 0.137E-01 -.336E-01
   0.345E+02 0.110E+03 0.140E+03   -.351E+02 -.109E+03 -.140E+03   0.602E+00 -.453E+00 -.314E+00   -.901E-02 -.196E-01 -.161E-01
   0.831E+01 0.865E+02 -.158E+04   -.779E+01 -.866E+02 0.158E+04   -.514E+00 0.133E+00 0.597E+00   0.627E-02 -.378E-02 -.228E-01
   -.625E+02 0.184E+02 -.163E+04   0.619E+02 -.182E+02 0.163E+04   0.743E+00 -.204E+00 0.143E+01   0.110E-01 0.202E-01 -.450E-01
   0.453E+02 0.178E+03 0.320E+04   -.450E+02 -.178E+03 -.320E+04   -.308E+00 -.263E+00 -.375E+01   0.120E-01 -.133E-01 -.174E-02
   -.848E+02 -.102E+03 0.324E+04   0.837E+02 0.102E+03 -.324E+04   0.113E+01 -.313E+00 -.409E+01   -.700E-02 -.188E-01 0.708E-02
   0.130E+03 -.118E+02 0.696E+02   -.131E+03 0.118E+02 -.687E+02   0.396E+00 -.484E-01 -.968E+00   -.211E-01 0.101E-01 -.122E-01
   -.152E+03 -.109E+02 -.277E+02   0.151E+03 0.106E+02 0.279E+02   0.571E+00 0.313E+00 -.247E+00   0.225E-01 0.239E-02 -.933E-02
   0.136E+02 0.177E+03 0.162E+04   -.136E+02 -.176E+03 -.162E+04   0.120E+00 -.892E+00 -.117E+01   0.116E-01 -.167E-01 -.158E-01
   0.571E+02 -.406E+02 -.117E+02   -.567E+02 0.394E+02 0.117E+02   -.500E+00 0.134E+01 -.220E+00   0.201E-01 -.363E-02 -.131E-01
   0.890E+02 -.288E+01 0.233E+02   -.882E+02 0.280E+01 -.227E+02   -.782E+00 0.848E-01 -.523E+00   -.189E-01 -.119E-01 -.101E-01
   -.145E+03 -.254E+02 0.148E+04   0.144E+03 0.257E+02 -.148E+04   0.501E+00 -.333E+00 -.648E+00   0.142E-01 0.112E-01 -.100E-02
   -.764E+02 -.136E+00 0.153E+04   0.769E+02 -.180E+00 -.153E+04   -.498E+00 0.312E+00 -.652E+00   -.519E-02 -.559E-02 0.595E-02
   -.215E+03 -.698E+02 0.295E+04   0.214E+03 0.692E+02 -.295E+04   0.651E+00 0.534E+00 -.312E+01   0.420E-02 0.765E-02 0.172E-01
   0.131E+03 -.730E+02 0.291E+04   -.132E+03 0.732E+02 -.290E+04   0.813E+00 -.125E+00 -.136E+01   0.736E-02 0.320E-01 0.282E-02
   0.404E+02 -.435E+02 0.150E+04   -.401E+02 0.434E+02 -.150E+04   -.334E+00 0.138E+00 0.671E-01   -.110E-01 0.108E-01 -.312E-01
   0.134E+03 0.287E+02 0.141E+04   -.133E+03 -.287E+02 -.141E+04   -.104E+01 0.364E-01 -.775E+00   -.333E-02 0.304E-01 -.203E-01
   -.336E+02 -.323E+02 -.151E+04   0.335E+02 0.325E+02 0.151E+04   0.771E-01 -.184E+00 0.668E-01   0.272E-01 -.946E-02 -.244E-01
   -.461E+02 0.262E+02 0.292E+04   0.463E+02 -.255E+02 -.292E+04   -.307E+00 -.599E+00 -.177E+01   0.118E-01 -.165E-02 0.154E-03
   -.454E+02 0.163E+03 0.572E+02   0.458E+02 -.163E+03 -.566E+02   -.372E+00 -.282E+00 -.591E+00   0.196E-01 -.100E-01 -.195E-01
   -.765E+01 0.457E+02 -.709E+02   0.755E+01 -.450E+02 0.709E+02   0.958E-01 -.813E+00 -.394E-01   0.811E-02 0.187E-01 -.479E-01
   0.154E+03 -.115E+02 -.112E+03   -.153E+03 0.122E+02 0.112E+03   -.263E+00 -.748E+00 -.438E+00   -.403E-02 0.151E-01 -.399E-01
   -.408E+02 -.110E+03 0.275E+02   0.405E+02 0.110E+03 -.275E+02   0.360E+00 0.442E+00 -.123E+00   -.103E-01 -.473E-03 -.685E-02
   0.338E+00 0.208E+01 -.327E+03   -.334E+00 -.242E+01 0.328E+03   0.136E-01 0.303E+00 -.178E+01   0.731E-03 0.868E-03 -.251E-02
 -----------------------------------------------------------------------------------------------
   -.323E+01 -.121E+01 0.774E+01   0.119E-11 0.368E-12 0.101E-10   0.319E+01 0.121E+01 -.662E+01   0.304E-01 0.288E-01 -.109E+01
 
 
 POSITION                                       TOTAL-FORCE (eV/Angst)
 -----------------------------------------------------------------------------------
     13.66787      8.51686      6.74515         0.000359      0.000071      0.010224
      5.33675      8.50120      6.66264        -0.004861      0.013329      0.019327
      5.18175      3.61446      6.90529         0.007298      0.009777      0.000808
     15.08655      9.33706      8.96410        -0.010483     -0.001777      0.012623
      3.87654      4.54382      9.11480         0.008951     -0.027298      0.000594
      6.72033      9.30615      9.03180         0.000338      0.012870      0.004072
     12.30642      4.40624      9.17080         0.009557      0.005374     -0.006597
      9.52152      9.27213      9.09344         0.007097     -0.001692      0.009415
     10.89532      2.06376      9.00126        -0.001406     -0.011957     -0.004569
      2.59782      2.05980      9.08871        -0.006599     -0.012539     -0.003984
     12.31668      9.25413      9.06376        -0.000307      0.003499     -0.014784
     13.69229      6.90403      9.11294         0.019888     -0.011719     -0.001573
      5.33731      1.98531      9.13296        -0.008137     -0.001434     -0.001371
      8.16869      6.84935      9.04815         0.007159     -0.001932      0.012096
      9.56034      4.46037      9.11975         0.016927      0.020546     -0.023502
      5.28962      6.85744      9.14511        -0.008980     -0.001125      0.025142
      8.13500      2.02571      9.05336        -0.001813      0.014087     -0.005069
      8.16264      3.66747      6.90693        -0.005405      0.021871     -0.000746
      6.62518      1.22362      6.83024         0.004661     -0.011474      0.013323
      6.81576      1.21382      1.22367         0.015300     -0.021068      0.005433
      3.60826      4.21917      2.73718        -0.005592      0.007742      0.006829
      1.28341      1.27749      6.83825        -0.003069      0.015795     -0.011819
      0.97937      1.20745      0.89042        -0.005999      0.024594     -0.003051
      6.78425      9.23268      3.03989         0.019924     -0.005664      0.041274
      6.68467      4.43812      9.11187         0.001817     -0.003462      0.011700
      8.18415      5.37861      4.87400        -0.059986      0.009996      0.026597
     10.89340      6.87191      9.12545        -0.017515     -0.013627     -0.013123
     14.91365      7.44981      4.65393         0.040962     -0.008643     -0.022988
     12.37391      6.02874      6.95005         0.006090     -0.001853      0.011083
      6.60295      6.08332      6.86494         0.029937     -0.015863     -0.030505
      3.64940      2.63239      4.96473        -0.011378     -0.002295     -0.040070
     10.90632      5.37499      4.87665         0.001901     -0.005652     -0.037238
      3.93920      6.12135      6.93386         0.005090      0.004566      0.025584
     13.66583      8.30907      1.32706        -0.022467      0.002046     -0.009313
      5.33050      8.31981      1.15774         0.002025     -0.002134     -0.012160
      4.15137      6.25096      1.35263        -0.008188     -0.016229     -0.016337
      8.31382      2.30686      2.94581        -0.015064     -0.008253      0.002216
      9.55955      9.18725      2.98660        -0.006830      0.015351      0.003692
      2.49529      3.71435      7.04243        -0.001660     -0.010642     -0.002088
     13.11834      3.56071      0.96848        -0.012507     -0.002262      0.008890
     10.85546      2.11101      2.92734         0.005730     -0.010114      0.030016
     13.60960      5.17381      4.89082         0.008212      0.002810      0.006439
      3.97539      1.10373      7.01809        -0.003375     -0.007550      0.000765
      9.53366      6.03826      7.03816         0.009150     -0.009661      0.022625
      3.72295      1.02177      1.14775         0.013339      0.014516      0.011154
      9.52897      6.08620      1.06190         0.012846     -0.028226     -0.019154
      5.57467      3.88692      1.24062        -0.010012      0.035166     -0.007323
     12.20371      9.09515      3.04645        -0.000235     -0.014682      0.020241
     12.23941      7.60867      4.84512        -0.015296      0.010527     -0.017073
     13.27602      6.57845      2.88759         0.003016     -0.005122      0.022735
      9.50663      4.54405      2.86078        -0.032338      0.008336      0.025352
      8.22796      8.48018      6.99580        -0.038019      0.011189     -0.002368
      8.25881      8.48561      1.05092        -0.022117      0.026209     -0.025181
     10.82063      6.97853      2.87480        -0.001565      0.002407     -0.001346
      2.73446      0.20477      5.02604         0.006848     -0.004174      0.008990
      8.12045      3.73171      0.90507        -0.006588     -0.007567      0.004143
      5.22590      1.98656      3.04205         0.004972      0.020551     -0.019704
      5.74604      6.79715      3.19720        -0.000357     -0.007987      0.015761
      8.10302      0.61407      4.82325         0.002183      0.012424      0.001439
      9.53359      1.27832      6.84758         0.006721      0.009084      0.006191
     10.89895      8.42525      6.95617         0.004917     -0.004505     -0.008919
      9.45814      1.21436      0.94142         0.009506      0.005453      0.003839
     10.92369      8.53630      0.96035         0.023571     -0.009297     -0.000120
      5.18311      5.07718      4.82785         0.008920      0.008750     -0.005702
     12.18992      2.95028      4.94440        -0.000349      0.025197     -0.025564
     15.12750      9.48115      3.01305         0.018375      0.010121      0.004859
      9.62342      2.92429      4.96778         0.012609     -0.007891     -0.025192
      6.71700      2.86959      4.87447         0.003297     -0.028238     -0.025610
     12.08786      4.33093      2.89997         0.000178      0.000576     -0.036566
      2.36955      1.91053      2.94325         0.004268     -0.016063     -0.000877
     12.00821      5.89283      1.01651        -0.005767      0.003633     -0.003102
      6.79951      6.06260      1.14952         0.017985     -0.019880      0.011036
      8.29854      6.94668      2.92447         0.023895      0.039104     -0.004420
      6.91972      4.39763      2.97376        -0.003353     -0.015550     -0.001263
     10.94784      3.75506      7.00435         0.006309     -0.004660     -0.004726
     10.70385      3.55782      0.99591        -0.024884     -0.000072      0.001870
     10.94963      0.69951      4.87913        -0.007509     -0.039027     -0.011852
      9.61422      7.69602      5.00361        -0.028995      0.015234      0.004252
      7.08463      7.72063      5.00857        -0.028290      0.017502      0.058170
      5.25680      0.23778      4.94587         0.012991      0.017787     -0.009934
      6.15067      8.10837     10.11529         0.022173     -0.037230      0.006084
 -----------------------------------------------------------------------------------
    total drift:                               -0.013098      0.023893      0.024626


--------------------------------------------------------------------------------------------------------



  FREE ENERGIE OF THE ION-ELECTRON SYSTEM (eV)
  ---------------------------------------------------
  free  energy   TOTEN  =      -502.73874893 eV

  energy  without entropy=     -502.75411244  energy(sigma->0) =     -502.74387010
 
 d Force = 0.2714921E-02[ 0.107E-02, 0.436E-02]  d Energy = 0.2747559E-02-0.326E-04
 d Force = 0.1199404E+02[ 0.120E+02, 0.120E+02]  d Ewald  = 0.1199403E+02 0.740E-06


--------------------------------------------------------------------------------------------------------


    POTLOK:  cpu time    0.4394: real time    0.6121


--------------------------------------------------------------------------------------------------------


 Conjugate gradient step on ions:
 trial-energy change:   -0.002748  1 .order   -0.002715   -0.004363   -0.001066
  (g-gl).g = 0.377E-02      g.g   = 0.325E-02  gl.gl    = 0.999E-02
 g(Force)  = 0.325E-02   g(Stress)= 0.000E+00 ortho     =-0.112E-03
 gamma     =   0.37709
 trial     =   1.36140
 opt step  =   1.80176  (harmonic =   1.80176) maximal distance =0.01237241
 next E    =  -502.738889   (d E  =  -0.00289)


--------------------------------------------------------------------------------------------------------


  
 reached required accuracy - stopping structural energy minimisation
     LOOP+:  cpu time  852.3341: real time  855.1882
    4ORBIT:  cpu time    0.0000: real time    0.0000

 total amount of memory used by VASP MPI-rank0   251635. kBytes
=======================================================================

   base      :      30000. kBytes
   nonlr-proj:      36178. kBytes
   fftplans  :      18294. kBytes
   grid      :      55120. kBytes
   one-center:        653. kBytes
   wavefun   :     111390. kBytes
 
  
  
 General timing and accounting informations for this job:
 ========================================================
  
                  Total CPU time used (sec):    10044.464
                            User time (sec):     9761.906
                          System time (sec):      282.558
                         Elapsed time (sec):    10103.049
  
                   Maximum memory used (kb):      431472.
                   Average memory used (kb):           0.
  
                          Minor page faults:      2584400
                          Major page faults:          321
                 Voluntary context switches:         8586
