 vasp.5.4.4.18Apr17-6-g9f103f2a35 (build Oct 25 2019 11:13:22) complex          
  
 executed on             LinuxIFC date 2021.10.14  02:10:10
 running on   48 total cores
 distrk:  each k-point on   48 cores,    1 groups
 distr:  one band on NCORES_PER_BAND=   4 cores,   12 groups


--------------------------------------------------------------------------------------------------------


 INCAR:
 POTCAR:    PAW_PBE Pt 04Feb2005                  
 POTCAR:    PAW_PBE Fe 06Sep2000                  
 POTCAR:    PAW_PBE Co 02Aug2007                  
 POTCAR:    PAW_PBE Cu 22Jun2005                  
 POTCAR:    PAW_PBE Ni 02Aug2007                  
 POTCAR:    PAW_PBE H 15Jun2001                   
 POTCAR:    PAW_PBE Pt 04Feb2005                  
   VRHFIN =Pt: s1d9                                                             
   LEXCH  = PE                                                                  
   EATOM  =   729.1176 eV,   53.5886 Ry                                         
                                                                                
   TITEL  = PAW_PBE Pt 04Feb2005                                                
   LULTRA =        F    use ultrasoft PP ?                                      
   IUNSCR =        1    unscreen: 0-lin 1-nonlin 2-no                           
   RPACOR =    2.330    partial core radius                                     
   POMASS =  195.080; ZVAL   =   10.000    mass and valenz                      
   RCORE  =    2.600    outmost cutoff radius                                   
   RWIGS  =    2.750; RWIGS  =    1.455    wigner-seitz radius (au A)           
   ENMAX  =  230.283; ENMIN  =  172.712 eV                                      
   ICORE  =        3    local potential                                         
   LCOR   =        T    correct aug charges                                     
   LPAW   =        T    paw PP                                                  
   EAUG   =  358.966                                                            
   DEXC   =    0.000                                                            
   RMAX   =    2.658    core radius for proj-oper                               
   RAUG   =    1.300    factor for augmentation sphere                          
   RDEP   =    2.761    radius for radial grids                                 
   RDEPT  =    2.203    core radius for aug-charge                              
                                                                                
   Atomic configuration                                                         
   16 entries                                                                   
     n  l   j            E        occ.                                          
     1  0  0.50    -78401.1885   2.0000                                         
     2  0  0.50    -13770.7750   2.0000                                         
     2  1  1.50    -11931.0468   6.0000                                         
     3  0  0.50     -3234.7234   2.0000                                         
     3  1  1.50     -2699.2216   6.0000                                         
     3  2  2.50     -2119.5714  10.0000                                         
     4  0  0.50      -695.1528   2.0000                                         
     4  1  1.50      -519.6034   6.0000                                         
     4  2  2.50      -306.6786  10.0000                                         
     4  3  3.50       -70.1041  14.0000                                         
     5  0  0.50      -101.7747   2.0000                                         
     5  1  1.50       -55.9873   6.0000                                         
     5  2  2.50        -6.1423   9.0000                                         
     6  0  0.50        -5.6573   1.0000                                         
     6  1  1.50        -6.8029   0.0000                                         
     5  3  2.50        -1.3606   0.0000                                         
   Description                                                                  
     l       E           TYP  RCUT    TYP  RCUT                                 
     2     -6.1423404     23  2.500                                             
     2     -7.5029230     23  2.500                                             
     0     -5.6573207     23  2.500                                             
     0      0.7416693     23  2.500                                             
     1     -2.7211652     23  2.600                                             
     1     20.4087390     23  2.600                                             
     3     -1.3605826     23  2.500                                             
  local pseudopotential read in
  partial core-charges read in
  partial kinetic energy density read in
  atomic valenz-charges read in
  non local Contribution for L=           2  read in
    real space projection operators read in
  non local Contribution for L=           2  read in
    real space projection operators read in
  non local Contribution for L=           0  read in
    real space projection operators read in
  non local Contribution for L=           0  read in
    real space projection operators read in
  non local Contribution for L=           1  read in
    real space projection operators read in
  non local Contribution for L=           1  read in
    real space projection operators read in
    PAW grid and wavefunctions read in
 
   number of l-projection  operators is LMAX  =           6
   number of lm-projection operators is LMMAX =          18
 
 POTCAR:    PAW_PBE Fe 06Sep2000                  
   VRHFIN =Fe:  d7 s1                                                           
   LEXCH  = PE                                                                  
   EATOM  =   594.3153 eV,   43.6809 Ry                                         
                                                                                
   TITEL  = PAW_PBE Fe 06Sep2000                                                
   LULTRA =        F    use ultrasoft PP ?                                      
   IUNSCR =        1    unscreen: 0-lin 1-nonlin 2-no                           
   RPACOR =    2.000    partial core radius                                     
   POMASS =   55.847; ZVAL   =    8.000    mass and valenz                      
   RCORE  =    2.300    outmost cutoff radius                                   
   RWIGS  =    2.460; RWIGS  =    1.302    wigner-seitz radius (au A)           
   ENMAX  =  267.882; ENMIN  =  200.911 eV                                      
   RCLOC  =    1.701    cutoff for local pot                                    
   LCOR   =        T    correct aug charges                                     
   LPAW   =        T    paw PP                                                  
   EAUG   =  511.368                                                            
   DEXC   =    0.000                                                            
   RMAX   =    2.356    core radius for proj-oper                               
   RAUG   =    1.300    factor for augmentation sphere                          
   RDEP   =    2.442    radius for radial grids                                 
   RDEPT  =    1.890    core radius for aug-charge                              
                                                                                
   Atomic configuration                                                         
    9 entries                                                                   
     n  l   j            E        occ.                                          
     1  0  0.50     -6993.8440   2.0000                                         
     2  0  0.50      -814.6047   2.0000                                         
     2  1  1.50      -693.3689   6.0000                                         
     3  0  0.50       -89.4732   2.0000                                         
     3  1  1.50       -55.6373   6.0000                                         
     3  2  2.50        -3.8151   7.0000                                         
     4  0  0.50        -4.2551   1.0000                                         
     4  1  1.50        -3.4015   0.0000                                         
     4  3  2.50        -1.3606   0.0000                                         
   Description                                                                  
     l       E           TYP  RCUT    TYP  RCUT                                 
     2     -3.8151135     23  2.300                                             
     2     -5.1756961     23  2.300                                             
     0     -4.2550963     23  2.300                                             
     0      7.2035603     23  2.300                                             
     1     -2.7211652     23  2.300                                             
     1     18.4316424     23  2.300                                             
  local pseudopotential read in
  partial core-charges read in
  partial kinetic energy density read in
  atomic valenz-charges read in
  non local Contribution for L=           2  read in
    real space projection operators read in
  non local Contribution for L=           2  read in
    real space projection operators read in
  non local Contribution for L=           0  read in
    real space projection operators read in
  non local Contribution for L=           0  read in
    real space projection operators read in
  non local Contribution for L=           1  read in
    real space projection operators read in
  non local Contribution for L=           1  read in
    real space projection operators read in
    PAW grid and wavefunctions read in
 
   number of l-projection  operators is LMAX  =           6
   number of lm-projection operators is LMMAX =          18
 
 POTCAR:    PAW_PBE Co 02Aug2007                  
   VRHFIN =Co: d8 s1                                                            
   LEXCH  = PE                                                                  
   EATOM  =   813.3670 eV,   59.7808 Ry                                         
                                                                                
   TITEL  = PAW_PBE Co 02Aug2007                                                
   LULTRA =        F    use ultrasoft PP ?                                      
   IUNSCR =        1    unscreen: 0-lin 1-nonlin 2-no                           
   RPACOR =    2.000    partial core radius                                     
   POMASS =   58.933; ZVAL   =    9.000    mass and valenz                      
   RCORE  =    2.300    outmost cutoff radius                                   
   RWIGS  =    2.460; RWIGS  =    1.302    wigner-seitz radius (au A)           
   ENMAX  =  267.968; ENMIN  =  200.976 eV                                      
   RCLOC  =    1.203    cutoff for local pot                                    
   LCOR   =        T    correct aug charges                                     
   LPAW   =        T    paw PP                                                  
   EAUG   =  477.818                                                            
   DEXC   =    0.000                                                            
   RMAX   =    2.360    core radius for proj-oper                               
   RAUG   =    1.300    factor for augmentation sphere                          
   RDEP   =    2.393    radius for radial grids                                 
   RDEPT  =    1.864    core radius for aug-charge                              
                                                                                
   Atomic configuration                                                         
    9 entries                                                                   
     n  l   j            E        occ.                                          
     1  0  0.50     -7587.6674   2.0000                                         
     2  0  0.50      -893.6084   2.0000                                         
     2  1  1.50      -764.5805   6.0000                                         
     3  0  0.50       -97.5973   2.0000                                         
     3  1  1.50       -60.9648   6.0000                                         
     3  2  2.50        -4.2382   8.0000                                         
     4  0  0.50        -4.3746   1.0000                                         
     4  1  1.50        -4.0817   0.0000                                         
     4  3  2.50        -1.3606   0.0000                                         
   Description                                                                  
     l       E           TYP  RCUT    TYP  RCUT                                 
     2     -4.2382362     23  2.300                                             
     2     -5.5988188     23  2.300                                             
     0     -4.3745797     23  2.300                                             
     0      5.7660125     23  2.300                                             
     1     -2.7211652     23  2.300                                             
     1     16.9860234     23  2.300                                             
  local pseudopotential read in
  partial core-charges read in
  partial kinetic energy density read in
  atomic valenz-charges read in
  non local Contribution for L=           2  read in
    real space projection operators read in
  non local Contribution for L=           2  read in
    real space projection operators read in
  non local Contribution for L=           0  read in
    real space projection operators read in
  non local Contribution for L=           0  read in
    real space projection operators read in
  non local Contribution for L=           1  read in
    real space projection operators read in
  non local Contribution for L=           1  read in
    real space projection operators read in
    PAW grid and wavefunctions read in
 
   number of l-projection  operators is LMAX  =           6
   number of lm-projection operators is LMMAX =          18
 
 POTCAR:    PAW_PBE Cu 22Jun2005                  
   VRHFIN =Cu: d10 p1                                                           
   LEXCH  = PE                                                                  
   EATOM  =  1390.9808 eV,  102.2342 Ry                                         
                                                                                
   TITEL  = PAW_PBE Cu 22Jun2005                                                
   LULTRA =        F    use ultrasoft PP ?                                      
   IUNSCR =        1    unscreen: 0-lin 1-nonlin 2-no                           
   RPACOR =    2.000    partial core radius                                     
   POMASS =   63.546; ZVAL   =   11.000    mass and valenz                      
   RCORE  =    2.300    outmost cutoff radius                                   
   RWIGS  =    2.200; RWIGS  =    1.164    wigner-seitz radius (au A)           
   ENMAX  =  295.446; ENMIN  =  221.585 eV                                      
   ICORE  =        3    local potential                                         
   LCOR   =        T    correct aug charges                                     
   LPAW   =        T    paw PP                                                  
   EAUG   =  586.980                                                            
   DEXC   =    0.000                                                            
   RMAX   =    2.344    core radius for proj-oper                               
   RAUG   =    1.300    factor for augmentation sphere                          
   RDEP   =    2.302    radius for radial grids                                 
   RDEPT  =    1.771    core radius for aug-charge                              
                                                                                
   Atomic configuration                                                         
    9 entries                                                                   
     n  l   j            E        occ.                                          
     1  0  0.50     -8850.2468   2.0000                                         
     2  0  0.50     -1062.3498   2.0000                                         
     2  1  1.50      -916.8226   6.0000                                         
     3  0  0.50      -114.6929   2.0000                                         
     3  1  1.50       -72.1325   6.0000                                         
     3  2  2.50        -5.0394  10.0000                                         
     4  0  0.50        -4.6097   1.0000                                         
     4  1  0.50        -4.0817   0.0000                                         
     4  3  2.50        -1.3606   0.0000                                         
   Description                                                                  
     l       E           TYP  RCUT    TYP  RCUT                                 
     2     -5.0393973     23  2.200                                             
     2     10.8846608     23  2.200                                             
     0     -4.6097109     23  2.200                                             
     0      8.2520465     23  2.200                                             
     1     -2.7211652     23  2.200                                             
     1     21.7055443     23  2.200                                             
     3      2.7211652     23  2.300                                             
  local pseudopotential read in
  partial core-charges read in
  partial kinetic energy density read in
  atomic valenz-charges read in
  non local Contribution for L=           2  read in
    real space projection operators read in
  non local Contribution for L=           2  read in
    real space projection operators read in
  non local Contribution for L=           0  read in
    real space projection operators read in
  non local Contribution for L=           0  read in
    real space projection operators read in
  non local Contribution for L=           1  read in
    real space projection operators read in
  non local Contribution for L=           1  read in
    real space projection operators read in
    PAW grid and wavefunctions read in
 
   number of l-projection  operators is LMAX  =           6
   number of lm-projection operators is LMMAX =          18
 
 POTCAR:    PAW_PBE Ni 02Aug2007                  
   VRHFIN =Ni:                                                                  
   LEXCH  = PE                                                                  
   EATOM  =  1077.6739 eV,   79.2068 Ry                                         
                                                                                
   TITEL  = PAW_PBE Ni 02Aug2007                                                
   LULTRA =        F    use ultrasoft PP ?                                      
   IUNSCR =        1    unscreen: 0-lin 1-nonlin 2-no                           
   RPACOR =    2.000    partial core radius                                     
   POMASS =   58.690; ZVAL   =   10.000    mass and valenz                      
   RCORE  =    2.300    outmost cutoff radius                                   
   RWIGS  =    2.430; RWIGS  =    1.286    wigner-seitz radius (au A)           
   ENMAX  =  269.532; ENMIN  =  202.149 eV                                      
   RCLOC  =    1.201    cutoff for local pot                                    
   LCOR   =        T    correct aug charges                                     
   LPAW   =        T    paw PP                                                  
   EAUG   =  544.565                                                            
   DEXC   =    0.000                                                            
   RMAX   =    2.357    core radius for proj-oper                               
   RAUG   =    1.300    factor for augmentation sphere                          
   RDEP   =    2.390    radius for radial grids                                 
   RDEPT  =    1.838    core radius for aug-charge                              
                                                                                
   Atomic configuration                                                         
    9 entries                                                                   
     n  l   j            E        occ.                                          
     1  0  0.50     -8206.4253   2.0000                                         
     2  0  0.50      -976.1748   2.0000                                         
     2  1  1.50      -839.0571   6.0000                                         
     3  0  0.50      -105.9991   2.0000                                         
     3  1  1.50       -66.4603   6.0000                                         
     3  2  2.50        -4.6458   9.0000                                         
     4  0  0.50        -4.4926   1.0000                                         
     4  1  1.50        -4.0817   0.0000                                         
     4  3  2.50        -1.3606   0.0000                                         
   Description                                                                  
     l       E           TYP  RCUT    TYP  RCUT                                 
     2     -4.6457903     23  2.300                                             
     2     -6.0063729     23  2.300                                             
     0     -4.4925590     23  2.300                                             
     0      5.0102601     23  2.300                                             
     1     -2.7211652     23  2.300                                             
     1     16.5183231     23  2.300                                             
  local pseudopotential read in
  partial core-charges read in
  partial kinetic energy density read in
  atomic valenz-charges read in
  non local Contribution for L=           2  read in
    real space projection operators read in
  non local Contribution for L=           2  read in
    real space projection operators read in
  non local Contribution for L=           0  read in
    real space projection operators read in
  non local Contribution for L=           0  read in
    real space projection operators read in
  non local Contribution for L=           1  read in
    real space projection operators read in
  non local Contribution for L=           1  read in
    real space projection operators read in
    PAW grid and wavefunctions read in
 
   number of l-projection  operators is LMAX  =           6
   number of lm-projection operators is LMMAX =          18
 
 POTCAR:    PAW_PBE H 15Jun2001                   
   VRHFIN =H: ultrasoft test                                                    
   LEXCH  = PE                                                                  
   EATOM  =    12.4884 eV,    0.9179 Ry                                         
                                                                                
   TITEL  = PAW_PBE H 15Jun2001                                                 
   LULTRA =        F    use ultrasoft PP ?                                      
   IUNSCR =        0    unscreen: 0-lin 1-nonlin 2-no                           
   RPACOR =    0.000    partial core radius                                     
   POMASS =    1.000; ZVAL   =    1.000    mass and valenz                      
   RCORE  =    1.100    outmost cutoff radius                                   
   RWIGS  =    0.700; RWIGS  =    0.370    wigner-seitz radius (au A)           
   ENMAX  =  250.000; ENMIN  =  200.000 eV                                      
   RCLOC  =    0.701    cutoff for local pot                                    
   LCOR   =        T    correct aug charges                                     
   LPAW   =        T    paw PP                                                  
   EAUG   =  400.000                                                            
   RMAX   =    1.123    core radius for proj-oper                               
   RAUG   =    1.200    factor for augmentation sphere                          
   RDEP   =    1.112    radius for radial grids                                 
   RDEPT  =    0.926    core radius for aug-charge                              
                                                                                
   Atomic configuration                                                         
    2 entries                                                                   
     n  l   j            E        occ.                                          
     1  0  0.50        -6.4927   1.0000                                         
     2  1  0.50        -3.4015   0.0000                                         
   Description                                                                  
     l       E           TYP  RCUT    TYP  RCUT                                 
     0     -6.4927494     23  1.100                                             
     0      6.8029130     23  1.100                                             
     1     -4.0817478     23  1.100                                             
  local pseudopotential read in
  atomic valenz-charges read in
  non local Contribution for L=           0  read in
    real space projection operators read in
  non local Contribution for L=           0  read in
    real space projection operators read in
  non local Contribution for L=           1  read in
    real space projection operators read in
    PAW grid and wavefunctions read in
 
   number of l-projection  operators is LMAX  =           3
   number of lm-projection operators is LMMAX =           5
 
 Optimization of the real space projectors (new method)

 maximal supplied QI-value         = 14.36
 optimisation between [QCUT,QGAM] = [ 11.92, 23.98] = [ 39.79,161.09] Ry 
 Optimized for a Real-space Cutoff    1.49 Angstroem

   l    n(q)    QCUT    max X(q) W(low)/X(q) W(high)/X(q)  e(spline) 
   2     10    11.920    66.195    0.79E-04    0.18E-03    0.24E-06
   2     10    11.920    64.643    0.81E-04    0.19E-03    0.24E-06
   0     11    11.920    95.520    0.28E-04    0.54E-04    0.18E-06
   0     11    11.920    63.403    0.27E-04    0.52E-04    0.17E-06
   1     10    11.920    19.961    0.18E-04    0.11E-03    0.23E-06
   1     10    11.920    13.289    0.25E-04    0.87E-04    0.19E-06
 Optimization of the real space projectors (new method)

 maximal supplied QI-value         = 16.25
 optimisation between [QCUT,QGAM] = [ 11.86, 23.89] = [ 39.41,159.82] Ry 
 Optimized for a Real-space Cutoff    1.49 Angstroem

   l    n(q)    QCUT    max X(q) W(low)/X(q) W(high)/X(q)  e(spline) 
   2     10    11.864    80.901    0.13E-03    0.23E-03    0.37E-06
   2     10    11.864    75.754    0.13E-03    0.23E-03    0.38E-06
   0     11    11.864    58.752    0.44E-04    0.11E-04    0.20E-06
   0     11    11.864    30.679    0.36E-04    0.10E-04    0.18E-06
   1     10    11.864    17.977    0.31E-04    0.45E-04    0.10E-06
   1     10    11.864    13.559    0.25E-04    0.37E-04    0.89E-07
 Optimization of the real space projectors (new method)

 maximal supplied QI-value         = 16.25
 optimisation between [QCUT,QGAM] = [ 11.86, 23.89] = [ 39.41,159.82] Ry 
 Optimized for a Real-space Cutoff    1.33 Angstroem

   l    n(q)    QCUT    max X(q) W(low)/X(q) W(high)/X(q)  e(spline) 
   2      9    11.864    65.824    0.22E-03    0.53E-03    0.26E-06
   2      9    11.864    61.429    0.22E-03    0.53E-03    0.26E-06
   0      9    11.864    56.174    0.21E-03    0.32E-04    0.15E-06
   0      9    11.864    31.263    0.19E-03    0.30E-04    0.14E-06
   1      9    11.864    19.828    0.63E-04    0.30E-03    0.16E-06
   1      9    11.864    15.139    0.49E-04    0.25E-03    0.13E-06
 Optimization of the real space projectors (new method)

 maximal supplied QI-value         = 16.25
 optimisation between [QCUT,QGAM] = [ 11.86, 23.89] = [ 39.41,159.82] Ry 
 Optimized for a Real-space Cutoff    1.49 Angstroem

   l    n(q)    QCUT    max X(q) W(low)/X(q) W(high)/X(q)  e(spline) 
   2     10    11.864     4.610    0.10E-03    0.20E-03    0.29E-06
   2     10    11.864     8.522    0.17E-03    0.33E-03    0.50E-06
   0     11    11.864    51.609    0.52E-04    0.55E-04    0.33E-06
   0     11    11.864    27.747    0.46E-04    0.52E-04    0.31E-06
   1     10    11.864    20.408    0.54E-04    0.25E-04    0.21E-06
   1     10    11.864    13.425    0.48E-04    0.22E-04    0.18E-06
 Optimization of the real space projectors (new method)

 maximal supplied QI-value         = 16.25
 optimisation between [QCUT,QGAM] = [ 11.86, 23.89] = [ 39.41,159.82] Ry 
 Optimized for a Real-space Cutoff    1.33 Angstroem

   l    n(q)    QCUT    max X(q) W(low)/X(q) W(high)/X(q)  e(spline) 
   2      9    11.864    60.317    0.21E-03    0.51E-03    0.25E-06
   2      9    11.864    55.921    0.21E-03    0.51E-03    0.26E-06
   0      9    11.864    51.690    0.22E-03    0.30E-04    0.17E-06
   0      9    11.864    30.015    0.20E-03    0.28E-04    0.15E-06
   1      9    11.864    18.849    0.76E-04    0.33E-03    0.17E-06
   1      9    11.864    14.624    0.60E-04    0.28E-03    0.15E-06
 Optimization of the real space projectors (new method)

 maximal supplied QI-value         = 34.20
 optimisation between [QCUT,QGAM] = [ 11.97, 23.94] = [ 40.13,160.53] Ry 
 Optimized for a Real-space Cutoff    1.18 Angstroem

   l    n(q)    QCUT    max X(q) W(low)/X(q) W(high)/X(q)  e(spline) 
   0      8    11.971    19.460    0.15E-03    0.31E-03    0.25E-06
   0      8    11.971    12.209    0.13E-03    0.29E-03    0.25E-06
   1      8    11.971     4.655    0.22E-03    0.24E-03    0.21E-06
  PAW_PBE Pt 04Feb2005                  :
 energy of atom  1       EATOM= -729.1176
 kinetic energy error for atom=    0.0021 (will be added to EATOM!!)
  PAW_PBE Fe 06Sep2000                  :
 energy of atom  2       EATOM= -594.3153
 kinetic energy error for atom=    0.0024 (will be added to EATOM!!)
  PAW_PBE Co 02Aug2007                  :
 energy of atom  3       EATOM= -813.3670
 kinetic energy error for atom=    0.0026 (will be added to EATOM!!)
  PAW_PBE Cu 22Jun2005                  :
 energy of atom  4       EATOM=-1390.9808
 kinetic energy error for atom=    0.0036 (will be added to EATOM!!)
  PAW_PBE Ni 02Aug2007                  :
 energy of atom  5       EATOM=-1077.6739
 kinetic energy error for atom=    0.0027 (will be added to EATOM!!)
  PAW_PBE H 15Jun2001                   :
 energy of atom  6       EATOM=  -12.4884
 kinetic energy error for atom=    0.0008 (will be added to EATOM!!)
 
 
 POSCAR: 10.66                                   
  positions in direct lattice
  velocities in cartesian coordinates
 exchange correlation table for  LEXCH =        8
   RHO(1)=    0.500       N(1)  =     2000
   RHO(2)=  100.500       N(2)  =     4000
 


--------------------------------------------------------------------------------------------------------


 ion  position               nearest neighbor table
   1  0.787  0.879  0.317-  49 2.62  28 2.62  59 2.64  19 2.66  33 2.68  61 2.68  29 2.70  60 2.70
                             2 2.74  11 2.76   4 2.84  12 2.84
   2  0.042  0.882  0.316-  79 2.56  77 2.60  60 2.65  30 2.66  28 2.67  52 2.69  33 2.69  22 2.71
                             1 2.74   6 2.79   4 2.87  16 2.94
   3  0.279  0.381  0.319-  64 2.57  39 2.59  33 2.61  31 2.63  68 2.71  19 2.73  43 2.73  30 2.73
                             5 2.77  13 2.79  25 2.84  18 2.84
   4  0.870  0.964  0.425-  17 2.63  11 2.64   9 2.67  12 2.70   6 2.72  16 2.74  60 2.83   1 2.84
                             2 2.87
   5  0.121  0.462  0.426-  81 1.62  16 2.63  12 2.64  10 2.65   7 2.65  13 2.70  25 2.70  39 2.71
                            33 2.72   3 2.77
   6  0.125  0.964  0.422-   8 2.63  10 2.65   9 2.68  14 2.69   4 2.72  16 2.74   2 2.79  52 2.80
                            22 2.86
   7  0.874  0.460  0.425-   9 2.64  15 2.64   5 2.65  10 2.66  12 2.66  39 2.69  27 2.69  75 2.75
                            29 2.79
   8  0.374  0.960  0.419-  43 2.60   6 2.63  14 2.64  27 2.65  13 2.66  11 2.67  10 2.67  52 2.68
                            61 2.71
   9  0.872  0.213  0.419-  15 2.64   7 2.64  17 2.66  75 2.66   4 2.67   6 2.68  10 2.69  60 2.71
                            22 2.80
  10  0.125  0.212  0.421-  13 2.64   5 2.65   6 2.65   7 2.66  39 2.66   8 2.67   9 2.69  43 2.72
                            22 2.77
  11  0.624  0.961  0.422-   4 2.64  13 2.66  27 2.66  12 2.66   8 2.67  17 2.67   1 2.76  19 2.81
                            61 2.82
  12  0.873  0.710  0.424-   5 2.64   7 2.66  27 2.66  11 2.66  33 2.69  16 2.69   4 2.70  29 2.78
                             1 2.84
  13  0.374  0.209  0.423-  10 2.64  11 2.66   8 2.66  17 2.67  25 2.69   5 2.70  43 2.75   3 2.79
                            19 2.81
  14  0.377  0.712  0.422-  27 2.61   8 2.64  15 2.65  44 2.67  25 2.68   6 2.69  16 2.70  52 2.73
                            30 2.75
  15  0.626  0.462  0.421-   9 2.64   7 2.64  27 2.65  14 2.65  25 2.68  17 2.68  44 2.69  75 2.71
                            18 2.76
  16  0.127  0.707  0.427-  81 1.59  25 2.63   5 2.63  12 2.69  14 2.70  33 2.71   4 2.74   6 2.74
                            30 2.84   2 2.94
  17  0.624  0.211  0.421-   4 2.63   9 2.66  25 2.66  11 2.67  13 2.67  15 2.68  18 2.75  60 2.77
                            19 2.85
  18  0.548  0.376  0.316-  67 2.56  60 2.62  75 2.63  68 2.65  26 2.66  44 2.66  30 2.74  17 2.75
                            19 2.75  15 2.76   3 2.84  25 2.86
  19  0.534  0.125  0.314-  80 2.55  68 2.57  43 2.58  59 2.60   1 2.66  61 2.66   3 2.73  18 2.75
                            60 2.78  13 2.81  11 2.81  17 2.85
  20  0.549  0.122  0.042-  37 2.55  57 2.55  48 2.57  62 2.66  63 2.70  34 2.71  45 2.73  47 2.74
                            56 2.74
  21  0.120  0.460  0.128-  40 2.52  36 2.53  47 2.53  42 2.60  64 2.62  69 2.62  70 2.66  50 2.67
                            31 2.71  58 2.71  57 2.74  74 2.75
  22  0.044  0.136  0.314-  65 2.52  55 2.54  77 2.57  43 2.60  39 2.61  75 2.64   2 2.71  60 2.71
                            52 2.75  10 2.77   9 2.80   6 2.86  31 3.41
  23  0.042  0.131  0.034-  70 2.57  40 2.60  41 2.61  45 2.64  62 2.65  76 2.65  24 2.69  35 2.76
                            53 2.81
  24  0.131  0.958  0.132-  79 2.52  77 2.55  35 2.57  53 2.58  55 2.59  70 2.64  38 2.66  58 2.66
                            73 2.67  23 2.69  66 2.73  41 2.75
  25  0.375  0.461  0.424-  16 2.63  17 2.66  15 2.68  14 2.68  13 2.69   5 2.70  30 2.82   3 2.84
                            18 2.86
  26  0.455  0.546  0.219-  73 2.50  74 2.54  51 2.55  79 2.63  64 2.65  30 2.66  18 2.66  68 2.69
                            78 2.69  32 2.70  44 2.74  67 2.75
  27  0.622  0.712  0.423-  14 2.61   8 2.65  15 2.65  11 2.66  12 2.66   7 2.69  44 2.70  61 2.77
                            29 2.78
  28  0.956  0.789  0.221-  58 2.56  66 2.58  50 2.58  42 2.61   1 2.62  49 2.64  64 2.66   2 2.67
                            33 2.70  59 2.74  79 2.80  77 2.81
  29  0.794  0.623  0.319-  42 2.56  39 2.56  75 2.60  32 2.62  44 2.67  33 2.67  49 2.68  61 2.70
                             1 2.70  12 2.78  27 2.78   7 2.79
  30  0.290  0.631  0.318-  79 2.56  64 2.61  52 2.63  26 2.66  44 2.66   2 2.66  33 2.67   3 2.73
                            18 2.74  14 2.75  25 2.82  16 2.84
  31  0.202  0.280  0.225-  70 2.51  55 2.58  43 2.58  65 2.59  57 2.60   3 2.63  39 2.66  21 2.71
                            80 2.72  42 2.74  68 2.79  64 2.83  22 3.41
  32  0.706  0.550  0.221-  54 2.53  69 2.56  51 2.58  49 2.60  29 2.62  42 2.62  78 2.64  65 2.65
                            75 2.68  44 2.69  26 2.70  67 2.72
  33  0.040  0.632  0.325-   3 2.61  30 2.67  39 2.67  29 2.67   1 2.68  12 2.69   2 2.69  28 2.70
                            64 2.70  16 2.71   5 2.72  42 2.73
  34  0.796  0.862  0.044-  50 2.39  66 2.51  48 2.52  36 2.55  71 2.58  63 2.62  20 2.71  62 2.79
                            35 2.80
  35  0.057  0.865  0.039-  58 2.54  72 2.55  36 2.56  24 2.57  66 2.62  53 2.68  23 2.76  62 2.76
                            34 2.80
  36  0.044  0.632  0.039-  21 2.53  34 2.55  35 2.56  58 2.58  50 2.59  47 2.67  72 2.69  71 2.74
                            40 2.76
  37  0.628  0.224  0.129-  51 2.51  67 2.52  56 2.52  74 2.53  20 2.55  68 2.56  59 2.56  41 2.57
                            62 2.59  66 2.69  57 2.76  48 2.95
  38  0.383  0.954  0.131-  53 2.46  45 2.47  80 2.47  78 2.53  73 2.56  63 2.56  48 2.56  54 2.58
                            55 2.58  57 2.65  24 2.66  70 2.70
  39  0.035  0.384  0.324-  29 2.56   3 2.59  75 2.60  22 2.61  42 2.65  10 2.66  31 2.66  33 2.67
                             7 2.69   5 2.71  65 2.74  43 2.82
  40  0.028  0.381  0.039-  69 2.42  21 2.52  71 2.54  76 2.54  70 2.56  23 2.60  36 2.76  45 2.84
                            47 2.85
  41  0.872  0.215  0.129-  76 2.45  65 2.52  77 2.53  67 2.53  37 2.57  62 2.57  69 2.59  23 2.61
                            51 2.61  70 2.68  66 2.68  24 2.75
  42  0.955  0.545  0.224-  50 2.55  29 2.56  69 2.60  21 2.60  28 2.61  32 2.62  49 2.65  39 2.65
                            65 2.65  64 2.69  33 2.73  31 2.74
  43  0.296  0.116  0.320-  55 2.52  52 2.57  31 2.58  19 2.58  61 2.59   8 2.60  22 2.60  80 2.64
                            10 2.72   3 2.73  13 2.75  39 2.82
  44  0.541  0.629  0.321-  61 2.59  52 2.60  78 2.63  30 2.66  18 2.66  14 2.67  29 2.67  75 2.68
                            15 2.69  32 2.69  27 2.70  26 2.74
  45  0.296  0.116  0.041-  38 2.47  70 2.49  57 2.57  53 2.58  23 2.64  63 2.65  20 2.73  47 2.83
                            40 2.84
  46  0.549  0.625  0.045-  51 2.38  73 2.39  54 2.41  71 2.57  53 2.59  63 2.60  76 2.62  56 2.63
                            72 2.66
  47  0.294  0.382  0.040-  74 2.41  21 2.53  57 2.64  72 2.65  56 2.66  36 2.67  20 2.74  45 2.83
                            40 2.85
  48  0.626  0.948  0.133-  49 2.39  54 2.48  80 2.49  34 2.52  59 2.56  63 2.56  38 2.56  20 2.57
                            50 2.58  57 2.68  66 2.72  37 2.95
  49  0.707  0.793  0.220-  48 2.39  50 2.47  54 2.48  80 2.57  32 2.60   1 2.62  61 2.63  28 2.64
                            78 2.64  42 2.65  29 2.68  59 2.73
  50  0.865  0.704  0.130-  34 2.39  71 2.42  49 2.47  54 2.49  42 2.55  48 2.58  28 2.58  69 2.58
                            36 2.59  21 2.67  66 2.81  58 2.90
  51  0.627  0.460  0.128-  46 2.38  76 2.44  56 2.51  37 2.51  26 2.55  32 2.58  41 2.61  67 2.62
                            73 2.63  69 2.64  74 2.65  54 2.72
  52  0.298  0.874  0.318-  55 2.44  79 2.52  78 2.52  61 2.56  43 2.57  44 2.60  30 2.63   8 2.68
                             2 2.69  14 2.73  22 2.75   6 2.80
  53  0.307  0.869  0.042-  73 2.42  38 2.46  63 2.57  24 2.58  45 2.58  46 2.59  72 2.61  35 2.68
                            23 2.81
  54  0.627  0.715  0.129-  46 2.41  71 2.46  63 2.48  48 2.48  49 2.48  50 2.49  32 2.53  38 2.58
                            73 2.58  78 2.62  69 2.70  51 2.72
  55  0.225  0.027  0.228-  52 2.44  78 2.48  79 2.51  43 2.52  80 2.54  22 2.54  31 2.58  38 2.58
                            24 2.59  70 2.72  77 2.75  65 2.90
  56  0.544  0.381  0.036-  74 2.50  51 2.51  37 2.52  76 2.61  46 2.63  72 2.64  47 2.66  62 2.72
                            20 2.74
  57  0.379  0.204  0.133-  68 2.46  80 2.54  20 2.55  45 2.57  31 2.60  47 2.64  38 2.65  74 2.66
                            70 2.66  48 2.68  21 2.74  37 2.76
  58  0.137  0.705  0.133-  72 2.46  64 2.50  35 2.54  28 2.56  79 2.57  36 2.58  74 2.66  24 2.66
                            73 2.70  21 2.71  50 2.90
  59  0.705  0.051  0.220-  66 2.52  48 2.56  37 2.56  19 2.60  68 2.61  67 2.61  60 2.62   1 2.64
                            77 2.69  80 2.71  49 2.73  28 2.74
  60  0.793  0.129  0.317-  67 2.53  77 2.57  59 2.62  18 2.62   2 2.65  75 2.67   1 2.70   9 2.71
                            22 2.71  17 2.77  19 2.78   4 2.83
  61  0.539  0.873  0.317-  78 2.49  80 2.52  52 2.56  43 2.59  44 2.59  49 2.63  19 2.66   1 2.68
                            29 2.70   8 2.71  27 2.77  11 2.82
  62  0.797  0.123  0.036-  66 2.53  41 2.57  37 2.59  23 2.65  20 2.66  76 2.68  56 2.72  35 2.76
                            34 2.79
  63  0.546  0.870  0.037-  54 2.48  38 2.56  48 2.56  53 2.57  46 2.60  34 2.62  71 2.63  45 2.65
                            20 2.70
  64  0.208  0.542  0.224-  58 2.50   3 2.57  30 2.61  21 2.62  26 2.65  28 2.66  68 2.66  74 2.67
                            42 2.69  33 2.70  79 2.76  31 2.83
  65  0.951  0.297  0.222-  69 2.52  22 2.52  41 2.52  67 2.55  77 2.58  31 2.59  75 2.61  70 2.61
                            32 2.65  42 2.65  39 2.74  55 2.90
  66  0.872  0.964  0.130-  34 2.51  59 2.52  62 2.53  77 2.58  28 2.58  35 2.62  41 2.68  37 2.69
                            48 2.72  24 2.73  50 2.81
  67  0.715  0.290  0.224-  37 2.52  60 2.53  41 2.53  77 2.54  65 2.55  18 2.56  59 2.61  51 2.62
                            75 2.63  32 2.72  68 2.74  26 2.75
  68  0.457  0.292  0.221-  57 2.46  74 2.54  37 2.56  19 2.57  59 2.61  18 2.65  64 2.66  26 2.69
                             3 2.71  67 2.74  80 2.78  31 2.79
  69  0.875  0.457  0.129-  40 2.42  71 2.45  76 2.46  65 2.52  32 2.56  50 2.58  41 2.59  42 2.60
                            21 2.62  51 2.64  70 2.68  54 2.70
  70  0.128  0.206  0.129-  45 2.49  31 2.51  40 2.56  23 2.57  65 2.61  24 2.64  21 2.66  57 2.66
                            41 2.68  69 2.68  38 2.70  55 2.72
  71  0.792  0.622  0.041-  50 2.42  69 2.45  54 2.46  40 2.54  46 2.57  34 2.58  76 2.61  63 2.63
                            36 2.74
  72  0.298  0.629  0.044-  74 2.46  58 2.46  73 2.47  35 2.55  53 2.61  56 2.64  47 2.65  46 2.66
                            36 2.69
  73  0.386  0.713  0.130-  46 2.39  53 2.42  72 2.47  26 2.50  78 2.54  38 2.56  54 2.58  79 2.63
                            51 2.63  24 2.67  58 2.70  74 2.80
  74  0.382  0.451  0.127-  47 2.41  72 2.46  56 2.50  37 2.53  68 2.54  26 2.54  51 2.65  57 2.66
                            58 2.66  64 2.67  21 2.75  73 2.80
  75  0.793  0.380  0.320-  29 2.60  39 2.60  65 2.61  67 2.63  18 2.63  22 2.64   9 2.66  60 2.67
                            44 2.68  32 2.68  15 2.71   7 2.75
  76  0.791  0.377  0.041-  51 2.44  41 2.45  69 2.46  40 2.54  56 2.61  71 2.61  46 2.62  23 2.65
                            62 2.68
  77  0.956  0.053  0.222-  41 2.53  67 2.54  24 2.55  22 2.57  60 2.57  66 2.58  65 2.58   2 2.60
                            59 2.69  79 2.74  55 2.75  28 2.81
  78  0.458  0.796  0.225-  55 2.48  61 2.49  80 2.50  52 2.52  38 2.53  73 2.54  79 2.59  54 2.62
                            44 2.63  49 2.64  32 2.64  26 2.69
  79  0.215  0.798  0.225-  55 2.51  24 2.52  52 2.52   2 2.56  30 2.56  58 2.57  78 2.59  73 2.63
                            26 2.63  77 2.74  64 2.76  28 2.80
  80  0.462  0.029  0.223-  38 2.47  48 2.49  78 2.50  61 2.52  55 2.54  57 2.54  19 2.55  49 2.57
                            43 2.64  59 2.71  31 2.72  68 2.78
  81  0.124  0.585  0.468-  16 1.59   5 1.62
 
  LATTYP: Found a hexagonal cell.
 ALAT       =    10.6599998474
 C/A-ratio  =     2.0637898982
  
  Lattice vectors:
  
 A1 = (   5.3299999237,  -9.2318306722,   0.0000000000)
 A2 = ( -10.6599998474,   0.0000000000,   0.0000000000)
 A3 = (   0.0000000000,   0.0000000000, -22.0000000000)


Analysis of symmetry for initial positions (statically):
=====================================================================
 Subroutine PRICEL returns:
 Original cell was already a primitive cell.
 

 Routine SETGRP: Setting up the symmetry group for a 
 hexagonal supercell.


 Subroutine GETGRP returns: Found  1 space group operations
 (whereof  1 operations were pure point group operations)
 out of a pool of 24 trial point group operations.


The static configuration has the point symmetry C_1 .


Analysis of symmetry for dynamics (positions and initial velocities):
=====================================================================
 Subroutine PRICEL returns:
 Original cell was already a primitive cell.
 

 Routine SETGRP: Setting up the symmetry group for a 
 hexagonal supercell.


 Subroutine GETGRP returns: Found  1 space group operations
 (whereof  1 operations were pure point group operations)
 out of a pool of 24 trial point group operations.


The dynamic configuration has the point symmetry C_1 .


Analysis of constrained symmetry for selective dynamics:
=====================================================================
 Subroutine PRICEL returns:
 Original cell was already a primitive cell.
 

 Routine SETGRP: Setting up the symmetry group for a 
 hexagonal supercell.


 Subroutine GETGRP returns: Found  1 space group operations
 (whereof  1 operations were pure point group operations)
 out of a pool of 24 trial point group operations.


The constrained configuration has the point symmetry C_1 .


Analysis of structural, dynamic, and magnetic symmetry:
=====================================================================
 Subroutine PRICEL returns:
 Original cell was already a primitive cell.
 

 Routine SETGRP: Setting up the symmetry group for a 
 hexagonal supercell.


 Subroutine GETGRP returns: Found  1 space group operations
 (whereof  1 operations were pure point group operations)
 out of a pool of 24 trial point group operations.


The magnetic configuration has the point symmetry C_1 .


 Subroutine INISYM returns: Found  1 space group operations
 (whereof  1 operations are pure point group operations),
 and found     1 'primitive' translations

 
 
 KPOINTS: mesh auto                               

Automatic generation of k-mesh.
Space group operators:
 irot       det(A)        alpha          n_x          n_y          n_z        tau_x        tau_y        tau_z
    1     1.000000     0.000000     1.000000     0.000000     0.000000     0.000000     0.000000     0.000000
 
 Subroutine IBZKPT returns following result:
 ===========================================
 
 Found      4 irreducible k-points:
 
 Following reciprocal coordinates:
            Coordinates               Weight
  0.000000  0.000000  0.000000      1.000000
  0.500000 -0.000000  0.000000      1.000000
  0.000000  0.500000  0.000000      1.000000
  0.500000  0.500000  0.000000      1.000000
 
 Following cartesian coordinates:
            Coordinates               Weight
  0.000000  0.000000  0.000000      1.000000
  0.046904 -0.027080  0.000000      1.000000
  0.000000  0.054160  0.000000      1.000000
  0.046904  0.027080  0.000000      1.000000
 


--------------------------------------------------------------------------------------------------------




 Dimension of arrays:
   k-points           NKPTS =      4   k-points in BZ     NKDIM =      4   number of bands    NBANDS=    588
   number of dos      NEDOS =    301   number of ions     NIONS =     81
   non local maximal  LDIM  =      6   non local SUM 2l+1 LMDIM =     18
   total plane-waves  NPLWV = ******
   max r-space proj   IRMAX =   7657   max aug-charges    IRDMAX=  33358
   dimension x,y,z NGX =    84 NGY =   84 NGZ =  168
   dimension x,y,z NGXF=   168 NGYF=  168 NGZF=  336
   support grid    NGXF=   168 NGYF=  168 NGZF=  336
   ions per type =              32  13  10  13  12   1
   NGX,Y,Z   is equivalent  to a cutoff of  13.10, 13.10, 12.70 a.u.
   NGXF,Y,Z  is equivalent  to a cutoff of  26.20, 26.20, 25.39 a.u.

 SYSTEM =  Pt111                                   
 POSCAR =  10.66                                   

 Startparameter for this run:
   NWRITE =      2    write-flag & timer
   PREC   = accura    normal or accurate (medium, high low for compatibility)
   ISTART =      0    job   : 0-new  1-cont  2-samecut
   ICHARG =      2    charge: 1-file 2-atom 10-const
   ISPIN  =      2    spin polarized calculation?
   LNONCOLLINEAR =      F non collinear calculations
   LSORBIT =      F    spin-orbit coupling
   INIWAV =      1    electr: 0-lowe 1-rand  2-diag
   LASPH  =      F    aspherical Exc in radial PAW
   METAGGA=      F    non-selfconsistent MetaGGA calc.

 Electronic Relaxation 1
   ENCUT  =  550.0 eV  40.42 Ry    6.36 a.u.  20.38 20.38 42.07*2*pi/ulx,y,z
   ENINI  =  550.0     initial cutoff
   ENAUG  =  587.0 eV  augmentation charge cutoff
   NELM   =    200;   NELMIN=  2; NELMDL= -5     # of ELM steps 
   EDIFF  = 0.1E-04   stopping-criterion for ELM
   LREAL  =      T    real-space projection
   NLSPLINE    = F    spline interpolate recip. space projectors
   LCOMPAT=      F    compatible to vasp.4.4
   GGA_COMPAT  = T    GGA compatible to vasp.4.4-vasp.4.6
   LMAXPAW     = -100 max onsite density
   LMAXMIX     =    2 max onsite mixed and CHGCAR
   VOSKOWN=      0    Vosko Wilk Nusair interpolation
   ROPT   =   -0.00025  -0.00025  -0.00025  -0.00025
   ROPT   =   -0.00025  -0.00025
 Ionic relaxation
   EDIFFG = -.5E-01   stopping-criterion for IOM
   NSW    =    300    number of steps for IOM
   NBLOCK =      1;   KBLOCK =    300    inner block; outer block 
   IBRION =      2    ionic relax: 0-MD 1-quasi-New 2-CG
   NFREE  =      1    steps in history (QN), initial steepest desc. (CG)
   ISIF   =      2    stress and relaxation
   IWAVPR =     11    prediction:  0-non 1-charg 2-wave 3-comb
   ISYM   =      2    0-nonsym 1-usesym 2-fastsym
   LCORR  =      T    Harris-Foulkes like correction to forces

   POTIM  = 0.5000    time-step for ionic-motion
   TEIN   =    0.0    initial temperature
   TEBEG  =    0.0;   TEEND  =   0.0 temperature during run
   SMASS  =  -3.00    Nose mass-parameter (am)
   estimated Nose-frequenzy (Omega)   =  0.10E-29 period in steps =****** mass=  -0.260E-26a.u.
   SCALEE = 1.0000    scale energy and forces
   NPACO  =    256;   APACO  = 16.0  distance and # of slots for P.C.
   PSTRESS=    0.0 pullay stress

  Mass of Ions in am
   POMASS = 195.08 55.85 58.93 63.55 58.69  1.00
  Ionic Valenz
   ZVAL   =  10.00  8.00  9.00 11.00 10.00  1.00
  Atomic Wigner-Seitz radii
   RWIGS  =  -1.00 -1.00 -1.00 -1.00 -1.00 -1.00
  virtual crystal weights 
   VCA    =   1.00  1.00  1.00  1.00  1.00  1.00
   NELECT =     778.0000    total number of electrons
   NUPDOWN=      -1.0000    fix difference up-down

 DOS related values:
   EMIN   =  10.00;   EMAX   =-10.00  energy-range for DOS
   EFERMI =   0.00
   ISMEAR =     1;   SIGMA  =   0.10  broadening in eV -4-tet -1-fermi 0-gaus

 Electronic relaxation 2 (details)
   IALGO  =     68    algorithm
   LDIAG  =      T    sub-space diagonalisation (order eigenvalues)
   LSUBROT=      F    optimize rotation matrix (better conditioning)
   TURBO    =      0    0=normal 1=particle mesh
   IRESTART =      0    0=no restart 2=restart with 2 vectors
   NREBOOT  =      0    no. of reboots
   NMIN     =      0    reboot dimension
   EREF     =   0.00    reference energy to select bands
   IMIX   =      4    mixing-type and parameters
     AMIX     =   0.40;   BMIX     =  1.00
     AMIX_MAG =   1.60;   BMIX_MAG =  1.00
     AMIN     =   0.10
     WC   =   100.;   INIMIX=   1;  MIXPRE=   1;  MAXMIX= -45

 Intra band minimization:
   WEIMIN = 0.0010     energy-eigenvalue tresh-hold
   EBREAK =  0.43E-08  absolut break condition
   DEPER  =   0.30     relativ break condition  

   TIME   =   0.40     timestep for ELM

  volume/ion in A,a.u.               =      26.73       180.38
  Fermi-wavevector in a.u.,A,eV,Ry     =   1.163891  2.199434 18.431011  1.354641
  Thomas-Fermi vector in A             =   2.300435
 
 Write flags
   LWAVE        =      F    write WAVECAR
   LDOWNSAMPLE  =      F    k-point downsampling of WAVECAR
   LCHARG       =      F    write CHGCAR
   LVTOT        =      F    write LOCPOT, total local potential
   LVHAR        =      F    write LOCPOT, Hartree potential only
   LELF         =      F    write electronic localiz. function (ELF)
   LORBIT       =      0    0 simple, 1 ext, 2 COOP (PROOUT), +10 PAW based schemes


 Dipole corrections
   LMONO  =      F    monopole corrections only (constant potential shift)
   LDIPOL =      F    correct potential (dipole corrections)
   IDIPOL =      0    1-x, 2-y, 3-z, 4-all directions 
   EPSILON=  1.0000000 bulk dielectric constant

 Exchange correlation treatment:
   GGA     =    --    GGA type
   LEXCH   =     8    internal setting for exchange type
   VOSKOWN=      0    Vosko Wilk Nusair interpolation
   LHFCALC =     F    Hartree Fock is set to
   LHFONE  =     F    Hartree Fock one center treatment
   AEXX    =    0.0000 exact exchange contribution

 Linear response parameters
   LEPSILON=     F    determine dielectric tensor
   LRPA    =     F    only Hartree local field effects (RPA)
   LNABLA  =     F    use nabla operator in PAW spheres
   LVEL    =     F    velocity operator in full k-point grid
   LINTERFAST=   F  fast interpolation
   KINTER  =     0    interpolate to denser k-point grid
   CSHIFT  =0.1000    complex shift for real part using Kramers Kronig
   OMEGAMAX=  -1.0    maximum frequency
   DEG_THRESHOLD= 0.2000000E-02 threshold for treating states as degnerate
   RTIME   =   -0.100 relaxation time in fs
  (WPLASMAI=    0.000 imaginary part of plasma frequency in eV, 0.658/RTIME)
   DFIELD  = 0.0000000 0.0000000 0.0000000 field for delta impulse in time
 
 Orbital magnetization related:
   ORBITALMAG=     F  switch on orbital magnetization
   LCHIMAG   =     F  perturbation theory with respect to B field
   DQ        =  0.001000  dq finite difference perturbation B field
   LLRAUG    =     F  two centre corrections for induced B field



--------------------------------------------------------------------------------------------------------


 conjugate gradient relaxation of ions
   using selective dynamics as specified on POSCAR
 charge density and potential will be updated during run
 spin polarized calculation
 RMM-DIIS sequential band-by-band and
  variant of blocked Davidson during initial phase
 perform sub-space diagonalisation
    before iterative eigenvector-optimisation
 modified Broyden-mixing scheme, WC =      100.0
 initial mixing is a Kerker type mixing with AMIX =  0.4000 and BMIX =      1.0000
 Hartree-type preconditioning will be used
 using additional bands          199
 real space projection scheme for non local part
 use partial core corrections
 calculate Harris-corrections to forces 
   (improved forces if not selfconsistent)
 use gradient corrections 
 use of overlap-Matrix (Vanderbilt PP)
 Methfessel and Paxton  Order N= 1 SIGMA  =   0.10


--------------------------------------------------------------------------------------------------------


  energy-cutoff  :      550.00
  volume of cell :     2165.05
      direct lattice vectors                 reciprocal lattice vectors
    10.659999847  0.000000000  0.000000000     0.093808632 -0.054160439  0.000000000
     5.329999924  9.231830672  0.000000000     0.000000000  0.108320878  0.000000000
     0.000000000  0.000000000 22.000000000     0.000000000  0.000000000  0.045454545

  length of vectors
    10.659999847 10.659999847 22.000000000     0.108320878  0.108320878  0.045454545


 
 k-points in units of 2pi/SCALE and weight: mesh auto                               
   0.00000000  0.00000000  0.00000000       0.250
   0.04690432 -0.02708022  0.00000000       0.250
   0.00000000  0.05416044  0.00000000       0.250
   0.04690432  0.02708022  0.00000000       0.250
 
 k-points in reciprocal lattice and weights: mesh auto                               
   0.00000000  0.00000000  0.00000000       0.250
   0.50000000 -0.00000000  0.00000000       0.250
   0.00000000  0.50000000  0.00000000       0.250
   0.50000000  0.50000000  0.00000000       0.250
 
 position of ions in fractional coordinates (direct lattice) 
   0.78698156  0.87934948  0.31670903
   0.04234848  0.88246863  0.31591121
   0.27906093  0.38077159  0.31860809
   0.87037601  0.96396705  0.42463440
   0.12086295  0.46246961  0.42579099
   0.12543563  0.96387204  0.42212371
   0.87404697  0.45970614  0.42522089
   0.37414116  0.96018450  0.41859529
   0.87209320  0.21346419  0.41866451
   0.12504209  0.21244796  0.42095965
   0.62402401  0.96062852  0.42207325
   0.87281104  0.70992359  0.42433242
   0.37420595  0.20933820  0.42297381
   0.37724820  0.71152838  0.42154660
   0.62552648  0.46180555  0.42118050
   0.12661411  0.70664851  0.42737501
   0.62411420  0.21111642  0.42062184
   0.54809608  0.37581131  0.31638217
   0.53418159  0.12488383  0.31438418
   0.54860226  0.12207837  0.04171946
   0.12037701  0.45967589  0.12832010
   0.04398259  0.13560906  0.31394450
   0.04184264  0.13051489  0.03430237
   0.13087669  0.95764103  0.13245935
   0.37478501  0.46119156  0.42416400
   0.45485914  0.54588982  0.21874999
   0.62218054  0.71199103  0.42264004
   0.95645968  0.78899581  0.22100756
   0.79431358  0.62283920  0.31869408
   0.29035371  0.63122911  0.31786704
   0.20217908  0.27972982  0.22528100
   0.70611390  0.54959934  0.22097174
   0.04036407  0.63157605  0.32455883
   0.79601056  0.86182010  0.04358326
   0.05654378  0.86511100  0.03922008
   0.04354811  0.63172365  0.03890931
   0.62768151  0.22351632  0.12936912
   0.38251648  0.95408414  0.13073287
   0.03528268  0.38373991  0.32354596
   0.02789537  0.38111357  0.03922688
   0.87238548  0.21524336  0.12909491
   0.95467932  0.54470465  0.22394960
   0.29644672  0.11628504  0.32044908
   0.54060553  0.62917590  0.32136700
   0.29593874  0.11566849  0.04109769
   0.54915757  0.62535345  0.04512996
   0.29444361  0.38188257  0.03954700
   0.62577798  0.94799811  0.13283874
   0.70705774  0.79324161  0.22005214
   0.86523064  0.70443471  0.12965162
   0.62674088  0.45978399  0.12791088
   0.29845064  0.87417220  0.31768696
   0.30656831  0.86859519  0.04153612
   0.62656079  0.71505450  0.12903147
   0.22515281  0.02743556  0.22759778
   0.54425403  0.38139876  0.03593963
   0.37883082  0.20414358  0.13341050
   0.13702030  0.70469682  0.13275664
   0.70477493  0.05064794  0.22041944
   0.79288205  0.12930665  0.31656623
   0.53879004  0.87299165  0.31663114
   0.79690904  0.12300803  0.03589815
   0.54639677  0.86991640  0.03703501
   0.20779659  0.54239767  0.22376022
   0.95111425  0.29749285  0.22182122
   0.87203635  0.96412677  0.12966428
   0.71537339  0.29000752  0.22356538
   0.45718173  0.29225077  0.22086730
   0.87549525  0.45703326  0.12894021
   0.12808024  0.20618715  0.12934578
   0.79201094  0.62176511  0.04149761
   0.29752238  0.62870438  0.04356032
   0.38614974  0.71252577  0.12966825
   0.38234618  0.45146388  0.12688447
   0.79315007  0.37965716  0.31998752
   0.79142063  0.37689392  0.04093851
   0.95561894  0.05311826  0.22176563
   0.45832980  0.79639200  0.22484809
   0.21473375  0.79774967  0.22502562
   0.46199744  0.02941329  0.22254954
   0.12357973  0.58487853  0.46840172
 
 position of ions in cartesian coordinates  (Angst):
  13.07615599  8.11800551  6.96759867
   5.15499251  8.14680092  6.95004655
   5.00430200  3.51521882  7.00937790
  14.41615247  8.89918061  9.34195677
   3.75336201  4.26944112  9.36740170
   6.47458174  8.89830346  9.28672158
  11.76757422  4.24392924  9.35485963
   9.10612809  8.86426075  9.20909647
  10.43427746  1.97066527  9.21061932
   2.46529630  1.96128357  9.26111228
  11.77224579  8.86835980  9.28561147
  13.08805823  6.55389440  9.33531328
   5.10480797  1.93257482  9.30542384
   7.81391199  6.56870955  9.27402517
   9.12953571  4.26331063  9.26597090
   5.11614291  6.52365937  9.40225030
   7.77830774  1.94899106  9.25368057
   7.84577839  3.46942635  6.96040778
   6.36000644  1.15290638  6.91645200
   6.49877769  1.12700682  0.91782815
   3.73329140  4.24365001  2.82304227
   1.19165074  1.25191993  6.90677896
   1.14168689  1.20489139  0.75465211
   6.49937211  8.84077982  2.91410569
   6.45335914  4.25764239  9.33160810
   7.75839111  5.03956240  4.81249981
  10.42735662  6.57298059  9.29808086
  14.40120767  7.28387573  4.86216630
  11.78711552  5.74994601  7.01126987
   6.45962155  5.82740022  6.99307492
   3.64618885  2.58241830  4.95618191
  10.45653852  5.07380801  4.86137834
   3.79658130  5.83060319  7.14029420
  13.07897347  7.95617723  0.95883175
   5.21379828  7.98655826  0.86284167
   3.83130979  5.83196573  0.85600479
   7.88242681  2.06346482  2.84612068
   9.16289403  8.80794326  2.87612304
   2.42144708  3.54262184  7.11801115
   2.32869997  3.51837592  0.86299137
  10.44687620  1.98709023  2.84008810
  13.08015720  5.02862111  4.92689116
   3.77992122  1.07352384  7.04987973
   9.11636234  5.80844539  7.07007403
   3.77121995  1.06783187  0.90414915
   9.18715339  5.77315714  0.99285907
   5.17420286  3.52547522  0.87003394
  11.72362308  8.75175804  2.92245229
  11.76521306  7.32307218  4.84114715
  12.97799537  6.50322193  2.85233561
   9.13170631  4.24464793  2.81403934
   7.84082150  8.07020973  6.98911306
   7.89763048  8.01872375  0.91379463
  10.49037833  6.60126203  2.83869239
   2.54636042  0.25328046  5.00715111
   7.83460323  3.52100880  0.79067188
   5.12642169  1.88461893  2.93503107
   5.21667036  6.50564171  2.92064609
   7.78285419  0.46757319  4.84922766
   9.14132700  1.19373713  6.96445700
  10.39654712  8.05931108  6.96588500
   9.15068307  1.13558928  0.78975929
  10.46124387  8.03092093  0.81477030
   5.10609115  5.00732347  4.92272485
  11.72451460  2.74640359  4.88006674
  14.43470298  8.90065509  2.85261421
   9.17162027  2.67730030  4.91843837
   6.43125380  2.69800961  4.85908059
  11.76876646  4.21925362  2.83668457
   2.46431279  1.90348482  2.84560726
  11.75684446  5.74003023  0.91294740
   6.52258279  5.80409234  0.95832694
   7.91411848  6.57791728  2.85270146
   6.48211261  4.16783809  2.79145838
  10.47855222  3.50493060  7.03972547
  10.44538833  3.47942085  0.90064720
  10.47001811  0.49037882  4.87884395
   9.13056487  7.35215612  4.94665795
   6.54106736  7.36468985  4.95056361
   5.08166545  0.27153855  4.89608981
   4.43476241  5.39949957 10.30483790
 


--------------------------------------------------------------------------------------------------------


 k-point  1 :   0.0000 0.0000 0.0000  plane waves:   63475
 k-point  2 :   0.5000-0.0000 0.0000  plane waves:   63428
 k-point  3 :   0.0000 0.5000 0.0000  plane waves:   63428
 k-point  4 :   0.5000 0.5000 0.0000  plane waves:   63428

 maximum and minimum number of plane-waves per node :     15884    15811

 maximum number of plane-waves:     63475
 maximum index in each direction: 
   IXMAX=   20   IYMAX=   20   IZMAX=   42
   IXMIN=  -20   IYMIN=  -20   IZMIN=  -42


 real space projection operators:
  total allocation   :      76347.21 KBytes
  max/ min on nodes  :      19104.59      19064.20


 parallel 3D FFT for wavefunctions:
    minimum data exchange during FFTs selected (reduces bandwidth)
 parallel 3D FFT for charge:
    minimum data exchange during FFTs selected (reduces bandwidth)


 total amount of memory used by VASP MPI-rank0   231983. kBytes
=======================================================================

   base      :      30000. kBytes
   nonlr-proj:      34033. kBytes
   fftplans  :      16133. kBytes
   grid      :      49182. kBytes
   one-center:        653. kBytes
   wavefun   :     101982. kBytes
 
     INWAV:  cpu time    0.0000: real time    0.0004
 Broyden mixing: mesh for mixing (old mesh)
   NGX = 41   NGY = 41   NGZ = 85
  (NGX  =168   NGY  =168   NGZ  =336)
  gives a total of 142885 points

 initial charge density was supplied:
 charge density of overlapping atoms calculated
 number of electron     778.0000000 magnetization     231.0000000
 keeping initial charge density in first step


--------------------------------------------------------------------------------------------------------


 Maximum index for non-local projection operator         1866
 Maximum index for augmentation-charges         1444 (set IRDMAX)


--------------------------------------------------------------------------------------------------------


 First call to EWALD:  gamma=   0.137
 Maximum number of real-space cells 4x 4x 2
 Maximum number of reciprocal cells 2x 2x 4

    FEWALD:  cpu time    0.0068: real time    0.0069


--------------------------------------- Iteration      1(   1)  ---------------------------------------


    POTLOK:  cpu time    0.4035: real time    0.4061
    SETDIJ:  cpu time    0.0367: real time    0.0368
     EDDAV:  cpu time   62.4585: real time   62.7266
       DOS:  cpu time    0.0025: real time    0.0275
    --------------------------------------------
      LOOP:  cpu time   62.9013: real time   63.1970

 eigenvalue-minimisations  :  9408
 total energy-change (2. order) : 0.7831822E+04  (-0.3294692E+05)
 number of electron     778.0000000 magnetization     231.0000000
 augmentation part      778.0000000 magnetization     231.0000000

 Free energy of the ion-electron system (eV)
  ---------------------------------------------------
  alpha Z        PSCENC =      2197.15539535
  Ewald energy   TEWEN  =    222787.02283132
  -Hartree energ DENC   =   -294926.26384875
  -exchange      EXHF   =         0.00000000
  -V(xc)+E(xc)   XCENC  =      1384.83918691
  PAW double counting   =     64136.80006862   -66038.70876209
  entropy T*S    EENTRO =         0.00591964
  eigenvalues    EBANDS =      8072.31613442
  atomic energy  EATOM  =     70218.65458108
  Solvation  Ediel_sol  =         0.00000000
  ---------------------------------------------------
  free energy    TOTEN  =      7831.82150650 eV

  energy without entropy =     7831.81558686  energy(sigma->0) =     7831.81953328


--------------------------------------------------------------------------------------------------------




--------------------------------------- Iteration      1(   2)  ---------------------------------------


     EDDAV:  cpu time   62.4763: real time   62.6985
       DOS:  cpu time    0.0028: real time    0.0040
    --------------------------------------------
      LOOP:  cpu time   62.4792: real time   62.7026

 eigenvalue-minimisations  :  9408
 total energy-change (2. order) :-0.7000183E+04  (-0.6261866E+04)
 number of electron     778.0000000 magnetization     231.0000000
 augmentation part      778.0000000 magnetization     231.0000000

 Free energy of the ion-electron system (eV)
  ---------------------------------------------------
  alpha Z        PSCENC =      2197.15539535
  Ewald energy   TEWEN  =    222787.02283132
  -Hartree energ DENC   =   -294926.26384875
  -exchange      EXHF   =         0.00000000
  -V(xc)+E(xc)   XCENC  =      1384.83918691
  PAW double counting   =     64136.80006862   -66038.70876209
  entropy T*S    EENTRO =         0.00652106
  eigenvalues    EBANDS =      1072.13302336
  atomic energy  EATOM  =     70218.65458108
  Solvation  Ediel_sol  =         0.00000000
  ---------------------------------------------------
  free energy    TOTEN  =       831.63899686 eV

  energy without entropy =      831.63247580  energy(sigma->0) =      831.63682317


--------------------------------------------------------------------------------------------------------




--------------------------------------- Iteration      1(   3)  ---------------------------------------


     EDDAV:  cpu time   62.3432: real time   62.5686
       DOS:  cpu time    0.0030: real time    0.0081
    --------------------------------------------
      LOOP:  cpu time   62.3462: real time   62.5767

 eigenvalue-minimisations  :  9408
 total energy-change (2. order) :-0.1207126E+04  (-0.9774244E+03)
 number of electron     778.0000000 magnetization     231.0000000
 augmentation part      778.0000000 magnetization     231.0000000

 Free energy of the ion-electron system (eV)
  ---------------------------------------------------
  alpha Z        PSCENC =      2197.15539535
  Ewald energy   TEWEN  =    222787.02283132
  -Hartree energ DENC   =   -294926.26384875
  -exchange      EXHF   =         0.00000000
  -V(xc)+E(xc)   XCENC  =      1384.83918691
  PAW double counting   =     64136.80006862   -66038.70876209
  entropy T*S    EENTRO =        -0.00246441
  eigenvalues    EBANDS =      -134.98406377
  atomic energy  EATOM  =     70218.65458108
  Solvation  Ediel_sol  =         0.00000000
  ---------------------------------------------------
  free energy    TOTEN  =      -375.48707574 eV

  energy without entropy =     -375.48461133  energy(sigma->0) =     -375.48625427


--------------------------------------------------------------------------------------------------------




--------------------------------------- Iteration      1(   4)  ---------------------------------------


     EDDAV:  cpu time   74.0747: real time   74.3227
       DOS:  cpu time    0.0030: real time    0.0048
    --------------------------------------------
      LOOP:  cpu time   74.0777: real time   74.3274

 eigenvalue-minimisations  : 11736
 total energy-change (2. order) :-0.1171104E+03  (-0.1074008E+03)
 number of electron     778.0000000 magnetization     231.0000000
 augmentation part      778.0000000 magnetization     231.0000000

 Free energy of the ion-electron system (eV)
  ---------------------------------------------------
  alpha Z        PSCENC =      2197.15539535
  Ewald energy   TEWEN  =    222787.02283132
  -Hartree energ DENC   =   -294926.26384875
  -exchange      EXHF   =         0.00000000
  -V(xc)+E(xc)   XCENC  =      1384.83918691
  PAW double counting   =     64136.80006862   -66038.70876209
  entropy T*S    EENTRO =        -0.00748870
  eigenvalues    EBANDS =      -252.08947794
  atomic energy  EATOM  =     70218.65458108
  Solvation  Ediel_sol  =         0.00000000
  ---------------------------------------------------
  free energy    TOTEN  =      -492.59751420 eV

  energy without entropy =     -492.59002550  energy(sigma->0) =     -492.59501797


--------------------------------------------------------------------------------------------------------




--------------------------------------- Iteration      1(   5)  ---------------------------------------


     EDDAV:  cpu time   70.7107: real time   70.9468
       DOS:  cpu time    0.0035: real time    0.0130
    CHARGE:  cpu time    3.9352: real time    3.9501
    MIXING:  cpu time    0.0105: real time    0.0108
    --------------------------------------------
      LOOP:  cpu time   74.6599: real time   74.9207

 eigenvalue-minimisations  : 11064
 total energy-change (2. order) :-0.4414775E+01  (-0.4379914E+01)
 number of electron     778.0000011 magnetization     216.5094844
 augmentation part      335.1102733 magnetization     184.1741047

 Broyden mixing:
  rms(total) = 0.11762E+02    rms(broyden)= 0.11762E+02
  rms(prec ) = 0.12079E+02
  weight for this iteration     100.00

 Free energy of the ion-electron system (eV)
  ---------------------------------------------------
  alpha Z        PSCENC =      2197.15539535
  Ewald energy   TEWEN  =    222787.02283132
  -Hartree energ DENC   =   -294926.26384875
  -exchange      EXHF   =         0.00000000
  -V(xc)+E(xc)   XCENC  =      1384.83918691
  PAW double counting   =     64136.80006862   -66038.70876209
  entropy T*S    EENTRO =        -0.00672623
  eigenvalues    EBANDS =      -256.50501571
  atomic energy  EATOM  =     70218.65458108
  Solvation  Ediel_sol  =         0.00000000
  ---------------------------------------------------
  free energy    TOTEN  =      -497.01228950 eV

  energy without entropy =     -497.00556328  energy(sigma->0) =     -497.01004743


--------------------------------------------------------------------------------------------------------




--------------------------------------- Iteration      1(   6)  ---------------------------------------


    POTLOK:  cpu time    0.3834: real time    0.4113
    SETDIJ:  cpu time    0.0352: real time    0.0354
    EDDIAG:  cpu time   11.0992: real time   11.1347
  RMM-DIIS:  cpu time   37.7411: real time   37.8633
    ORTHCH:  cpu time    1.2953: real time    1.3015
       DOS:  cpu time    0.0025: real time    0.0025
    CHARGE:  cpu time    3.7251: real time    3.7355
    MIXING:  cpu time    0.0108: real time    0.0114
    --------------------------------------------
      LOOP:  cpu time   54.2928: real time   54.4955

 eigenvalue-minimisations  :  9552
 total energy-change (2. order) :-0.1627170E+03  (-0.9259461E+02)
 number of electron     778.0000015 magnetization     212.4153293
 augmentation part      406.2734892 magnetization     179.5992414

 Broyden mixing:
  rms(total) = 0.19656E+02    rms(broyden)= 0.19656E+02
  rms(prec ) = 0.25481E+02
  weight for this iteration     100.00

 eigenvalues of (default mixing * dielectric matrix)
  average eigenvalue GAMMA=   0.2256
  0.2256

 Free energy of the ion-electron system (eV)
  ---------------------------------------------------
  alpha Z        PSCENC =      2197.15539535
  Ewald energy   TEWEN  =    222787.02283132
  -Hartree energ DENC   =   -293316.48153784
  -exchange      EXHF   =         0.00000000
  -V(xc)+E(xc)   XCENC  =      1339.23498299
  PAW double counting   =     69126.58702378   -70819.10532450
  entropy T*S    EENTRO =         0.01212298
  eigenvalues    EBANDS =     -2192.80936637
  atomic energy  EATOM  =     70218.65458108
  Solvation  Ediel_sol  =         0.00000000
  ---------------------------------------------------
  free energy    TOTEN  =      -659.72929121 eV

  energy without entropy =     -659.74141419  energy(sigma->0) =     -659.73333220


--------------------------------------------------------------------------------------------------------




--------------------------------------- Iteration      1(   7)  ---------------------------------------


    POTLOK:  cpu time    0.3818: real time    0.3841
    SETDIJ:  cpu time    0.0357: real time    0.0358
    EDDIAG:  cpu time   11.1174: real time   11.1494
  RMM-DIIS:  cpu time   37.2367: real time   37.3399
    ORTHCH:  cpu time    1.2936: real time    1.2972
       DOS:  cpu time    0.0026: real time    0.0026
    CHARGE:  cpu time    3.7551: real time    3.7659
    MIXING:  cpu time    0.0120: real time    0.0122
    --------------------------------------------
      LOOP:  cpu time   53.8350: real time   53.9871

 eigenvalue-minimisations  :  9417
 total energy-change (2. order) : 0.1215259E+03  (-0.1663303E+02)
 number of electron     778.0000016 magnetization     207.7777597
 augmentation part      366.2705301 magnetization     165.1923237

 Broyden mixing:
  rms(total) = 0.15623E+02    rms(broyden)= 0.15623E+02
  rms(prec ) = 0.21054E+02
  weight for this iteration     100.00

 eigenvalues of (default mixing * dielectric matrix)
  average eigenvalue GAMMA=   0.2685
  0.3704  0.1666

 Free energy of the ion-electron system (eV)
  ---------------------------------------------------
  alpha Z        PSCENC =      2197.15539535
  Ewald energy   TEWEN  =    222787.02283132
  -Hartree energ DENC   =   -294004.07820246
  -exchange      EXHF   =         0.00000000
  -V(xc)+E(xc)   XCENC  =      1359.45666693
  PAW double counting   =     70183.97338021   -72036.94719428
  entropy T*S    EENTRO =        -0.00472851
  eigenvalues    EBANDS =     -1243.43609189
  atomic energy  EATOM  =     70218.65458108
  Solvation  Ediel_sol  =         0.00000000
  ---------------------------------------------------
  free energy    TOTEN  =      -538.20336226 eV

  energy without entropy =     -538.19863375  energy(sigma->0) =     -538.20178609


--------------------------------------------------------------------------------------------------------




--------------------------------------- Iteration      1(   8)  ---------------------------------------


    POTLOK:  cpu time    0.3840: real time    0.4143
    SETDIJ:  cpu time    0.0354: real time    0.0355
    EDDIAG:  cpu time   11.1563: real time   11.2379
  RMM-DIIS:  cpu time   37.3708: real time   37.4749
    ORTHCH:  cpu time    1.2949: real time    1.2987
       DOS:  cpu time    0.0027: real time    0.0027
    CHARGE:  cpu time    3.6857: real time    3.6957
    MIXING:  cpu time    0.0121: real time    0.0125
    --------------------------------------------
      LOOP:  cpu time   53.9420: real time   54.2252

 eigenvalue-minimisations  :  9433
 total energy-change (2. order) : 0.5921018E+02  (-0.1039530E+02)
 number of electron     778.0000013 magnetization     200.5222390
 augmentation part      371.7200515 magnetization     163.1740060

 Broyden mixing:
  rms(total) = 0.16176E+02    rms(broyden)= 0.16176E+02
  rms(prec ) = 0.18948E+02
  weight for this iteration     100.00

 eigenvalues of (default mixing * dielectric matrix)
  average eigenvalue GAMMA=   0.3073
  0.5805  0.2604  0.0810

 Free energy of the ion-electron system (eV)
  ---------------------------------------------------
  alpha Z        PSCENC =      2197.15539535
  Ewald energy   TEWEN  =    222787.02283132
  -Hartree energ DENC   =   -294268.78308423
  -exchange      EXHF   =         0.00000000
  -V(xc)+E(xc)   XCENC  =      1364.84712534
  PAW double counting   =     71382.71181740   -73304.14458473
  entropy T*S    EENTRO =         0.00590533
  eigenvalues    EBANDS =      -856.46316812
  atomic energy  EATOM  =     70218.65458108
  Solvation  Ediel_sol  =         0.00000000
  ---------------------------------------------------
  free energy    TOTEN  =      -478.99318126 eV

  energy without entropy =     -478.99908659  energy(sigma->0) =     -478.99514971


--------------------------------------------------------------------------------------------------------




--------------------------------------- Iteration      1(   9)  ---------------------------------------


    POTLOK:  cpu time    0.3885: real time    0.4432
    SETDIJ:  cpu time    0.0357: real time    0.0358
    EDDIAG:  cpu time   11.1692: real time   11.2004
  RMM-DIIS:  cpu time   37.3969: real time   37.5031
    ORTHCH:  cpu time    1.3010: real time    1.3046
       DOS:  cpu time    0.0028: real time    0.0028
    CHARGE:  cpu time    3.7664: real time    3.7767
    MIXING:  cpu time    0.0141: real time    0.0700
    --------------------------------------------
      LOOP:  cpu time   54.0746: real time   54.2837

 eigenvalue-minimisations  :  9445
 total energy-change (2. order) : 0.1003825E+03  (-0.1509818E+02)
 number of electron     778.0000010 magnetization     192.3505690
 augmentation part      373.4583235 magnetization     147.5468950

 Broyden mixing:
  rms(total) = 0.12682E+02    rms(broyden)= 0.12682E+02
  rms(prec ) = 0.14432E+02
  weight for this iteration     100.00

 eigenvalues of (default mixing * dielectric matrix)
  average eigenvalue GAMMA=   0.3660
  0.8880  0.3439  0.1387  0.0934

 Free energy of the ion-electron system (eV)
  ---------------------------------------------------
  alpha Z        PSCENC =      2197.15539535
  Ewald energy   TEWEN  =    222787.02283132
  -Hartree energ DENC   =   -293998.20484928
  -exchange      EXHF   =         0.00000000
  -V(xc)+E(xc)   XCENC  =      1381.64047709
  PAW double counting   =     72847.19593775   -74821.80596316
  entropy T*S    EENTRO =        -0.00541737
  eigenvalues    EBANDS =      -990.26371812
  atomic energy  EATOM  =     70218.65458108
  Solvation  Ediel_sol  =         0.00000000
  ---------------------------------------------------
  free energy    TOTEN  =      -378.61072534 eV

  energy without entropy =     -378.60530797  energy(sigma->0) =     -378.60891955


[...]
   -.394E+01 0.279E+02 -.290E+04   0.415E+01 -.274E+02 0.290E+04   -.173E+00 -.412E+00 0.917E+00   -.821E-02 -.107E-02 -.149E-03
   -.151E+01 0.197E+02 -.289E+04   0.940E+00 -.197E+02 0.289E+04   0.601E+00 -.606E-01 0.553E+00   -.784E-02 0.111E-01 -.621E-01
   -.301E+01 -.427E+01 -.288E+04   0.292E+01 0.385E+01 0.288E+04   0.123E+00 0.373E+00 0.111E+01   0.181E-01 0.168E-01 0.172E-02
   -.195E+02 -.774E+01 -.291E+04   0.194E+02 0.713E+01 0.291E+04   0.460E-01 0.598E+00 0.153E+01   -.192E-02 -.277E-02 -.750E-02
   0.142E+02 -.217E+02 -.290E+04   -.145E+02 0.218E+02 0.290E+04   0.365E+00 -.129E+00 0.194E+01   -.125E-01 0.617E-02 0.154E-01
   -.242E+02 0.150E+02 -.291E+04   0.240E+02 -.148E+02 0.291E+04   0.142E+00 -.182E+00 0.114E+01   0.920E-02 0.811E-02 0.183E-01
   -.647E+01 0.862E+01 -.286E+04   0.698E+01 -.804E+01 0.286E+04   -.462E+00 -.556E+00 0.168E+01   -.461E-02 -.155E-01 -.191E-01
   -.599E+01 -.475E+01 -.292E+04   0.624E+01 0.461E+01 0.292E+04   -.281E+00 0.991E-01 0.803E+00   -.368E-02 -.918E-02 0.125E-01
   -.122E+02 0.376E+00 -.287E+04   0.117E+02 -.299E+00 0.287E+04   0.535E+00 -.784E-01 0.166E+01   -.836E-02 -.147E-01 -.833E-02
   0.305E+01 -.191E+02 -.289E+04   -.336E+01 0.186E+02 0.288E+04   0.312E+00 0.515E+00 0.986E+00   -.937E-02 -.464E-02 -.583E-02
   0.250E+02 0.105E+02 -.289E+04   -.243E+02 -.102E+02 0.289E+04   -.706E+00 -.259E+00 0.154E+01   0.773E-02 0.741E-02 0.127E-01
   0.219E+02 -.933E+01 -.291E+04   -.216E+02 0.963E+01 0.290E+04   -.297E+00 -.246E+00 0.140E+01   0.864E-02 -.595E-02 -.261E-04
   -.141E+02 -.166E+02 -.288E+04   0.136E+02 0.160E+02 0.288E+04   0.483E+00 0.530E+00 -.722E+00   -.601E-02 -.262E-01 -.312E-01
   0.261E+02 -.894E+01 -.290E+04   -.260E+02 0.908E+01 0.290E+04   -.993E-01 -.165E+00 0.105E+01   -.371E-02 0.151E-01 0.125E-01
   0.702E+02 -.683E+02 -.151E+04   -.690E+02 0.685E+02 0.151E+04   -.120E+01 -.230E+00 0.180E+01   0.816E-02 0.293E-02 0.233E-01
   0.289E+02 -.440E+02 -.150E+04   -.300E+02 0.437E+02 0.150E+04   0.111E+01 0.394E+00 0.248E+01   -.303E-02 -.538E-02 0.174E-01
   0.378E+02 0.174E+02 0.299E+04   -.379E+02 -.177E+02 -.299E+04   0.487E-01 0.372E+00 -.254E+01   -.121E-01 -.237E-01 -.392E-02
   0.248E+02 -.319E+01 0.159E+04   -.256E+02 0.389E+01 -.159E+04   0.980E+00 -.679E+00 0.894E+00   0.384E-02 0.173E-01 -.130E-01
   -.691E+02 0.122E+02 -.147E+04   0.700E+02 -.116E+02 0.146E+04   -.845E+00 -.599E+00 0.268E+01   -.371E-02 0.287E-01 0.635E-01
   -.545E+02 0.532E+02 0.305E+04   0.551E+02 -.522E+02 -.305E+04   -.714E+00 -.993E+00 -.219E+01   0.763E-02 -.190E-01 -.215E-01
   0.505E+01 -.536E+02 0.157E+04   -.478E+01 0.531E+02 -.157E+04   -.292E+00 0.437E+00 -.786E+00   -.235E-01 -.103E-01 -.499E-01
   0.103E+02 0.190E+00 -.287E+04   -.965E+01 -.587E+00 0.287E+04   -.582E+00 0.393E+00 0.126E+01   -.171E-01 -.117E-03 -.454E-02
   -.150E+02 -.598E+01 0.149E+02   0.151E+02 0.619E+01 -.162E+02   -.105E+00 -.251E+00 0.133E+01   -.421E-02 -.214E-02 0.389E-01
   -.106E+02 0.780E+01 -.291E+04   0.102E+02 -.795E+01 0.291E+04   0.520E+00 0.171E+00 0.133E+01   -.436E-02 0.728E-02 0.138E-01
   0.149E+02 0.610E+02 0.976E+01   -.158E+02 -.622E+02 -.101E+02   0.103E+01 0.114E+01 0.314E+00   -.251E-01 -.128E-02 0.866E-02
   -.671E+02 0.809E+01 -.147E+04   0.675E+02 -.929E+01 0.147E+04   -.446E+00 0.128E+01 0.280E+01   0.912E-02 0.702E-03 0.103E-01
   0.354E+02 0.258E+02 -.153E+04   -.353E+02 -.250E+02 0.153E+04   -.132E+00 -.756E+00 0.216E+01   -.180E-01 -.400E-02 0.176E-01
   0.134E+02 -.666E+02 -.700E+02   -.144E+02 0.660E+02 0.703E+02   0.105E+01 0.547E+00 -.282E+00   0.163E-01 0.162E-01 0.261E-01
   -.224E+02 -.203E+02 0.329E+01   0.232E+02 0.210E+02 -.398E+01   -.817E+00 -.765E+00 0.654E+00   0.987E-02 0.130E-01 0.528E-01
   0.132E+02 0.168E+02 -.125E+04   -.133E+02 -.172E+02 0.124E+04   0.837E-01 0.470E+00 0.627E+00   -.916E-03 -.328E-02 0.149E-01
   -.637E+02 -.536E+01 0.241E+04   0.640E+02 0.406E+01 -.240E+04   -.360E+00 0.133E+01 -.278E+01   0.883E-02 -.299E-02 0.833E-02
   0.327E+02 -.163E+02 0.244E+04   -.326E+02 0.148E+02 -.244E+04   -.756E-01 0.159E+01 -.245E+01   -.643E-02 -.328E-02 -.118E-01
   0.171E+02 0.616E+01 0.244E+04   -.172E+02 -.548E+01 -.244E+04   0.158E+00 -.803E+00 -.297E+01   -.158E-02 0.138E-01 -.557E-02
   0.161E+02 0.544E+02 0.128E+04   -.152E+02 -.536E+02 -.128E+04   -.947E+00 -.733E+00 -.573E-01   -.853E-02 -.268E-01 -.347E-03
   0.316E+02 -.612E+02 0.126E+04   -.315E+02 0.609E+02 -.126E+04   -.114E+00 0.250E+00 -.419E+00   0.213E-01 0.121E-01 -.249E-01
   -.631E+02 -.274E+02 -.122E+04   0.632E+02 0.275E+02 0.122E+04   -.172E+00 -.184E+00 0.732E+00   -.257E-02 0.435E-02 0.262E-01
   -.111E+03 0.206E+02 0.245E+04   0.110E+03 -.204E+02 -.245E+04   0.556E+00 -.193E+00 -.282E+01   0.152E-01 0.682E-03 -.193E-01
   -.357E+02 0.487E+02 0.128E+04   0.348E+02 -.482E+02 -.128E+04   0.846E+00 -.549E+00 -.392E+00   0.799E-03 -.126E-01 -.111E-01
   -.516E+02 0.285E+01 -.427E+02   0.513E+02 -.245E+01 0.427E+02   0.239E+00 -.448E+00 -.633E-01   0.511E-02 0.211E-01 0.207E-01
   0.157E+02 -.820E+02 -.123E+04   -.158E+02 0.818E+02 0.123E+04   0.121E+00 0.231E+00 0.103E+01   0.449E-02 0.788E-02 0.381E-01
   0.131E+02 0.289E+02 -.122E+04   -.132E+02 -.288E+02 0.122E+04   0.128E+00 -.514E-01 0.305E+00   0.869E-02 -.819E-02 0.158E-01
   0.572E+01 -.629E+02 0.242E+04   -.646E+01 0.619E+02 -.242E+04   0.792E+00 0.979E+00 -.289E+01   -.930E-04 0.610E-03 -.202E-01
   0.857E+01 -.151E+02 0.272E+04   -.865E+01 0.153E+02 -.272E+04   0.934E-01 -.255E+00 -.238E+01   -.315E-02 0.134E-01 -.292E-01
   0.119E+03 0.345E+02 0.276E+04   -.119E+03 -.336E+02 -.276E+04   0.427E+00 -.853E+00 -.276E+01   -.205E-01 -.224E-02 -.159E-01
   -.419E+02 -.387E+02 0.140E+04   0.414E+02 0.376E+02 -.140E+04   0.465E+00 0.113E+01 -.422E+00   0.235E-01 -.502E-02 0.374E-02
   -.632E+02 0.599E+02 0.206E+02   0.633E+02 -.598E+02 -.214E+02   -.614E-01 -.200E+00 0.730E+00   0.196E-01 0.128E-01 0.712E-02
   -.985E+02 0.163E+02 0.139E+04   0.981E+02 -.158E+02 -.139E+04   0.483E+00 -.514E+00 -.158E+00   0.150E-01 0.292E-01 -.160E-02
   -.158E+02 0.916E+01 0.137E+04   0.160E+02 -.941E+01 -.137E+04   -.155E+00 0.308E+00 -.156E+00   0.120E-02 -.157E-01 0.179E-01
   0.463E+02 0.453E+01 -.139E+04   -.461E+02 -.472E+01 0.138E+04   -.250E+00 0.236E+00 0.137E+01   0.650E-02 -.426E-03 0.453E-01
   0.567E+02 -.801E+02 0.274E+04   -.564E+02 0.799E+02 -.273E+04   -.384E+00 0.222E+00 -.252E+01   -.227E-01 0.277E-01 -.301E-01
   -.136E+02 0.351E+01 0.137E+04   0.136E+02 -.330E+01 -.136E+04   -.125E+00 -.265E+00 -.484E+00   0.455E-01 0.315E-01 0.202E-01
   0.237E+02 -.701E+02 -.156E+02   -.229E+02 0.696E+02 0.159E+02   -.794E+00 0.603E+00 -.404E+00   0.136E-01 0.495E-02 0.288E-01
   0.463E+02 0.349E+02 0.340E+04   -.463E+02 -.340E+02 -.340E+04   -.861E-01 -.882E+00 -.387E+01   -.186E-01 -.211E-01 -.319E-01
   0.599E+02 -.172E+01 0.173E+04   -.600E+02 0.106E+01 -.173E+04   0.115E+00 0.759E+00 -.228E+00   0.499E-02 -.146E-01 -.150E-01
   0.105E+03 -.278E+02 0.169E+04   -.104E+03 0.278E+02 -.169E+04   -.143E+00 -.317E-01 -.208E-01   -.350E-01 0.852E-02 -.205E-01
   0.194E+02 0.680E+02 0.944E+02   -.199E+02 -.678E+02 -.950E+02   0.529E+00 -.184E+00 0.528E+00   -.217E-01 -.357E-01 0.338E-02
   0.135E+02 0.545E+02 -.168E+04   -.131E+02 -.541E+02 0.168E+04   -.436E+00 -.405E+00 0.138E+01   -.157E-02 0.118E-01 0.319E-01
   -.392E+02 0.298E+02 -.167E+04   0.383E+02 -.295E+02 0.166E+04   0.972E+00 -.269E+00 0.225E+01   0.130E-01 0.538E-03 0.198E-01
   -.257E+01 0.993E+02 0.335E+04   0.268E+01 -.997E+02 -.335E+04   -.157E+00 0.485E+00 -.304E+01   0.693E-02 -.353E-01 -.162E-01
   -.192E+02 -.830E+02 0.338E+04   0.183E+02 0.826E+02 -.338E+04   0.959E+00 0.322E+00 -.279E+01   0.204E-01 0.403E-01 -.140E-01
   0.109E+03 0.806E+01 -.627E+02   -.109E+03 -.782E+01 0.629E+02   0.513E-03 -.323E+00 -.295E+00   -.106E-01 0.321E-02 0.335E-01
   -.117E+03 -.345E+02 0.383E+02   0.117E+03 0.344E+02 -.384E+02   0.331E+00 0.148E+00 -.184E-01   -.985E-02 0.231E-01 0.390E-01
   -.109E+02 0.585E+02 0.179E+04   0.106E+02 -.579E+02 -.179E+04   0.335E+00 -.628E+00 -.752E+00   -.237E-01 -.318E-01 -.217E-01
   0.139E+02 -.712E+02 0.502E+02   -.136E+02 0.701E+02 -.508E+02   -.328E+00 0.127E+01 0.451E+00   0.164E-02 0.795E-02 0.439E-01
   0.578E+02 -.317E+02 0.838E+01   -.571E+02 0.313E+02 -.859E+01   -.712E+00 0.379E+00 0.226E+00   -.985E-02 -.750E-03 0.300E-01
   -.776E+02 0.511E+01 0.153E+04   0.771E+02 -.500E+01 -.153E+04   0.429E+00 -.802E-01 -.169E+00   0.254E-01 0.485E-02 -.638E-02
   -.177E+02 0.153E+02 0.160E+04   0.181E+02 -.155E+02 -.160E+04   -.374E+00 0.270E+00 -.446E+00   0.110E-01 0.862E-02 -.325E-01
   -.104E+03 -.240E+01 0.305E+04   0.104E+03 0.247E+01 -.305E+04   -.553E+00 -.586E-01 -.149E+01   0.489E-01 0.119E-01 -.200E-01
   0.743E+02 -.370E+02 0.305E+04   -.746E+02 0.375E+02 -.305E+04   0.386E+00 -.683E+00 -.102E+01   -.406E-01 0.274E-01 -.244E-01
   0.214E+02 -.341E+02 0.153E+04   -.211E+02 0.339E+02 -.153E+04   -.369E+00 0.205E+00 -.555E-01   -.273E-01 0.146E-01 0.410E-03
   0.595E+02 0.647E+01 0.159E+04   -.591E+02 -.650E+01 -.159E+04   -.478E+00 0.640E-01 -.136E+00   -.293E-01 0.173E-02 0.405E-02
   -.358E+02 -.677E+02 -.153E+04   0.357E+02 0.678E+02 0.153E+04   0.139E+00 -.851E-01 0.686E+00   0.469E-02 0.414E-02 0.280E-01
   -.501E+02 0.301E+02 0.303E+04   0.506E+02 -.295E+02 -.303E+04   -.432E+00 -.610E+00 -.192E+01   0.223E-01 -.241E-01 -.248E-01
   -.488E+02 0.800E+02 0.775E+02   0.492E+02 -.796E+02 -.777E+02   -.352E+00 -.392E+00 0.628E-01   -.265E-01 -.199E-02 0.104E-01
   0.430E+00 0.587E+02 -.943E+01   -.543E+00 -.579E+02 0.930E+01   0.110E+00 -.851E+00 -.266E-01   0.280E-01 -.144E-01 0.341E-01
   0.558E+02 0.297E+01 -.328E+02   -.554E+02 -.233E+01 0.327E+02   -.395E+00 -.638E+00 -.283E-01   -.210E-01 -.275E-01 0.225E-01
   0.163E+02 -.560E+02 0.324E+02   -.167E+02 0.556E+02 -.326E+02   0.339E+00 0.461E+00 0.112E+00   0.402E-01 -.103E-01 0.102E-01
   0.375E+00 0.180E+01 -.344E+03   -.589E+00 -.209E+01 0.346E+03   0.192E+00 0.289E+00 -.195E+01   0.110E-04 0.239E-03 -.164E-02
 -----------------------------------------------------------------------------------------------
   -.285E+01 -.174E+01 -.210E+01   0.219E-12 0.203E-12 0.172E-10   0.289E+01 0.169E+01 0.179E+01   -.292E-01 0.330E-01 0.325E+00
 
 
 POSITION                                       TOTAL-FORCE (eV/Angst)
 -----------------------------------------------------------------------------------
     13.06967      8.11419      6.95929        -0.000457      0.006808      0.001849
      5.15439      8.12280      6.93836         0.017268      0.009144      0.006845
      4.98417      3.51900      7.03046        -0.006990      0.008745      0.016458
     14.44480      8.89770      9.26873         0.025933      0.019836      0.007937
      3.75856      4.24673      9.48171         0.023690     -0.003428      0.008364
      6.45651      8.87661      9.23226         0.024208      0.003669     -0.000488
     11.76205      4.23162      9.33641        -0.006497      0.007263      0.021734
      9.10975      8.86257      9.21421        -0.007032     -0.001331     -0.006669
     10.43824      1.94946      9.21696         0.006814      0.006325     -0.006203
      2.47052      1.96311      9.24458         0.003549     -0.007613      0.015745
     11.77909      8.86916      9.29403         0.004813     -0.011745     -0.001903
     13.08388      6.56732      9.31841        -0.010114     -0.008439      0.003131
      5.11324      1.91811      9.30312        -0.014063      0.000745      0.011562
      7.81473      6.58003      9.27760         0.014890      0.024784      0.005846
      9.13086      4.26102      9.26800         0.004534      0.011369     -0.002183
      5.12198      6.59150      9.42978        -0.019605     -0.035610     -0.002185
      7.78367      1.93831      9.25254        -0.006449      0.016616      0.000095
      7.84446      3.46316      6.95561         0.009857     -0.014675      0.010463
      6.35901      1.15448      6.91048         0.001584      0.001705      0.000854
      6.49878      1.12701      0.91783        -0.027621      0.016234      0.006463
      3.73329      4.24365      2.82304         0.025636     -0.008936     -0.030676
      1.18489      1.24466      6.89555         0.022225     -0.004591      0.037283
      1.14169      1.20489      0.75465        -0.014549      0.010016     -0.010028
      6.49937      8.84078      2.91411         0.006841     -0.007853      0.019313
      6.47234      4.24650      9.30739         0.022058     -0.000796      0.011785
      7.76434      5.03252      4.80831        -0.005410      0.001111     -0.007205
     10.42962      6.56212      9.29070         0.030452     -0.006326     -0.005390
     14.40082      7.27728      4.85831         0.000020     -0.004462      0.006749
     11.79092      5.74346      7.00404         0.000368      0.001611      0.013659
      6.46809      5.81642      6.98839        -0.009222     -0.006962      0.004896
      3.64829      2.57948      4.95795         0.012800      0.014171      0.013245
     10.45804      5.07210      4.85915         0.003081     -0.000743      0.004835
      3.79508      5.81406      7.15693         0.015586      0.007319      0.032611
     13.07897      7.95618      0.95883        -0.006402      0.001248      0.025506
      5.21380      7.98656      0.86284         0.008801      0.017629      0.012065
      3.83131      5.83197      0.85600         0.026662     -0.019313     -0.021319
      7.88243      2.06346      2.84612        -0.029576      0.006012      0.021392
      9.16289      8.80794      2.87612         0.012456      0.006408     -0.001007
      2.41118      3.53301      7.11124        -0.006494     -0.002708     -0.000251
      2.32870      3.51838      0.86299         0.026746      0.004088     -0.042448
     10.44688      1.98709      2.84009        -0.007359     -0.006781     -0.011654
     13.08441      5.02723      4.92342         0.003268     -0.000479      0.012329
      3.78132      1.06626      7.04826         0.001967     -0.003340      0.011627
      9.11870      5.80448      7.06744         0.003971     -0.005526     -0.005656
      3.77122      1.06783      0.90415        -0.003918      0.022476     -0.010958
      9.18715      5.77316      0.99286        -0.011250      0.013104     -0.020790
      5.17420      3.52548      0.87003         0.019373      0.003300      0.025882
     11.72362      8.75176      2.92245        -0.009389      0.011087      0.019824
     11.76685      7.32260      4.84428         0.011971     -0.003971      0.010903
     12.97800      6.50322      2.85234         0.011102     -0.008659     -0.022785
      9.13171      4.24465      2.81404        -0.004736     -0.003989     -0.039630
      7.83931      8.07055      6.98707        -0.001453     -0.004487      0.006150
      7.89763      8.01872      0.91379        -0.005338      0.016388     -0.001004
     10.49038      6.60126      2.83869        -0.005063     -0.004122     -0.010685
      2.54962      0.25085      5.00396         0.004456     -0.008818     -0.012029
      7.83460      3.52101      0.79067        -0.022050      0.006528     -0.004217
      5.12642      1.88462      2.93503        -0.016315      0.002432     -0.013517
      5.21667      6.50564      2.92065         0.026489     -0.013687     -0.020364
      7.78391      0.46616      4.84570        -0.001717     -0.001545      0.000339
      9.14446      1.18981      6.95519        -0.011531     -0.002208     -0.008874
     10.39602      8.05787      6.96858        -0.005068     -0.007945     -0.009172
      9.15068      1.13559      0.78976        -0.016844     -0.000836      0.003873
     10.46124      8.03092      0.81477        -0.015621      0.015763      0.019772
      5.10908      5.00088      4.92493        -0.008812     -0.006684      0.015808
     11.72637      2.74554      4.87856        -0.003813     -0.001302     -0.008517
     14.43470      8.90066      2.85261        -0.005483     -0.005133      0.004000
      9.17327      2.67452      4.91673        -0.000393     -0.009723      0.006544
      6.42959      2.69956      4.85987        -0.006875     -0.000447     -0.007049
     11.76877      4.21925      2.83668        -0.017447     -0.027526     -0.035280
      2.46431      1.90348      2.84561        -0.009031      0.016346      0.006060
     11.75684      5.74003      0.91295        -0.010630      0.016979     -0.020316
      6.52258      5.80409      0.95833         0.000365     -0.030460      0.000536
      7.91412      6.57792      2.85270         0.002209     -0.010793     -0.013021
      6.48211      4.16784      2.79146        -0.027566     -0.005920     -0.014480
     10.47474      3.49937      7.03940         0.005299     -0.000776     -0.007431
     10.44539      3.47942      0.90065        -0.002225     -0.012276     -0.029487
     10.46693      0.48824      4.87153         0.004878     -0.001527     -0.011911
      9.13412      7.34995      4.94581         0.001039     -0.002369     -0.004384
      6.54593      7.35635      4.94485        -0.017743      0.006850     -0.000572
      5.08315      0.26955      4.89544        -0.006985      0.000242     -0.005396
      4.47388      5.50323     10.56830        -0.022120      0.002508      0.022803
 -----------------------------------------------------------------------------------
    total drift:                                0.016814     -0.022771      0.019527


--------------------------------------------------------------------------------------------------------



  FREE ENERGIE OF THE ION-ELECTRON SYSTEM (eV)
  ---------------------------------------------------
  free  energy   TOTEN  =      -510.31461039 eV

  energy  without entropy=     -510.33340924  energy(sigma->0) =     -510.32087667
 
 d Force = 0.2117736E-02[ 0.869E-03, 0.337E-02]  d Energy = 0.1983834E-02 0.134E-03
 d Force = 0.6347783E+02[ 0.635E+02, 0.635E+02]  d Ewald  = 0.6347787E+02-0.323E-04


--------------------------------------------------------------------------------------------------------


    POTLOK:  cpu time    0.4168: real time    0.4185


--------------------------------------------------------------------------------------------------------


 Conjugate gradient step on ions:
 trial-energy change:   -0.001984  1 .order   -0.002118   -0.003366   -0.000869
  (g-gl).g = 0.236E-02      g.g   = 0.224E-02  gl.gl    = 0.406E-02
 g(Force)  = 0.224E-02   g(Stress)= 0.000E+00 ortho     =-0.286E-03
 gamma     =   0.57996
 trial     =   1.62618
 opt step  =   3.06313  (harmonic =   2.19226) maximal distance =0.02185668
 next E    =  -510.314902   (d E  =  -0.00228)


--------------------------------------------------------------------------------------------------------


  
 reached required accuracy - stopping structural energy minimisation
     LOOP+:  cpu time  772.8259: real time  776.0114
    4ORBIT:  cpu time    0.0000: real time    0.0000

 total amount of memory used by VASP MPI-rank0   231983. kBytes
=======================================================================

   base      :      30000. kBytes
   nonlr-proj:      34033. kBytes
   fftplans  :      16133. kBytes
   grid      :      49182. kBytes
   one-center:        653. kBytes
   wavefun   :     101982. kBytes
 
  
  
 General timing and accounting informations for this job:
 ========================================================
  
                  Total CPU time used (sec):    18117.174
                            User time (sec):    17632.263
                          System time (sec):      484.912
                         Elapsed time (sec):    18218.045
  
                   Maximum memory used (kb):      419516.
                   Average memory used (kb):           0.
  
                          Minor page faults:      3864074
                          Major page faults:          411
                 Voluntary context switches:        14857
