 vasp.5.4.4.18Apr17-6-g9f103f2a35 (build Oct 25 2019 11:13:22) complex          
  
 executed on             LinuxIFC date 2022.02.05  10:33:46
 running on   48 total cores
 distrk:  each k-point on   48 cores,    1 groups
 distr:  one band on NCORES_PER_BAND=   1 cores,   48 groups


--------------------------------------------------------------------------------------------------------


 INCAR:
 POTCAR:    PAW_PBE Pt 04Feb2005                  
 POTCAR:    PAW_PBE Fe 06Sep2000                  
 POTCAR:    PAW_PBE Co 02Aug2007                  
 POTCAR:    PAW_PBE Cu 22Jun2005                  
 POTCAR:    PAW_PBE Ni 02Aug2007                  
 POTCAR:    PAW_PBE H 15Jun2001                   

 ----------------------------------------------------------------------------- 
|                                                                             |
|           W    W    AA    RRRRR   N    N  II  N    N   GGGG   !!!           |
|           W    W   A  A   R    R  NN   N  II  NN   N  G    G  !!!           |
|           W    W  A    A  R    R  N N  N  II  N N  N  G       !!!           |
|           W WW W  AAAAAA  RRRRR   N  N N  II  N  N N  G  GGG   !            |
|           WW  WW  A    A  R   R   N   NN  II  N   NN  G    G                |
|           W    W  A    A  R    R  N    N  II  N    N   GGGG   !!!           |
|                                                                             |
|      For optimal performance we recommend to set                            |
|        NCORE= 4 - approx SQRT( number of cores)                             |
|      NCORE specifies how many cores store one orbital (NPAR=cpu/NCORE).     |
|      This setting can  greatly improve the performance of VASP for DFT.     |
|      The default,   NCORE=1            might be grossly inefficient         |
|      on modern multi-core architectures or massively parallel machines.     |
|      Do your own testing !!!!                                               |
|      Unfortunately you need to use the default for GW and RPA calculations. |
|      (for HF NCORE is supported but not extensively tested yet)             |
|                                                                             |
 ----------------------------------------------------------------------------- 

 POTCAR:    PAW_PBE Pt 04Feb2005                  
   VRHFIN =Pt: s1d9                                                             
   LEXCH  = PE                                                                  
   EATOM  =   729.1176 eV,   53.5886 Ry                                         
                                                                                
   TITEL  = PAW_PBE Pt 04Feb2005                                                
   LULTRA =        F    use ultrasoft PP ?                                      
   IUNSCR =        1    unscreen: 0-lin 1-nonlin 2-no                           
   RPACOR =    2.330    partial core radius                                     
   POMASS =  195.080; ZVAL   =   10.000    mass and valenz                      
   RCORE  =    2.600    outmost cutoff radius                                   
   RWIGS  =    2.750; RWIGS  =    1.455    wigner-seitz radius (au A)           
   ENMAX  =  230.283; ENMIN  =  172.712 eV                                      
   ICORE  =        3    local potential                                         
   LCOR   =        T    correct aug charges                                     
   LPAW   =        T    paw PP                                                  
   EAUG   =  358.966                                                            
   DEXC   =    0.000                                                            
   RMAX   =    2.658    core radius for proj-oper                               
   RAUG   =    1.300    factor for augmentation sphere                          
   RDEP   =    2.761    radius for radial grids                                 
   RDEPT  =    2.203    core radius for aug-charge                              
                                                                                
   Atomic configuration                                                         
   16 entries                                                                   
     n  l   j            E        occ.                                          
     1  0  0.50    -78401.1885   2.0000                                         
     2  0  0.50    -13770.7750   2.0000                                         
     2  1  1.50    -11931.0468   6.0000                                         
     3  0  0.50     -3234.7234   2.0000                                         
     3  1  1.50     -2699.2216   6.0000                                         
     3  2  2.50     -2119.5714  10.0000                                         
     4  0  0.50      -695.1528   2.0000                                         
     4  1  1.50      -519.6034   6.0000                                         
     4  2  2.50      -306.6786  10.0000                                         
     4  3  3.50       -70.1041  14.0000                                         
     5  0  0.50      -101.7747   2.0000                                         
     5  1  1.50       -55.9873   6.0000                                         
     5  2  2.50        -6.1423   9.0000                                         
     6  0  0.50        -5.6573   1.0000                                         
     6  1  1.50        -6.8029   0.0000                                         
     5  3  2.50        -1.3606   0.0000                                         
   Description                                                                  
     l       E           TYP  RCUT    TYP  RCUT                                 
     2     -6.1423404     23  2.500                                             
     2     -7.5029230     23  2.500                                             
     0     -5.6573207     23  2.500                                             
     0      0.7416693     23  2.500                                             
     1     -2.7211652     23  2.600                                             
     1     20.4087390     23  2.600                                             
     3     -1.3605826     23  2.500                                             
  local pseudopotential read in
  partial core-charges read in
  partial kinetic energy density read in
  atomic valenz-charges read in
  non local Contribution for L=           2  read in
    real space projection operators read in
  non local Contribution for L=           2  read in
    real space projection operators read in
  non local Contribution for L=           0  read in
    real space projection operators read in
  non local Contribution for L=           0  read in
    real space projection operators read in
  non local Contribution for L=           1  read in
    real space projection operators read in
  non local Contribution for L=           1  read in
    real space projection operators read in
    PAW grid and wavefunctions read in
 
   number of l-projection  operators is LMAX  =           6
   number of lm-projection operators is LMMAX =          18
 
 POTCAR:    PAW_PBE Fe 06Sep2000                  
   VRHFIN =Fe:  d7 s1                                                           
   LEXCH  = PE                                                                  
   EATOM  =   594.3153 eV,   43.6809 Ry                                         
                                                                                
   TITEL  = PAW_PBE Fe 06Sep2000                                                
   LULTRA =        F    use ultrasoft PP ?                                      
   IUNSCR =        1    unscreen: 0-lin 1-nonlin 2-no                           
   RPACOR =    2.000    partial core radius                                     
   POMASS =   55.847; ZVAL   =    8.000    mass and valenz                      
   RCORE  =    2.300    outmost cutoff radius                                   
   RWIGS  =    2.460; RWIGS  =    1.302    wigner-seitz radius (au A)           
   ENMAX  =  267.882; ENMIN  =  200.911 eV                                      
   RCLOC  =    1.701    cutoff for local pot                                    
   LCOR   =        T    correct aug charges                                     
   LPAW   =        T    paw PP                                                  
   EAUG   =  511.368                                                            
   DEXC   =    0.000                                                            
   RMAX   =    2.356    core radius for proj-oper                               
   RAUG   =    1.300    factor for augmentation sphere                          
   RDEP   =    2.442    radius for radial grids                                 
   RDEPT  =    1.890    core radius for aug-charge                              
                                                                                
   Atomic configuration                                                         
    9 entries                                                                   
     n  l   j            E        occ.                                          
     1  0  0.50     -6993.8440   2.0000                                         
     2  0  0.50      -814.6047   2.0000                                         
     2  1  1.50      -693.3689   6.0000                                         
     3  0  0.50       -89.4732   2.0000                                         
     3  1  1.50       -55.6373   6.0000                                         
     3  2  2.50        -3.8151   7.0000                                         
     4  0  0.50        -4.2551   1.0000                                         
     4  1  1.50        -3.4015   0.0000                                         
     4  3  2.50        -1.3606   0.0000                                         
   Description                                                                  
     l       E           TYP  RCUT    TYP  RCUT                                 
     2     -3.8151135     23  2.300                                             
     2     -5.1756961     23  2.300                                             
     0     -4.2550963     23  2.300                                             
     0      7.2035603     23  2.300                                             
     1     -2.7211652     23  2.300                                             
     1     18.4316424     23  2.300                                             
  local pseudopotential read in
  partial core-charges read in
  partial kinetic energy density read in
  atomic valenz-charges read in
  non local Contribution for L=           2  read in
    real space projection operators read in
  non local Contribution for L=           2  read in
    real space projection operators read in
  non local Contribution for L=           0  read in
    real space projection operators read in
  non local Contribution for L=           0  read in
    real space projection operators read in
  non local Contribution for L=           1  read in
    real space projection operators read in
  non local Contribution for L=           1  read in
    real space projection operators read in
    PAW grid and wavefunctions read in
 
   number of l-projection  operators is LMAX  =           6
   number of lm-projection operators is LMMAX =          18
 
 POTCAR:    PAW_PBE Co 02Aug2007                  
   VRHFIN =Co: d8 s1                                                            
   LEXCH  = PE                                                                  
   EATOM  =   813.3670 eV,   59.7808 Ry                                         
                                                                                
   TITEL  = PAW_PBE Co 02Aug2007                                                
   LULTRA =        F    use ultrasoft PP ?                                      
   IUNSCR =        1    unscreen: 0-lin 1-nonlin 2-no                           
   RPACOR =    2.000    partial core radius                                     
   POMASS =   58.933; ZVAL   =    9.000    mass and valenz                      
   RCORE  =    2.300    outmost cutoff radius                                   
   RWIGS  =    2.460; RWIGS  =    1.302    wigner-seitz radius (au A)           
   ENMAX  =  267.968; ENMIN  =  200.976 eV                                      
   RCLOC  =    1.203    cutoff for local pot                                    
   LCOR   =        T    correct aug charges                                     
   LPAW   =        T    paw PP                                                  
   EAUG   =  477.818                                                            
   DEXC   =    0.000                                                            
   RMAX   =    2.360    core radius for proj-oper                               
   RAUG   =    1.300    factor for augmentation sphere                          
   RDEP   =    2.393    radius for radial grids                                 
   RDEPT  =    1.864    core radius for aug-charge                              
                                                                                
   Atomic configuration                                                         
    9 entries                                                                   
     n  l   j            E        occ.                                          
     1  0  0.50     -7587.6674   2.0000                                         
     2  0  0.50      -893.6084   2.0000                                         
     2  1  1.50      -764.5805   6.0000                                         
     3  0  0.50       -97.5973   2.0000                                         
     3  1  1.50       -60.9648   6.0000                                         
     3  2  2.50        -4.2382   8.0000                                         
     4  0  0.50        -4.3746   1.0000                                         
     4  1  1.50        -4.0817   0.0000                                         
     4  3  2.50        -1.3606   0.0000                                         
   Description                                                                  
     l       E           TYP  RCUT    TYP  RCUT                                 
     2     -4.2382362     23  2.300                                             
     2     -5.5988188     23  2.300                                             
     0     -4.3745797     23  2.300                                             
     0      5.7660125     23  2.300                                             
     1     -2.7211652     23  2.300                                             
     1     16.9860234     23  2.300                                             
  local pseudopotential read in
  partial core-charges read in
  partial kinetic energy density read in
  atomic valenz-charges read in
  non local Contribution for L=           2  read in
    real space projection operators read in
  non local Contribution for L=           2  read in
    real space projection operators read in
  non local Contribution for L=           0  read in
    real space projection operators read in
  non local Contribution for L=           0  read in
    real space projection operators read in
  non local Contribution for L=           1  read in
    real space projection operators read in
  non local Contribution for L=           1  read in
    real space projection operators read in
    PAW grid and wavefunctions read in
 
   number of l-projection  operators is LMAX  =           6
   number of lm-projection operators is LMMAX =          18
 
 POTCAR:    PAW_PBE Cu 22Jun2005                  
   VRHFIN =Cu: d10 p1                                                           
   LEXCH  = PE                                                                  
   EATOM  =  1390.9808 eV,  102.2342 Ry                                         
                                                                                
   TITEL  = PAW_PBE Cu 22Jun2005                                                
   LULTRA =        F    use ultrasoft PP ?                                      
   IUNSCR =        1    unscreen: 0-lin 1-nonlin 2-no                           
   RPACOR =    2.000    partial core radius                                     
   POMASS =   63.546; ZVAL   =   11.000    mass and valenz                      
   RCORE  =    2.300    outmost cutoff radius                                   
   RWIGS  =    2.200; RWIGS  =    1.164    wigner-seitz radius (au A)           
   ENMAX  =  295.446; ENMIN  =  221.585 eV                                      
   ICORE  =        3    local potential                                         
   LCOR   =        T    correct aug charges                                     
   LPAW   =        T    paw PP                                                  
   EAUG   =  586.980                                                            
   DEXC   =    0.000                                                            
   RMAX   =    2.344    core radius for proj-oper                               
   RAUG   =    1.300    factor for augmentation sphere                          
   RDEP   =    2.302    radius for radial grids                                 
   RDEPT  =    1.771    core radius for aug-charge                              
                                                                                
   Atomic configuration                                                         
    9 entries                                                                   
     n  l   j            E        occ.                                          
     1  0  0.50     -8850.2468   2.0000                                         
     2  0  0.50     -1062.3498   2.0000                                         
     2  1  1.50      -916.8226   6.0000                                         
     3  0  0.50      -114.6929   2.0000                                         
     3  1  1.50       -72.1325   6.0000                                         
     3  2  2.50        -5.0394  10.0000                                         
     4  0  0.50        -4.6097   1.0000                                         
     4  1  0.50        -4.0817   0.0000                                         
     4  3  2.50        -1.3606   0.0000                                         
   Description                                                                  
     l       E           TYP  RCUT    TYP  RCUT                                 
     2     -5.0393973     23  2.200                                             
     2     10.8846608     23  2.200                                             
     0     -4.6097109     23  2.200                                             
     0      8.2520465     23  2.200                                             
     1     -2.7211652     23  2.200                                             
     1     21.7055443     23  2.200                                             
     3      2.7211652     23  2.300                                             
  local pseudopotential read in
  partial core-charges read in
  partial kinetic energy density read in
  atomic valenz-charges read in
  non local Contribution for L=           2  read in
    real space projection operators read in
  non local Contribution for L=           2  read in
    real space projection operators read in
  non local Contribution for L=           0  read in
    real space projection operators read in
  non local Contribution for L=           0  read in
    real space projection operators read in
  non local Contribution for L=           1  read in
    real space projection operators read in
  non local Contribution for L=           1  read in
    real space projection operators read in
    PAW grid and wavefunctions read in
 
   number of l-projection  operators is LMAX  =           6
   number of lm-projection operators is LMMAX =          18
 
 POTCAR:    PAW_PBE Ni 02Aug2007                  
   VRHFIN =Ni:                                                                  
   LEXCH  = PE                                                                  
   EATOM  =  1077.6739 eV,   79.2068 Ry                                         
                                                                                
   TITEL  = PAW_PBE Ni 02Aug2007                                                
   LULTRA =        F    use ultrasoft PP ?                                      
   IUNSCR =        1    unscreen: 0-lin 1-nonlin 2-no                           
   RPACOR =    2.000    partial core radius                                     
   POMASS =   58.690; ZVAL   =   10.000    mass and valenz                      
   RCORE  =    2.300    outmost cutoff radius                                   
   RWIGS  =    2.430; RWIGS  =    1.286    wigner-seitz radius (au A)           
   ENMAX  =  269.532; ENMIN  =  202.149 eV                                      
   RCLOC  =    1.201    cutoff for local pot                                    
   LCOR   =        T    correct aug charges                                     
   LPAW   =        T    paw PP                                                  
   EAUG   =  544.565                                                            
   DEXC   =    0.000                                                            
   RMAX   =    2.357    core radius for proj-oper                               
   RAUG   =    1.300    factor for augmentation sphere                          
   RDEP   =    2.390    radius for radial grids                                 
   RDEPT  =    1.838    core radius for aug-charge                              
                                                                                
   Atomic configuration                                                         
    9 entries                                                                   
     n  l   j            E        occ.                                          
     1  0  0.50     -8206.4253   2.0000                                         
     2  0  0.50      -976.1748   2.0000                                         
     2  1  1.50      -839.0571   6.0000                                         
     3  0  0.50      -105.9991   2.0000                                         
     3  1  1.50       -66.4603   6.0000                                         
     3  2  2.50        -4.6458   9.0000                                         
     4  0  0.50        -4.4926   1.0000                                         
     4  1  1.50        -4.0817   0.0000                                         
     4  3  2.50        -1.3606   0.0000                                         
   Description                                                                  
     l       E           TYP  RCUT    TYP  RCUT                                 
     2     -4.6457903     23  2.300                                             
     2     -6.0063729     23  2.300                                             
     0     -4.4925590     23  2.300                                             
     0      5.0102601     23  2.300                                             
     1     -2.7211652     23  2.300                                             
     1     16.5183231     23  2.300                                             
  local pseudopotential read in
  partial core-charges read in
  partial kinetic energy density read in
  atomic valenz-charges read in
  non local Contribution for L=           2  read in
    real space projection operators read in
  non local Contribution for L=           2  read in
    real space projection operators read in
  non local Contribution for L=           0  read in
    real space projection operators read in
  non local Contribution for L=           0  read in
    real space projection operators read in
  non local Contribution for L=           1  read in
    real space projection operators read in
  non local Contribution for L=           1  read in
    real space projection operators read in
    PAW grid and wavefunctions read in
 
   number of l-projection  operators is LMAX  =           6
   number of lm-projection operators is LMMAX =          18
 
 POTCAR:    PAW_PBE H 15Jun2001                   
   VRHFIN =H: ultrasoft test                                                    
   LEXCH  = PE                                                                  
   EATOM  =    12.4884 eV,    0.9179 Ry                                         
                                                                                
   TITEL  = PAW_PBE H 15Jun2001                                                 
   LULTRA =        F    use ultrasoft PP ?                                      
   IUNSCR =        0    unscreen: 0-lin 1-nonlin 2-no                           
   RPACOR =    0.000    partial core radius                                     
   POMASS =    1.000; ZVAL   =    1.000    mass and valenz                      
   RCORE  =    1.100    outmost cutoff radius                                   
   RWIGS  =    0.700; RWIGS  =    0.370    wigner-seitz radius (au A)           
   ENMAX  =  250.000; ENMIN  =  200.000 eV                                      
   RCLOC  =    0.701    cutoff for local pot                                    
   LCOR   =        T    correct aug charges                                     
   LPAW   =        T    paw PP                                                  
   EAUG   =  400.000                                                            
   RMAX   =    1.123    core radius for proj-oper                               
   RAUG   =    1.200    factor for augmentation sphere                          
   RDEP   =    1.112    radius for radial grids                                 
   RDEPT  =    0.926    core radius for aug-charge                              
                                                                                
   Atomic configuration                                                         
    2 entries                                                                   
     n  l   j            E        occ.                                          
     1  0  0.50        -6.4927   1.0000                                         
     2  1  0.50        -3.4015   0.0000                                         
   Description                                                                  
     l       E           TYP  RCUT    TYP  RCUT                                 
     0     -6.4927494     23  1.100                                             
     0      6.8029130     23  1.100                                             
     1     -4.0817478     23  1.100                                             
  local pseudopotential read in
  atomic valenz-charges read in
  non local Contribution for L=           0  read in
    real space projection operators read in
  non local Contribution for L=           0  read in
    real space projection operators read in
  non local Contribution for L=           1  read in
    real space projection operators read in
    PAW grid and wavefunctions read in
 
   number of l-projection  operators is LMAX  =           3
   number of lm-projection operators is LMMAX =           5
 
 Optimization of the real space projectors (new method)

 maximal supplied QI-value         = 14.36
 optimisation between [QCUT,QGAM] = [ 11.92, 23.98] = [ 39.79,161.09] Ry 
 Optimized for a Real-space Cutoff    1.49 Angstroem

   l    n(q)    QCUT    max X(q) W(low)/X(q) W(high)/X(q)  e(spline) 
   2     10    11.920    66.195    0.79E-04    0.18E-03    0.24E-06
   2     10    11.920    64.643    0.81E-04    0.19E-03    0.24E-06
   0     11    11.920    95.520    0.28E-04    0.54E-04    0.18E-06
   0     11    11.920    63.403    0.27E-04    0.52E-04    0.17E-06
   1     10    11.920    19.961    0.18E-04    0.11E-03    0.23E-06
   1     10    11.920    13.289    0.25E-04    0.87E-04    0.19E-06
 Optimization of the real space projectors (new method)

 maximal supplied QI-value         = 16.25
 optimisation between [QCUT,QGAM] = [ 11.86, 23.89] = [ 39.41,159.82] Ry 
 Optimized for a Real-space Cutoff    1.49 Angstroem

   l    n(q)    QCUT    max X(q) W(low)/X(q) W(high)/X(q)  e(spline) 
   2     10    11.864    80.901    0.13E-03    0.23E-03    0.37E-06
   2     10    11.864    75.754    0.13E-03    0.23E-03    0.38E-06
   0     11    11.864    58.752    0.44E-04    0.11E-04    0.20E-06
   0     11    11.864    30.679    0.36E-04    0.10E-04    0.18E-06
   1     10    11.864    17.977    0.31E-04    0.45E-04    0.10E-06
   1     10    11.864    13.559    0.25E-04    0.37E-04    0.89E-07
 Optimization of the real space projectors (new method)

 maximal supplied QI-value         = 16.25
 optimisation between [QCUT,QGAM] = [ 11.86, 23.89] = [ 39.41,159.82] Ry 
 Optimized for a Real-space Cutoff    1.33 Angstroem

   l    n(q)    QCUT    max X(q) W(low)/X(q) W(high)/X(q)  e(spline) 
   2      9    11.864    65.824    0.22E-03    0.53E-03    0.26E-06
   2      9    11.864    61.429    0.22E-03    0.53E-03    0.26E-06
   0      9    11.864    56.174    0.21E-03    0.32E-04    0.15E-06
   0      9    11.864    31.263    0.19E-03    0.30E-04    0.14E-06
   1      9    11.864    19.828    0.63E-04    0.30E-03    0.16E-06
   1      9    11.864    15.139    0.49E-04    0.25E-03    0.13E-06
 Optimization of the real space projectors (new method)

 maximal supplied QI-value         = 16.25
 optimisation between [QCUT,QGAM] = [ 11.86, 23.89] = [ 39.41,159.82] Ry 
 Optimized for a Real-space Cutoff    1.49 Angstroem

   l    n(q)    QCUT    max X(q) W(low)/X(q) W(high)/X(q)  e(spline) 
   2     10    11.864     4.610    0.10E-03    0.20E-03    0.29E-06
   2     10    11.864     8.522    0.17E-03    0.33E-03    0.50E-06
   0     11    11.864    51.609    0.52E-04    0.55E-04    0.33E-06
   0     11    11.864    27.747    0.46E-04    0.52E-04    0.31E-06
   1     10    11.864    20.408    0.54E-04    0.25E-04    0.21E-06
   1     10    11.864    13.425    0.48E-04    0.22E-04    0.18E-06
 Optimization of the real space projectors (new method)

 maximal supplied QI-value         = 16.25
 optimisation between [QCUT,QGAM] = [ 11.86, 23.89] = [ 39.41,159.82] Ry 
 Optimized for a Real-space Cutoff    1.33 Angstroem

   l    n(q)    QCUT    max X(q) W(low)/X(q) W(high)/X(q)  e(spline) 
   2      9    11.864    60.317    0.21E-03    0.51E-03    0.25E-06
   2      9    11.864    55.921    0.21E-03    0.51E-03    0.26E-06
   0      9    11.864    51.690    0.22E-03    0.30E-04    0.17E-06
   0      9    11.864    30.015    0.20E-03    0.28E-04    0.15E-06
   1      9    11.864    18.849    0.76E-04    0.33E-03    0.17E-06
   1      9    11.864    14.624    0.60E-04    0.28E-03    0.15E-06
 Optimization of the real space projectors (new method)

 maximal supplied QI-value         = 34.20
 optimisation between [QCUT,QGAM] = [ 11.97, 23.94] = [ 40.13,160.53] Ry 
 Optimized for a Real-space Cutoff    1.18 Angstroem

   l    n(q)    QCUT    max X(q) W(low)/X(q) W(high)/X(q)  e(spline) 
   0      8    11.971    19.460    0.15E-03    0.31E-03    0.25E-06
   0      8    11.971    12.209    0.13E-03    0.29E-03    0.25E-06
   1      8    11.971     4.655    0.22E-03    0.24E-03    0.21E-06
  PAW_PBE Pt 04Feb2005                  :
 energy of atom  1       EATOM= -729.1176
 kinetic energy error for atom=    0.0021 (will be added to EATOM!!)
  PAW_PBE Fe 06Sep2000                  :
 energy of atom  2       EATOM= -594.3153
 kinetic energy error for atom=    0.0024 (will be added to EATOM!!)
  PAW_PBE Co 02Aug2007                  :
 energy of atom  3       EATOM= -813.3670
 kinetic energy error for atom=    0.0026 (will be added to EATOM!!)
  PAW_PBE Cu 22Jun2005                  :
 energy of atom  4       EATOM=-1390.9808
 kinetic energy error for atom=    0.0036 (will be added to EATOM!!)
  PAW_PBE Ni 02Aug2007                  :
 energy of atom  5       EATOM=-1077.6739
 kinetic energy error for atom=    0.0027 (will be added to EATOM!!)
  PAW_PBE H 15Jun2001                   :
 energy of atom  6       EATOM=  -12.4884
 kinetic energy error for atom=    0.0008 (will be added to EATOM!!)
 
 
 POSCAR: 10.46                                   
  positions in cartesian coordinates
  No initial velocities read in
 exchange correlation table for  LEXCH =        8
   RHO(1)=    0.500       N(1)  =     2000
   RHO(2)=  100.500       N(2)  =     4000
 


--------------------------------------------------------------------------------------------------------


 ion  position               nearest neighbor table
   1  0.787  0.878  0.318-  19 2.62  28 2.62  49 2.63  61 2.64  33 2.64  29 2.65  60 2.66  59 2.66
                             2 2.69  11 2.77   4 2.85  12 2.88
   2  0.043  0.881  0.317-  79 2.54  60 2.60  77 2.61  30 2.63  52 2.64  28 2.64  33 2.66  22 2.67
                             1 2.69   6 2.75   4 2.86  16 2.89
   3  0.282  0.377  0.321-  39 2.55  33 2.58  64 2.61  31 2.64  19 2.64  43 2.67  30 2.69  68 2.73
                             5 2.76  18 2.76  13 2.99  25 3.05
   4  0.876  0.961  0.427-  17 2.60  16 2.61   9 2.62  11 2.62   6 2.62  12 2.62  60 2.85   1 2.85
                             2 2.86
   5  0.121  0.463  0.428-  12 2.58   7 2.59  16 2.62  10 2.62  25 2.67  13 2.68  33 2.69  39 2.71
                             3 2.76
   6  0.126  0.961  0.422-  10 2.61   8 2.61  14 2.62   9 2.62  16 2.62   4 2.62   2 2.75  52 2.78
                            22 2.86
   7  0.875  0.460  0.430-   5 2.59  15 2.59   9 2.60  10 2.62  12 2.62  27 2.63  39 2.73  75 2.82
                            29 2.83
   8  0.376  0.961  0.421-  43 2.60  27 2.60  13 2.61  11 2.61  10 2.61  14 2.61   6 2.61  52 2.72
                            61 2.73
   9  0.876  0.211  0.423-  17 2.60   7 2.60  15 2.61   4 2.62   6 2.62  10 2.62  75 2.70  60 2.76
                            22 2.83
  10  0.126  0.211  0.423-   8 2.61   6 2.61   5 2.62   9 2.62   7 2.62  13 2.62  39 2.66  43 2.71
                            22 2.79
  11  0.626  0.960  0.425-  12 2.60   8 2.61  27 2.61   4 2.62  13 2.62  17 2.62   1 2.77  19 2.81
                            61 2.86
  12  0.875  0.711  0.429-   5 2.58  11 2.60   7 2.62   4 2.62  16 2.62  27 2.62  33 2.73  29 2.87
                             1 2.88
  13  0.376  0.208  0.438-  81 1.77   8 2.61  11 2.62  10 2.62  17 2.66  25 2.66   5 2.68   3 2.99
                            43 3.00  19 3.02
  14  0.377  0.712  0.426-  27 2.58   8 2.61   6 2.62  15 2.62  25 2.62  16 2.63  44 2.72  30 2.77
                            52 2.80
  15  0.627  0.461  0.423-   7 2.59  27 2.60   9 2.61  14 2.62  17 2.63  25 2.64  44 2.70  75 2.70
                            18 2.76
  16  0.125  0.711  0.428-   4 2.61   5 2.62   6 2.62  12 2.62  25 2.63  14 2.63  33 2.70  30 2.81
                             2 2.89
  17  0.627  0.210  0.422-   4 2.60   9 2.60  11 2.62  15 2.63  13 2.66  25 2.66  18 2.73  60 2.74
                            19 2.83
  18  0.547  0.375  0.318-  60 2.57  67 2.58  75 2.58  44 2.63  68 2.65  30 2.66  26 2.67  19 2.70
                            17 2.73   3 2.76  15 2.76  25 3.08
  19  0.533  0.124  0.317-  43 2.53  80 2.56  68 2.60  61 2.60   1 2.62  59 2.63   3 2.64  18 2.70
                            60 2.74  11 2.81  17 2.83  13 3.02
  20  0.546  0.123  0.038-  37 2.55  57 2.56  48 2.58  62 2.61  45 2.65  63 2.65  47 2.66  56 2.67
                            34 2.68
  21  0.121  0.460  0.127-  40 2.52  47 2.53  36 2.53  69 2.59  42 2.60  70 2.61  50 2.62  64 2.62
                            58 2.64  57 2.68  74 2.69  31 2.70
  22  0.042  0.137  0.314-  65 2.51  55 2.53  39 2.55  43 2.56  77 2.57  75 2.57  60 2.65   2 2.67
                            52 2.71  10 2.79   9 2.83   6 2.86  31 3.40
  23  0.043  0.130  0.032-  70 2.58  40 2.59  45 2.59  41 2.62  62 2.62  76 2.62  24 2.68  35 2.69
                            53 2.75
  24  0.130  0.958  0.131-  79 2.51  77 2.53  53 2.57  35 2.58  55 2.58  70 2.59  58 2.62  38 2.62
                            73 2.63  66 2.68  23 2.68  41 2.70
  25  0.376  0.463  0.439-  81 1.74  14 2.62  16 2.63  15 2.64  13 2.66  17 2.66   5 2.67  30 3.01
                             3 3.05  18 3.08
  26  0.454  0.545  0.219-  73 2.49  74 2.54  51 2.56  79 2.59  64 2.60  68 2.65  78 2.65  32 2.67
                            30 2.67  18 2.67  67 2.70  44 2.75
  27  0.624  0.711  0.425-  14 2.58  15 2.60   8 2.60  11 2.61  12 2.62   7 2.63  44 2.71  29 2.78
                            61 2.78
  28  0.956  0.790  0.221-  58 2.57  42 2.57  66 2.58  50 2.59  49 2.59  64 2.61   1 2.62   2 2.64
                            59 2.67  79 2.72  77 2.73  33 2.73
  29  0.794  0.621  0.320-  39 2.52  75 2.55  42 2.57  44 2.61  32 2.62  33 2.63  61 2.65   1 2.65
                            49 2.70  27 2.78   7 2.83  12 2.87
  30  0.293  0.629  0.320-  44 2.59  52 2.60  79 2.61  64 2.62   2 2.63  33 2.64  18 2.66  26 2.67
                             3 2.69  14 2.77  16 2.81  25 3.01
  31  0.203  0.282  0.225-  70 2.53  55 2.55  65 2.56  43 2.60  57 2.61   3 2.64  39 2.67  80 2.67
                            42 2.68  21 2.70  68 2.71  64 2.75  22 3.40
  32  0.707  0.549  0.221-  54 2.53  69 2.56  49 2.57  42 2.58  51 2.58  65 2.60  78 2.60  29 2.62
                            26 2.67  67 2.68  75 2.70  44 2.70
  33  0.041  0.629  0.326-   3 2.58  39 2.60  29 2.63  30 2.64   1 2.64   2 2.66   5 2.69  64 2.70
                            16 2.70  42 2.73  12 2.73  28 2.73
  34  0.798  0.862  0.040-  50 2.39  66 2.50  71 2.53  36 2.54  48 2.54  63 2.59  20 2.68  35 2.72
                            62 2.73
  35  0.056  0.867  0.036-  72 2.53  58 2.54  36 2.55  24 2.58  53 2.62  66 2.62  23 2.69  62 2.70
                            34 2.72
  36  0.047  0.627  0.035-  21 2.53  34 2.54  35 2.55  58 2.59  47 2.59  72 2.62  50 2.62  40 2.64
                            71 2.69
  37  0.627  0.221  0.128-  74 2.49  51 2.51  67 2.52  41 2.54  56 2.54  20 2.55  59 2.56  68 2.56
                            62 2.60  66 2.63  57 2.68  48 2.82
  38  0.382  0.955  0.129-  80 2.48  53 2.48  45 2.51  48 2.52  78 2.53  73 2.54  54 2.54  63 2.55
                            55 2.59  57 2.60  24 2.62  70 2.65
  39  0.036  0.383  0.325-  29 2.52   3 2.55  22 2.55  75 2.58  33 2.60  10 2.66  31 2.67  42 2.67
                             5 2.71   7 2.73  43 2.76  65 2.77
  40  0.032  0.382  0.036-  69 2.46  71 2.51  21 2.52  76 2.55  70 2.58  23 2.59  36 2.64  47 2.73
                            45 2.75
  41  0.872  0.216  0.128-  76 2.46  65 2.51  37 2.54  69 2.54  67 2.54  77 2.54  51 2.57  62 2.58
                            23 2.62  70 2.63  66 2.64  24 2.70
  42  0.955  0.545  0.224-  50 2.56  29 2.57  28 2.57  32 2.58  21 2.60  49 2.61  64 2.62  69 2.62
                            65 2.63  39 2.67  31 2.68  33 2.73
  43  0.296  0.115  0.322-  52 2.50  55 2.53  19 2.53  61 2.54  22 2.56   8 2.60  31 2.60  80 2.66
                             3 2.67  10 2.71  39 2.76  13 3.00
  44  0.540  0.630  0.322-  61 2.53  52 2.55  30 2.59  29 2.61  18 2.63  78 2.64  75 2.64  15 2.70
                            32 2.70  27 2.71  14 2.72  26 2.75
  45  0.295  0.120  0.038-  70 2.50  38 2.51  57 2.57  53 2.59  23 2.59  63 2.62  20 2.65  47 2.72
                            40 2.75
  46  0.548  0.625  0.042-  51 2.38  73 2.40  54 2.42  53 2.54  71 2.55  63 2.56  76 2.57  56 2.59
                            72 2.61
  47  0.295  0.380  0.037-  74 2.43  21 2.53  72 2.58  36 2.59  56 2.61  57 2.61  20 2.66  45 2.72
                            40 2.73
  48  0.625  0.951  0.131-  49 2.40  54 2.48  80 2.48  38 2.52  34 2.54  59 2.54  50 2.54  63 2.58
                            20 2.58  57 2.62  66 2.64  37 2.82
  49  0.706  0.795  0.220-  48 2.40  50 2.48  54 2.49  80 2.51  32 2.57  78 2.59  28 2.59  42 2.61
                            61 2.62   1 2.63  59 2.66  29 2.70
  50  0.866  0.707  0.128-  34 2.39  71 2.43  54 2.46  49 2.48  48 2.54  42 2.56  69 2.57  28 2.59
                            21 2.62  36 2.62  66 2.71  58 2.80
  51  0.626  0.461  0.126-  46 2.38  76 2.45  37 2.51  56 2.53  26 2.56  73 2.57  41 2.57  32 2.58
                            69 2.58  74 2.60  67 2.63  54 2.65
  52  0.298  0.875  0.318-  55 2.43  61 2.50  43 2.50  78 2.52  79 2.53  44 2.55  30 2.60   2 2.64
                            22 2.71   8 2.72   6 2.78  14 2.80
  53  0.305  0.868  0.039-  73 2.42  38 2.48  63 2.53  46 2.54  24 2.57  72 2.58  45 2.59  35 2.62
                            23 2.75
  54  0.627  0.714  0.128-  46 2.42  71 2.46  50 2.46  48 2.48  63 2.49  49 2.49  32 2.53  38 2.54
                            73 2.55  78 2.62  69 2.64  51 2.65
  55  0.223  0.029  0.227-  52 2.43  78 2.44  79 2.48  80 2.51  43 2.53  22 2.53  31 2.55  24 2.58
                            38 2.59  77 2.69  70 2.72  65 2.82
  56  0.543  0.380  0.033-  74 2.50  51 2.53  37 2.54  72 2.57  76 2.58  46 2.59  47 2.61  62 2.67
                            20 2.67
  57  0.379  0.205  0.131-  68 2.46  80 2.54  20 2.56  45 2.57  38 2.60  74 2.60  31 2.61  47 2.61
                            70 2.61  48 2.62  37 2.68  21 2.68
  58  0.135  0.705  0.131-  72 2.47  64 2.54  35 2.54  28 2.57  79 2.58  36 2.59  24 2.62  74 2.62
                            21 2.64  73 2.65  66 2.73  50 2.80
  59  0.705  0.050  0.220-  66 2.53  48 2.54  67 2.55  37 2.56  68 2.56  60 2.62  19 2.63  77 2.63
                            80 2.64   1 2.66  49 2.66  28 2.67
  60  0.793  0.129  0.317-  67 2.53  18 2.57  77 2.58  75 2.60   2 2.60  59 2.62  22 2.65   1 2.66
                            17 2.74  19 2.74   9 2.76   4 2.85
  61  0.538  0.872  0.317-  78 2.48  52 2.50  44 2.53  80 2.54  43 2.54  19 2.60  49 2.62   1 2.64
                            29 2.65   8 2.73  27 2.78  11 2.86
  62  0.796  0.123  0.033-  66 2.55  41 2.58  37 2.60  20 2.61  23 2.62  76 2.63  56 2.67  35 2.70
                            34 2.73
  63  0.546  0.870  0.035-  54 2.49  53 2.53  38 2.55  46 2.56  48 2.58  71 2.58  34 2.59  45 2.62
                            20 2.65
  64  0.207  0.542  0.224-  58 2.54  26 2.60   3 2.61  28 2.61  42 2.62  21 2.62  30 2.62  68 2.63
                            74 2.69  33 2.70  79 2.70  31 2.75
  65  0.952  0.296  0.221-  41 2.51  22 2.51  67 2.52  69 2.53  77 2.53  31 2.56  70 2.59  32 2.60
                            42 2.63  75 2.63  39 2.77  55 2.82
  66  0.872  0.963  0.128-  34 2.50  59 2.53  62 2.55  28 2.58  77 2.58  35 2.62  37 2.63  41 2.64
                            48 2.64  24 2.68  50 2.71  58 2.73
  67  0.714  0.289  0.223-  77 2.51  37 2.52  65 2.52  60 2.53  41 2.54  59 2.55  18 2.58  51 2.63
                            75 2.64  68 2.67  32 2.68  26 2.70
  68  0.457  0.291  0.221-  57 2.46  74 2.55  59 2.56  37 2.56  19 2.60  64 2.63  26 2.65  18 2.65
                            67 2.67  80 2.69  31 2.71   3 2.73
  69  0.875  0.456  0.127-  71 2.45  76 2.45  40 2.46  65 2.53  41 2.54  32 2.56  50 2.57  51 2.58
                            21 2.59  42 2.62  70 2.62  54 2.64
  70  0.128  0.208  0.128-  45 2.50  31 2.53  40 2.58  23 2.58  65 2.59  24 2.59  21 2.61  57 2.61
                            69 2.62  41 2.63  38 2.65  55 2.72
  71  0.792  0.622  0.039-  50 2.43  69 2.45  54 2.46  40 2.51  34 2.53  46 2.55  76 2.57  63 2.58
                            36 2.69
  72  0.298  0.625  0.041-  74 2.44  58 2.47  73 2.49  35 2.53  56 2.57  53 2.58  47 2.58  46 2.61
                            36 2.62
  73  0.386  0.710  0.128-  46 2.40  53 2.42  72 2.49  26 2.49  38 2.54  54 2.55  78 2.55  51 2.57
                            24 2.63  79 2.64  58 2.65  74 2.73
  74  0.382  0.452  0.125-  47 2.43  72 2.44  37 2.49  56 2.50  26 2.54  68 2.55  51 2.60  57 2.60
                            58 2.62  21 2.69  64 2.69  73 2.73
  75  0.793  0.378  0.321-  29 2.55  22 2.57  39 2.58  18 2.58  60 2.60  65 2.63  67 2.64  44 2.64
                            32 2.70  15 2.70   9 2.70   7 2.82
  76  0.791  0.377  0.038-  51 2.45  69 2.45  41 2.46  40 2.55  46 2.57  71 2.57  56 2.58  23 2.62
                            62 2.63
  77  0.956  0.052  0.221-  67 2.51  65 2.53  24 2.53  41 2.54  22 2.57  60 2.58  66 2.58   2 2.61
                            59 2.63  79 2.67  55 2.69  28 2.73
  78  0.458  0.797  0.224-  55 2.44  80 2.47  61 2.48  52 2.52  38 2.53  73 2.55  79 2.57  49 2.59
                            32 2.60  54 2.62  44 2.64  26 2.65
  79  0.212  0.798  0.224-  55 2.48  24 2.51  52 2.53   2 2.54  78 2.57  58 2.58  26 2.59  30 2.61
                            73 2.64  77 2.67  64 2.70  28 2.72
  80  0.462  0.031  0.222-  78 2.47  48 2.48  38 2.48  49 2.51  55 2.51  57 2.54  61 2.54  19 2.56
                            59 2.64  43 2.66  31 2.67  68 2.69
  81  0.374  0.338  0.490-  25 1.74  13 1.77
 
  LATTYP: Found a hexagonal cell.
 ALAT       =    10.4600000381
 C/A-ratio  =     2.1032504704
  
  Lattice vectors:
  
 A1 = (   5.2300000190,  -9.0586257566,   0.0000000000)
 A2 = ( -10.4600000381,   0.0000000000,   0.0000000000)
 A3 = (   0.0000000000,   0.0000000000, -22.0000000000)


Analysis of symmetry for initial positions (statically):
=====================================================================
 Subroutine PRICEL returns:
 Original cell was already a primitive cell.
 

 Routine SETGRP: Setting up the symmetry group for a 
 hexagonal supercell.


 Subroutine GETGRP returns: Found  1 space group operations
 (whereof  1 operations were pure point group operations)
 out of a pool of 24 trial point group operations.


The static configuration has the point symmetry C_1 .


Analysis of symmetry for dynamics (positions and initial velocities):
=====================================================================
 Subroutine PRICEL returns:
 Original cell was already a primitive cell.
 

 Routine SETGRP: Setting up the symmetry group for a 
 hexagonal supercell.


 Subroutine GETGRP returns: Found  1 space group operations
 (whereof  1 operations were pure point group operations)
 out of a pool of 24 trial point group operations.


The dynamic configuration has the point symmetry C_1 .


Analysis of constrained symmetry for selective dynamics:
=====================================================================
 Subroutine PRICEL returns:
 Original cell was already a primitive cell.
 

 Routine SETGRP: Setting up the symmetry group for a 
 hexagonal supercell.


 Subroutine GETGRP returns: Found  1 space group operations
 (whereof  1 operations were pure point group operations)
 out of a pool of 24 trial point group operations.


The constrained configuration has the point symmetry C_1 .


Analysis of structural, dynamic, and magnetic symmetry:
=====================================================================
 Subroutine PRICEL returns:
 Original cell was already a primitive cell.
 

 Routine SETGRP: Setting up the symmetry group for a 
 hexagonal supercell.


 Subroutine GETGRP returns: Found  1 space group operations
 (whereof  1 operations were pure point group operations)
 out of a pool of 24 trial point group operations.


The magnetic configuration has the point symmetry C_1 .


 Subroutine INISYM returns: Found  1 space group operations
 (whereof  1 operations are pure point group operations),
 and found     1 'primitive' translations

 
 
 KPOINTS: mesh auto                               

Automatic generation of k-mesh.
Space group operators:
 irot       det(A)        alpha          n_x          n_y          n_z        tau_x        tau_y        tau_z
    1     1.000000     0.000000     1.000000     0.000000     0.000000     0.000000     0.000000     0.000000
 
 Subroutine IBZKPT returns following result:
 ===========================================
 
 Found      4 irreducible k-points:
 
 Following reciprocal coordinates:
            Coordinates               Weight
  0.000000  0.000000  0.000000      1.000000
  0.500000 -0.000000  0.000000      1.000000
  0.000000  0.500000  0.000000      1.000000
  0.500000  0.500000  0.000000      1.000000
 
 Following cartesian coordinates:
            Coordinates               Weight
  0.000000  0.000000  0.000000      1.000000
  0.047801 -0.027598  0.000000      1.000000
  0.000000  0.055196  0.000000      1.000000
  0.047801  0.027598  0.000000      1.000000
 
 TETIRR: Found     12 inequivalent tetrahedra from       24
 
 Subroutine IBZKPT_HF returns following result:
 ==============================================
 
 Found      4 k-points in 1st BZ
 the following      4 k-points will be used (e.g. in the exchange kernel)
 Following reciprocal coordinates:   # in IRBZ
  0.000000  0.000000  0.000000    0.25000000   1 t-inv F
  0.500000 -0.000000  0.000000    0.25000000   2 t-inv F
  0.000000  0.500000  0.000000    0.25000000   3 t-inv F
  0.500000  0.500000  0.000000    0.25000000   4 t-inv F


--------------------------------------------------------------------------------------------------------




 Dimension of arrays:
   k-points           NKPTS =      4   k-points in BZ     NKDIM =      4   number of bands    NBANDS=    624
   number of dos      NEDOS =    301   number of ions     NIONS =     81
   non local maximal  LDIM  =      6   non local SUM 2l+1 LMDIM =     18
   total plane-waves  NPLWV = ******
   max r-space proj   IRMAX =   7217   max aug-charges    IRDMAX=  31436
   dimension x,y,z NGX =    80 NGY =   80 NGZ =  168
   dimension x,y,z NGXF=   160 NGYF=  160 NGZF=  336
   support grid    NGXF=   160 NGYF=  160 NGZF=  336
   ions per type =              32  13  10  13  12   1
   NGX,Y,Z   is equivalent  to a cutoff of  12.71, 12.71, 12.70 a.u.
   NGXF,Y,Z  is equivalent  to a cutoff of  25.43, 25.43, 25.39 a.u.

 SYSTEM =  Pt111                                   
 POSCAR =  10.46                                   

 Startparameter for this run:
   NWRITE =      2    write-flag & timer
   PREC   = accura    normal or accurate (medium, high low for compatibility)
   ISTART =      0    job   : 0-new  1-cont  2-samecut
   ICHARG =      2    charge: 1-file 2-atom 10-const
   ISPIN  =      2    spin polarized calculation?
   LNONCOLLINEAR =      F non collinear calculations
   LSORBIT =      F    spin-orbit coupling
   INIWAV =      1    electr: 0-lowe 1-rand  2-diag
   LASPH  =      F    aspherical Exc in radial PAW
   METAGGA=      F    non-selfconsistent MetaGGA calc.

 Electronic Relaxation 1
   ENCUT  =  550.0 eV  40.42 Ry    6.36 a.u.  20.00 20.00 42.07*2*pi/ulx,y,z
   ENINI  =  550.0     initial cutoff
   ENAUG  =  587.0 eV  augmentation charge cutoff
   NELM   =    200;   NELMIN=  2; NELMDL= -5     # of ELM steps 
   EDIFF  = 0.1E-04   stopping-criterion for ELM
   LREAL  =      T    real-space projection
   NLSPLINE    = F    spline interpolate recip. space projectors
   LCOMPAT=      F    compatible to vasp.4.4
   GGA_COMPAT  = T    GGA compatible to vasp.4.4-vasp.4.6
   LMAXPAW     = -100 max onsite density
   LMAXMIX     =    2 max onsite mixed and CHGCAR
   VOSKOWN=      0    Vosko Wilk Nusair interpolation
   ROPT   =   -0.00025  -0.00025  -0.00025  -0.00025
   ROPT   =   -0.00025  -0.00025
 Ionic relaxation
   EDIFFG = -.5E-01   stopping-criterion for IOM
   NSW    =   1009    number of steps for IOM
   NBLOCK =      1;   KBLOCK =   1009    inner block; outer block 
   IBRION =      5    ionic relax: 0-MD 1-quasi-New 2-CG
   NFREE  =      2    steps in history (QN), initial steepest desc. (CG)
   ISIF   =      2    stress and relaxation
   IWAVPR =     11    prediction:  0-non 1-charg 2-wave 3-comb
   ISYM   =      2    0-nonsym 1-usesym 2-fastsym
   LCORR  =      T    Harris-Foulkes like correction to forces

   POTIM  = 0.5000    time-step for ionic-motion
   TEIN   =    0.0    initial temperature
   TEBEG  =    0.0;   TEEND  =   0.0 temperature during run
   SMASS  =  -3.00    Nose mass-parameter (am)
   estimated Nose-frequenzy (Omega)   =  0.10E-29 period in steps =****** mass=  -0.250E-26a.u.
   SCALEE = 1.0000    scale energy and forces
   NPACO  =    256;   APACO  = 16.0  distance and # of slots for P.C.
   PSTRESS=    0.0 pullay stress

  Mass of Ions in am
   POMASS = 195.08 55.85 58.93 63.55 58.69  1.00
  Ionic Valenz
   ZVAL   =  10.00  8.00  9.00 11.00 10.00  1.00
  Atomic Wigner-Seitz radii
   RWIGS  =  -1.00 -1.00 -1.00 -1.00 -1.00 -1.00
  virtual crystal weights 
   VCA    =   1.00  1.00  1.00  1.00  1.00  1.00
   NELECT =     778.0000    total number of electrons
   NUPDOWN=      -1.0000    fix difference up-down

 DOS related values:
   EMIN   =  10.00;   EMAX   =-10.00  energy-range for DOS
   EFERMI =   0.00
   ISMEAR =    -5;   SIGMA  =   0.10  broadening in eV -4-tet -1-fermi 0-gaus

 Electronic relaxation 2 (details)
   IALGO  =     68    algorithm
   LDIAG  =      T    sub-space diagonalisation (order eigenvalues)
   LSUBROT=      F    optimize rotation matrix (better conditioning)
   TURBO    =      0    0=normal 1=particle mesh
   IRESTART =      0    0=no restart 2=restart with 2 vectors
   NREBOOT  =      0    no. of reboots
   NMIN     =      0    reboot dimension
   EREF     =   0.00    reference energy to select bands
   IMIX   =      4    mixing-type and parameters
     AMIX     =   0.40;   BMIX     =  1.00
     AMIX_MAG =   1.60;   BMIX_MAG =  1.00
     AMIN     =   0.10
     WC   =   100.;   INIMIX=   1;  MIXPRE=   1;  MAXMIX= -45

 Intra band minimization:
   WEIMIN = 0.0010     energy-eigenvalue tresh-hold
   EBREAK =  0.40E-08  absolut break condition
   DEPER  =   0.30     relativ break condition  

   TIME   =   0.40     timestep for ELM

  volume/ion in A,a.u.               =      25.74       173.67
  Fermi-wavevector in a.u.,A,eV,Ry     =   1.178680  2.227382 18.902381  1.389286
  Thomas-Fermi vector in A             =   2.315004
 
 Write flags
   LWAVE        =      F    write WAVECAR
   LDOWNSAMPLE  =      F    k-point downsampling of WAVECAR
   LCHARG       =      F    write CHGCAR
   LVTOT        =      F    write LOCPOT, total local potential
   LVHAR        =      F    write LOCPOT, Hartree potential only
   LELF         =      F    write electronic localiz. function (ELF)
   LORBIT       =      0    0 simple, 1 ext, 2 COOP (PROOUT), +10 PAW based schemes


 Dipole corrections
   LMONO  =      F    monopole corrections only (constant potential shift)
   LDIPOL =      F    correct potential (dipole corrections)
   IDIPOL =      0    1-x, 2-y, 3-z, 4-all directions 
   EPSILON=  1.0000000 bulk dielectric constant

 Exchange correlation treatment:
   GGA     =    --    GGA type
   LEXCH   =     8    internal setting for exchange type
   VOSKOWN=      0    Vosko Wilk Nusair interpolation
   LHFCALC =     F    Hartree Fock is set to
   LHFONE  =     F    Hartree Fock one center treatment
   AEXX    =    0.0000 exact exchange contribution

 Linear response parameters
   LEPSILON=     F    determine dielectric tensor
   LRPA    =     F    only Hartree local field effects (RPA)
   LNABLA  =     F    use nabla operator in PAW spheres
   LVEL    =     F    velocity operator in full k-point grid
   LINTERFAST=   F  fast interpolation
   KINTER  =     0    interpolate to denser k-point grid
   CSHIFT  =0.1000    complex shift for real part using Kramers Kronig
   OMEGAMAX=  -1.0    maximum frequency
   DEG_THRESHOLD= 0.2000000E-02 threshold for treating states as degnerate
   RTIME   =   -0.100 relaxation time in fs
  (WPLASMAI=    0.000 imaginary part of plasma frequency in eV, 0.658/RTIME)
   DFIELD  = 0.0000000 0.0000000 0.0000000 field for delta impulse in time
 
 Orbital magnetization related:
   ORBITALMAG=     F  switch on orbital magnetization
   LCHIMAG   =     F  perturbation theory with respect to B field
   DQ        =  0.001000  dq finite difference perturbation B field
   LLRAUG    =     F  two centre corrections for induced B field



--------------------------------------------------------------------------------------------------------


 finite differences
   using selective dynamics as specified on POSCAR
   WARNING: If single coordinates had been selected the selection of coordinates
            is made according to the corresponding   d i r e c t   coordinates!
            Don't support selection of single cartesian coordinates -- sorry ...
  !
 charge density and potential will be updated during run
 spin polarized calculation
 RMM-DIIS sequential band-by-band and
  variant of blocked Davidson during initial phase
 perform sub-space diagonalisation
    before iterative eigenvector-optimisation
 modified Broyden-mixing scheme, WC =      100.0
 initial mixing is a Kerker type mixing with AMIX =  0.4000 and BMIX =      1.0000
 Hartree-type preconditioning will be used
 using additional bands          235
 real space projection scheme for non local part
 use partial core corrections
 calculate Harris-corrections to forces 
   (improved forces if not selfconsistent)
 use gradient corrections 
 use of overlap-Matrix (Vanderbilt PP)
 Fermi weights with tetrahedron method with Bloechl corrections


--------------------------------------------------------------------------------------------------------


  energy-cutoff  :      550.00
  volume of cell :     2084.57
      direct lattice vectors                 reciprocal lattice vectors
    10.460000038  0.000000000  0.000000000     0.095602294 -0.055196010  0.000000000
     5.230000019  9.058625757  0.000000000     0.000000000  0.110392020  0.000000000
     0.000000000  0.000000000 22.000000000     0.000000000  0.000000000  0.045454545

  length of vectors
    10.460000038 10.460000038 22.000000000     0.110392020  0.110392020  0.045454545


 
 k-points in units of 2pi/SCALE and weight: mesh auto                               
   0.00000000  0.00000000  0.00000000       0.250
   0.04780115 -0.02759801  0.00000000       0.250
   0.00000000  0.05519601  0.00000000       0.250
   0.04780115  0.02759801  0.00000000       0.250
 
 k-points in reciprocal lattice and weights: mesh auto                               
   0.00000000  0.00000000  0.00000000       0.250
   0.50000000 -0.00000000  0.00000000       0.250
   0.00000000  0.50000000  0.00000000       0.250
   0.50000000  0.50000000  0.00000000       0.250
 
 position of ions in fractional coordinates (direct lattice) 
   0.78748571  0.87807474  0.31822022
   0.04282253  0.88137584  0.31670212
   0.28199930  0.37748746  0.32131803
   0.87569265  0.96103783  0.42704045
   0.12107559  0.46332388  0.42763335
   0.12611467  0.96105903  0.42229002
   0.87514934  0.45991091  0.42962160
   0.37595461  0.96129560  0.42126116
   0.87555123  0.21112730  0.42293312
   0.12633054  0.21072782  0.42288085
   0.62606435  0.95984743  0.42507829
   0.87454467  0.71090209  0.42933722
   0.37638214  0.20807571  0.43760711
   0.37655223  0.71157892  0.42565180
   0.62682413  0.46131271  0.42315375
   0.12502288  0.71147444  0.42766740
   0.62746295  0.20962779  0.42153568
   0.54722047  0.37500112  0.31777485
   0.53345407  0.12386360  0.31652888
   0.54635554  0.12346440  0.03801974
   0.12124064  0.46039479  0.12715021
   0.04204991  0.13659261  0.31428536
   0.04283891  0.12981457  0.03173287
   0.13019387  0.95827841  0.13124685
   0.37609899  0.46253610  0.43855591
   0.45403289  0.54545091  0.21870836
   0.62361908  0.71143217  0.42455549
   0.95636135  0.79046790  0.22127113
   0.79406675  0.62117449  0.31958393
   0.29291501  0.62874401  0.32020057
   0.20299264  0.28191601  0.22537426
   0.70728990  0.54862033  0.22052174
   0.04116450  0.62855721  0.32605645
   0.79775823  0.86189876  0.04039458
   0.05564464  0.86654624  0.03604956
   0.04678687  0.62731106  0.03496113
   0.62680793  0.22051446  0.12798747
   0.38242997  0.95507716  0.12934307
   0.03617914  0.38260542  0.32483274
   0.03228695  0.38241898  0.03570727
   0.87180834  0.21550419  0.12750532
   0.95519237  0.54505519  0.22370187
   0.29608012  0.11508620  0.32156006
   0.54007259  0.62961777  0.32213985
   0.29501736  0.12008867  0.03750641
   0.54755980  0.62539500  0.04218165
   0.29450307  0.37991063  0.03693883
   0.62547323  0.95120890  0.13146718
   0.70629551  0.79479816  0.21965480
   0.86639037  0.70660939  0.12805709
   0.62604680  0.46066035  0.12631648
   0.29830707  0.87474141  0.31777413
   0.30524438  0.86778677  0.03913090
   0.62727034  0.71381420  0.12769253
   0.22342560  0.02895889  0.22713189
   0.54327421  0.38045200  0.03307323
   0.37859094  0.20515622  0.13147005
   0.13501613  0.70531698  0.13067687
   0.70508973  0.04998780  0.22044003
   0.79308287  0.12912167  0.31741377
   0.53821695  0.87249201  0.31678470
   0.79612970  0.12318704  0.03281809
   0.54606913  0.87006807  0.03477158
   0.20705462  0.54237546  0.22432821
   0.95183918  0.29572597  0.22078627
   0.87174178  0.96317289  0.12820031
   0.71391943  0.28911011  0.22288637
   0.45746385  0.29078742  0.22068324
   0.87522322  0.45648295  0.12682467
   0.12758453  0.20753202  0.12806114
   0.79233835  0.62247135  0.03901829
   0.29812102  0.62506428  0.04053259
   0.38563452  0.71042955  0.12826607
   0.38240893  0.45157229  0.12544734
   0.79259248  0.37775580  0.32094485
   0.79084340  0.37728899  0.03790948
   0.95584833  0.05187198  0.22132157
   0.45788199  0.79706057  0.22411927
   0.21215454  0.79805172  0.22448805
   0.46238740  0.03124127  0.22181689
   0.37360320  0.33772712  0.48983605
 
 position of ions in cartesian coordinates  (Angst):
  12.82943145  7.95415043  7.00084482
   5.05751930  7.98405389  6.96744670
   4.92397208  3.41951759  7.06899655
  14.18597301  8.70568208  9.39488995
   3.68963454  4.19707762  9.40793366
   6.34549817  8.70587409  9.29038050
  11.55939625  4.16616084  9.45167528
   8.96006119  8.70801704  9.26774561
  10.26246164  1.91252315  9.30452866
   2.42352400  1.90890449  9.30337875
  11.56863519  8.69489868  9.35172248
  12.86575527  6.43979599  9.44541887
   5.02519321  1.88487997  9.62735648
   7.66029406  6.44592714  9.36433960
   8.96924595  4.17885924  9.30938243
   5.02875068  6.44498066  9.40868285
   7.65961583  1.89893973  9.27378493
   7.68518198  3.39699484  6.99104672
   6.22773618  1.12203400  6.96363540
   6.36059777  1.11841783  0.83643430
   3.67604182  4.17054411  2.79730458
   1.15422142  1.23734138  6.91427792
   1.12702522  1.17594162  0.69812310
   6.37362399  8.68068553  2.88743074
   6.35305923  4.18994144  9.64823006
   7.60189228  4.94103567  4.81158384
  10.24384584  6.44459781  9.34022081
  14.13768686  7.16055290  4.86796493
  11.55468076  5.62698720  7.03084647
   6.35222218  5.69555671  7.04441255
   3.59772373  2.55377166  4.95823367
  10.26753667  4.96974625  4.85147823
   3.71793489  5.69386453  7.17324190
  12.85228162  7.80761834  0.88868079
   5.11407977  7.84971811  0.79309028
   3.77022748  5.68257614  0.76914493
   7.70970158  1.99755794  2.81572435
   8.99527104  8.65168656  2.84554761
   2.37946013  3.46587932  7.14632019
   2.33777282  3.46419046  0.78556002
  10.24620218  1.95217182  2.80511704
  12.84195085  4.93745094  4.92144108
   3.69889893  1.04252281  7.07432127
   8.94206023  5.70347175  7.08707660
   3.71394535  1.08783833  0.82514106
   8.99829143  5.66521924  0.92799621
   5.06743477  3.44146824  0.81265419
  11.51727260  8.61664542  2.89227791
  11.54464544  7.19977908  4.83240552
  12.75801039  6.40091003  2.81725595
   8.95770316  4.17294967  2.77896252
   7.69518955  7.92395510  6.99103081
   7.73138105  7.86095560  0.86087976
  10.29449606  6.46617565  2.80923565
   2.48848679  0.26232775  4.99690168
   7.67241216  3.44637226  0.72761104
   5.03302831  1.85843343  2.89234121
   5.10107653  6.38920253  2.87489115
   7.63667477  0.45282080  4.84968064
   8.97095313  1.16966484  6.98310302
  10.19288253  7.90357859  6.96926341
   8.97178491  1.11590525  0.72199805
  10.26233915  7.88162099  0.76497477
   5.00241504  4.91317635  4.93522055
  11.50288465  2.67887089  4.85729792
  14.15581328  8.72502274  2.82040678
   8.97964314  2.61894028  4.90350016
   6.30589003  2.63413437  4.85503126
  11.54224082  4.13510824  2.79014274
   2.41992666  1.87995489  2.81734516
  11.54338437  5.63873500  0.85840246
   6.38743212  5.66222338  0.89171700
   7.74928366  6.43551543  2.82185349
   6.36172048  4.09062433  2.75984157
  10.26618018  3.42194838  7.06078672
  10.24544346  3.41771980  0.83400850
  10.26946403  0.46988889  4.86907455
   8.95807246  7.22027342  4.93062403
   6.39294697  7.22925187  4.93873718
   4.99996406  0.28300299  4.87997169
   5.67420232  3.05934359 10.77639300
 


--------------------------------------------------------------------------------------------------------


 k-point  1 :   0.0000 0.0000 0.0000  plane waves:   60991
 k-point  2 :   0.5000-0.0000 0.0000  plane waves:   60974
 k-point  3 :   0.0000 0.5000 0.0000  plane waves:   60974
 k-point  4 :   0.5000 0.5000 0.0000  plane waves:   60974

 maximum and minimum number of plane-waves per node :     60991    60974

 maximum number of plane-waves:     60991
 maximum index in each direction: 
   IXMAX=   20   IYMAX=   20   IZMAX=   42
   IXMIN=  -20   IYMIN=  -20   IZMIN=  -42


 serial   3D FFT for wavefunctions
 parallel 3D FFT for charge:
    minimum data exchange during FFTs selected (reduces bandwidth)


 total amount of memory used by VASP MPI-rank0   349219. kBytes
=======================================================================

   base      :      30000. kBytes
   nonlr-proj:      90974. kBytes
   fftplans  :      11305. kBytes
   grid      :     110428. kBytes
   one-center:       2519. kBytes
   wavefun   :     103993. kBytes
 
     INWAV:  cpu time    0.0000: real time    0.0004
 Broyden mixing: mesh for mixing (old mesh)
   NGX = 41   NGY = 41   NGZ = 85
  (NGX  =160   NGY  =160   NGZ  =336)
  gives a total of 142885 points

 initial charge density was supplied:
 charge density of overlapping atoms calculated
 number of electron     778.0000000 magnetization     231.0000000
 keeping initial charge density in first step


--------------------------------------------------------------------------------------------------------


 Maximum index for non-local projection operator         6972
 Maximum index for augmentation-charges         1830 (set IRDMAX)


--------------------------------------------------------------------------------------------------------


 First call to EWALD:  gamma=   0.139
 Maximum number of real-space cells 4x 4x 2
 Maximum number of reciprocal cells 2x 2x 4

    FEWALD:  cpu time    0.0035: real time    0.0035


--------------------------------------- Iteration      1(   1)  ---------------------------------------


    POTLOK:  cpu time    0.4029: real time    0.4071
    SETDIJ:  cpu time    0.0304: real time    0.0305
     EDDAV:  cpu time   57.0232: real time   57.2474
 BZINTS: Fermi energy: 18.012692;778.000000 electrons
         Band energy:8066.939817;  BLOECHL correction: -0.011878
       DOS:  cpu time    0.0236: real time    0.0244
    --------------------------------------------
      LOOP:  cpu time   57.4801: real time   57.7094

 eigenvalue-minimisations  :  9984
 total energy-change (2. order) : 0.7674673E+04  (-0.3353563E+05)
 number of electron     778.0000000 magnetization     231.0000000
 augmentation part      778.0000000 magnetization     231.0000000

 Free energy of the ion-electron system (eV)
  ---------------------------------------------------
  alpha Z        PSCENC =      2281.97981454
  Ewald energy   TEWEN  =    224162.91836502
  -Hartree energ DENC   =   -296544.67814779
  -exchange      EXHF   =         0.00000000
  -V(xc)+E(xc)   XCENC  =      1390.76720908
  PAW double counting   =     64136.80006862   -66038.70876209
  entropy T*S    EENTRO =         0.00000000
  eigenvalues    EBANDS =      8066.93981749
  atomic energy  EATOM  =     70218.65458108
  Solvation  Ediel_sol  =         0.00000000
  ---------------------------------------------------
  free energy    TOTEN  =      7674.67294595 eV

  energy without entropy =     7674.67294595  energy(sigma->0) =     7674.67294595


--------------------------------------------------------------------------------------------------------




--------------------------------------- Iteration      1(   2)  ---------------------------------------


     EDDAV:  cpu time   57.2739: real time   57.4728
 BZINTS: Fermi energy:  6.092259;778.000000 electrons
         Band energy:1062.498364;  BLOECHL correction: -0.077958
       DOS:  cpu time    0.0217: real time    0.0351
    --------------------------------------------
      LOOP:  cpu time   57.2955: real time   57.5079

 eigenvalue-minimisations  : 10080
 total energy-change (2. order) :-0.7004441E+04  (-0.6210387E+04)
 number of electron     778.0000000 magnetization     231.0000000
 augmentation part      778.0000000 magnetization     231.0000000

 Free energy of the ion-electron system (eV)
  ---------------------------------------------------
  alpha Z        PSCENC =      2281.97981454
  Ewald energy   TEWEN  =    224162.91836502
  -Hartree energ DENC   =   -296544.67814779
  -exchange      EXHF   =         0.00000000
  -V(xc)+E(xc)   XCENC  =      1390.76720908
  PAW double counting   =     64136.80006862   -66038.70876209
  entropy T*S    EENTRO =         0.00000000
  eigenvalues    EBANDS =      1062.49836398
  atomic energy  EATOM  =     70218.65458108
  Solvation  Ediel_sol  =         0.00000000
  ---------------------------------------------------
  free energy    TOTEN  =       670.23149245 eV

  energy without entropy =      670.23149245  energy(sigma->0) =      670.23149245


--------------------------------------------------------------------------------------------------------




--------------------------------------- Iteration      1(   3)  ---------------------------------------


     EDDAV:  cpu time   57.1486: real time   57.3334
 BZINTS: Fermi energy:  3.690954;778.000000 electrons
         Band energy: -33.210738;  BLOECHL correction: -0.095521
       DOS:  cpu time    0.0220: real time    0.0226
    --------------------------------------------
      LOOP:  cpu time   57.1706: real time   57.3560

 eigenvalue-minimisations  : 10080
 total energy-change (2. order) :-0.1095709E+04  (-0.9166220E+03)
 number of electron     778.0000000 magnetization     231.0000000
 augmentation part      778.0000000 magnetization     231.0000000

 Free energy of the ion-electron system (eV)
  ---------------------------------------------------
  alpha Z        PSCENC =      2281.97981454
  Ewald energy   TEWEN  =    224162.91836502
  -Hartree energ DENC   =   -296544.67814779
  -exchange      EXHF   =         0.00000000
  -V(xc)+E(xc)   XCENC  =      1390.76720908
  PAW double counting   =     64136.80006862   -66038.70876209
  entropy T*S    EENTRO =         0.00000000
  eigenvalues    EBANDS =       -33.21073808
  atomic energy  EATOM  =     70218.65458108
  Solvation  Ediel_sol  =         0.00000000
  ---------------------------------------------------
  free energy    TOTEN  =      -425.47760962 eV

  energy without entropy =     -425.47760962  energy(sigma->0) =     -425.47760962


--------------------------------------------------------------------------------------------------------




--------------------------------------- Iteration      1(   4)  ---------------------------------------


     EDDAV:  cpu time   66.6245: real time   66.8343
 BZINTS: Fermi energy:  3.567110;778.000000 electrons
         Band energy:-101.564804;  BLOECHL correction: -0.110408
       DOS:  cpu time    0.0219: real time    0.0225
    --------------------------------------------
      LOOP:  cpu time   66.6465: real time   66.8568

 eigenvalue-minimisations  : 12192
 total energy-change (2. order) :-0.6835407E+02  (-0.6569128E+02)
 number of electron     778.0000000 magnetization     231.0000000
 augmentation part      778.0000000 magnetization     231.0000000

 Free energy of the ion-electron system (eV)
  ---------------------------------------------------
  alpha Z        PSCENC =      2281.97981454
  Ewald energy   TEWEN  =    224162.91836502
  -Hartree energ DENC   =   -296544.67814779
  -exchange      EXHF   =         0.00000000
  -V(xc)+E(xc)   XCENC  =      1390.76720908
  PAW double counting   =     64136.80006862   -66038.70876209
  entropy T*S    EENTRO =         0.00000000
  eigenvalues    EBANDS =      -101.56480356
  atomic energy  EATOM  =     70218.65458108
  Solvation  Ediel_sol  =         0.00000000
  ---------------------------------------------------
  free energy    TOTEN  =      -493.83167510 eV

  energy without entropy =     -493.83167510  energy(sigma->0) =     -493.83167510


--------------------------------------------------------------------------------------------------------




--------------------------------------- Iteration      1(   5)  ---------------------------------------


     EDDAV:  cpu time   66.9498: real time   67.1619
 BZINTS: Fermi energy:  3.563161;778.000000 electrons
         Band energy:-103.801459;  BLOECHL correction: -0.107664
       DOS:  cpu time    0.0229: real time    0.0235
    CHARGE:  cpu time    2.5540: real time    2.5610
    MIXING:  cpu time    0.0092: real time    0.0094
    --------------------------------------------
      LOOP:  cpu time   69.5360: real time   69.7558

 eigenvalue-minimisations  : 12240
 total energy-change (2. order) :-0.2236655E+01  (-0.2232347E+01)
 number of electron     778.0000068 magnetization     216.2741427
 augmentation part      334.7802665 magnetization     184.8009262

 Broyden mixing:
  rms(total) = 0.12031E+02    rms(broyden)= 0.12031E+02
  rms(prec ) = 0.12317E+02
  weight for this iteration     100.00

 Free energy of the ion-electron system (eV)
  ---------------------------------------------------
  alpha Z        PSCENC =      2281.97981454
  Ewald energy   TEWEN  =    224162.91836502
  -Hartree energ DENC   =   -296544.67814779
  -exchange      EXHF   =         0.00000000
  -V(xc)+E(xc)   XCENC  =      1390.76720908
  PAW double counting   =     64136.80006862   -66038.70876209
  entropy T*S    EENTRO =         0.00000000
  eigenvalues    EBANDS =      -103.80145863
  atomic energy  EATOM  =     70218.65458108
  Solvation  Ediel_sol  =         0.00000000
  ---------------------------------------------------
  free energy    TOTEN  =      -496.06833017 eV

  energy without entropy =     -496.06833017  energy(sigma->0) =     -496.06833017


--------------------------------------------------------------------------------------------------------




--------------------------------------- Iteration      1(   6)  ---------------------------------------


    POTLOK:  cpu time    0.3954: real time    0.3978
    SETDIJ:  cpu time    0.0301: real time    0.0302
    EDDIAG:  cpu time    9.6207: real time    9.6477
  RMM-DIIS:  cpu time   35.0957: real time   35.2050
    ORTHCH:  cpu time    1.6691: real time    1.6845
 BZINTS: Fermi energy:  1.667165;778.000000 electrons
         Band energy:***********;  BLOECHL correction: -0.013918
       DOS:  cpu time    0.0239: real time    0.0240
    CHARGE:  cpu time    2.5333: real time    2.5403
    MIXING:  cpu time    0.0102: real time    0.0109
    --------------------------------------------
      LOOP:  cpu time   49.3783: real time   49.5404

 eigenvalue-minimisations  : 10019
 total energy-change (2. order) :-0.1108749E+03  (-0.7911963E+02)
 number of electron     778.0000089 magnetization     211.8663209
 augmentation part      405.2258522 magnetization     179.2618451

 Broyden mixing:
  rms(total) = 0.18656E+02    rms(broyden)= 0.18656E+02
  rms(prec ) = 0.24054E+02
  weight for this iteration     100.00

 eigenvalues of (default mixing * dielectric matrix)
  average eigenvalue GAMMA=   0.2503
  0.2503

 Free energy of the ion-electron system (eV)
  ---------------------------------------------------
  alpha Z        PSCENC =      2281.97981454
  Ewald energy   TEWEN  =    224162.91836502
  -Hartree energ DENC   =   -294915.70539244
  -exchange      EXHF   =         0.00000000
  -V(xc)+E(xc)   XCENC  =      1345.62654224
  PAW double counting   =     69395.77113650   -71097.24559709
  entropy T*S    EENTRO =         0.00000000
  eigenvalues    EBANDS =     -1998.94264229
  atomic energy  EATOM  =     70218.65458108
  Solvation  Ediel_sol  =         0.00000000
  ---------------------------------------------------
  free energy    TOTEN  =      -606.94319244 eV

  energy without entropy =     -606.94319244  energy(sigma->0) =     -606.94319244


--------------------------------------------------------------------------------------------------------




--------------------------------------- Iteration      1(   7)  ---------------------------------------


    POTLOK:  cpu time    0.3665: real time    0.3684
    SETDIJ:  cpu time    0.0296: real time    0.0297
    EDDIAG:  cpu time    9.7481: real time   11.3409
  RMM-DIIS:  cpu time   34.8888: real time   34.9827
    ORTHCH:  cpu time    1.6827: real time    1.7251
 BZINTS: Fermi energy:  3.632144;778.000000 electrons
         Band energy:***********;  BLOECHL correction: -0.025286
       DOS:  cpu time    0.0228: real time    0.0228
    CHARGE:  cpu time    2.5491: real time    2.5575
    MIXING:  cpu time    0.0107: real time    0.0108
    --------------------------------------------
      LOOP:  cpu time   49.2982: real time   51.0378

 eigenvalue-minimisations  :  9999
 total energy-change (2. order) : 0.3109055E+02  (-0.1523630E+02)
 number of electron     778.0000076 magnetization     207.2756811
 augmentation part      361.2707353 magnetization     165.0577871

 Broyden mixing:
  rms(total) = 0.16825E+02    rms(broyden)= 0.16825E+02
  rms(prec ) = 0.23083E+02
  weight for this iteration     100.00

 eigenvalues of (default mixing * dielectric matrix)
  average eigenvalue GAMMA=   0.2739
  0.3919  0.1559

 Free energy of the ion-electron system (eV)
  ---------------------------------------------------
  alpha Z        PSCENC =      2281.97981454
  Ewald energy   TEWEN  =    224162.91836502
  -Hartree energ DENC   =   -295657.16977876
  -exchange      EXHF   =         0.00000000
  -V(xc)+E(xc)   XCENC  =      1366.74485100
  PAW double counting   =     70558.30110395   -72429.04340119
  entropy T*S    EENTRO =         0.00000000
  eigenvalues    EBANDS =     -1078.23818190
  atomic energy  EATOM  =     70218.65458108
  Solvation  Ediel_sol  =         0.00000000
  ---------------------------------------------------
  free energy    TOTEN  =      -575.85264627 eV

  energy without entropy =     -575.85264627  energy(sigma->0) =     -575.85264627


--------------------------------------------------------------------------------------------------------




--------------------------------------- Iteration      1(   8)  ---------------------------------------


    POTLOK:  cpu time    0.3617: real time    0.3638
    SETDIJ:  cpu time    0.0299: real time    0.0300
    EDDIAG:  cpu time    9.6401: real time    9.6683
  RMM-DIIS:  cpu time   34.8554: real time   34.9742
    ORTHCH:  cpu time    1.7098: real time    1.7268
 BZINTS: Fermi energy:  3.096735;778.000000 electrons
         Band energy:-605.971579;  BLOECHL correction: -0.021481
       DOS:  cpu time    0.0239: real time    0.0240
    CHARGE:  cpu time    2.5351: real time    2.5419
    MIXING:  cpu time    0.0103: real time    0.0177
    --------------------------------------------
      LOOP:  cpu time   49.1662: real time   49.3465

 eigenvalue-minimisations  : 10001
[...]
      8.942060  5.703472  7.087077            0           0           0  
      3.713945  1.087838  0.825141            0           0           0  
      8.998291  5.665219  0.927996            0           0           0  
      5.067435  3.441468  0.812654            0           0           0  
     11.517273  8.616645  2.892278            0           0           0  
     11.544645  7.199779  4.832406            0           0           0  
     12.758010  6.400910  2.817256            0           0           0  
      8.957703  4.172950  2.778963            0           0           0  
      7.695190  7.923955  6.991031            0           0           0  
      7.731381  7.860956  0.860880            0           0           0  
     10.294496  6.466176  2.809236            0           0           0  
      2.488487  0.262328  4.996902            0           0           0  
      7.672412  3.446372  0.727611            0           0           0  
      5.033028  1.858433  2.892341            0           0           0  
      5.101077  6.389203  2.874891            0           0           0  
      7.636675  0.452821  4.849681            0           0           0  
      8.970953  1.169665  6.983103            0           0           0  
     10.192883  7.903579  6.969263            0           0           0  
      8.971785  1.115905  0.721998            0           0           0  
     10.262339  7.881621  0.764975            0           0           0  
      5.002415  4.913176  4.935221            0           0           0  
     11.502885  2.678871  4.857298            0           0           0  
     14.155813  8.725023  2.820407            0           0           0  
      8.979643  2.618940  4.903500            0           0           0  
      6.305890  2.634134  4.855031            0           0           0  
     11.542241  4.135108  2.790143            0           0           0  
      2.419927  1.879955  2.817345            0           0           0  
     11.543384  5.638735  0.858402            0           0           0  
      6.387432  5.662223  0.891717            0           0           0  
      7.749284  6.435515  2.821853            0           0           0  
      6.361720  4.090624  2.759842            0           0           0  
     10.266180  3.421948  7.060787            0           0           0  
     10.245443  3.417720  0.834008            0           0           0  
     10.269464  0.469889  4.869075            0           0           0  
      8.958072  7.220273  4.930624            0           0           0  
      6.392947  7.229252  4.938737            0           0           0  
      4.999964  0.283003  4.879972            0           0           0  
      5.674202  3.059344 10.776393    -0.056171   -0.078291    0.995347  
 
   2 f  =   24.575863 THz   154.414701 2PiTHz  819.762523 cm-1   101.637636 meV
             X         Y         Z           dx          dy          dz
     12.829431  7.954150  7.000845            0           0           0  
      5.057519  7.984054  6.967447            0           0           0  
      4.923972  3.419518  7.068997            0           0           0  
     14.185973  8.705682  9.394890            0           0           0  
      3.689635  4.197078  9.407934            0           0           0  
      6.345498  8.705874  9.290381            0           0           0  
     11.559396  4.166161  9.451675            0           0           0  
      8.960061  8.708017  9.267746            0           0           0  
     10.262462  1.912523  9.304529            0           0           0  
      2.423524  1.908904  9.303379            0           0           0  
     11.568635  8.694899  9.351722            0           0           0  
     12.865755  6.439796  9.445419            0           0           0  
      5.025193  1.884880  9.627356            0           0           0  
      7.660294  6.445927  9.364340            0           0           0  
      8.969246  4.178859  9.309382            0           0           0  
      5.028751  6.444981  9.408683            0           0           0  
      7.659616  1.898940  9.273785            0           0           0  
      7.685182  3.396995  6.991047            0           0           0  
      6.227736  1.122034  6.963635            0           0           0  
      6.360598  1.118418  0.836434            0           0           0  
      3.676042  4.170544  2.797305            0           0           0  
      1.154221  1.237341  6.914278            0           0           0  
      1.127025  1.175942  0.698123            0           0           0  
      6.373624  8.680686  2.887431            0           0           0  
      6.353059  4.189941  9.648230            0           0           0  
      7.601892  4.941036  4.811584            0           0           0  
     10.243846  6.444598  9.340221            0           0           0  
     14.137687  7.160553  4.867965            0           0           0  
     11.554681  5.626987  7.030846            0           0           0  
      6.352222  5.695557  7.044413            0           0           0  
      3.597724  2.553772  4.958234            0           0           0  
     10.267537  4.969746  4.851478            0           0           0  
      3.717935  5.693865  7.173242            0           0           0  
     12.852282  7.807618  0.888681            0           0           0  
      5.114080  7.849718  0.793090            0           0           0  
      3.770227  5.682576  0.769145            0           0           0  
      7.709702  1.997558  2.815724            0           0           0  
      8.995271  8.651687  2.845548            0           0           0  
      2.379460  3.465879  7.146320            0           0           0  
      2.337773  3.464190  0.785560            0           0           0  
     10.246202  1.952172  2.805117            0           0           0  
     12.841951  4.937451  4.921441            0           0           0  
      3.698899  1.042523  7.074321            0           0           0  
      8.942060  5.703472  7.087077            0           0           0  
      3.713945  1.087838  0.825141            0           0           0  
      8.998291  5.665219  0.927996            0           0           0  
      5.067435  3.441468  0.812654            0           0           0  
     11.517273  8.616645  2.892278            0           0           0  
     11.544645  7.199779  4.832406            0           0           0  
     12.758010  6.400910  2.817256            0           0           0  
      8.957703  4.172950  2.778963            0           0           0  
      7.695190  7.923955  6.991031            0           0           0  
      7.731381  7.860956  0.860880            0           0           0  
     10.294496  6.466176  2.809236            0           0           0  
      2.488487  0.262328  4.996902            0           0           0  
      7.672412  3.446372  0.727611            0           0           0  
      5.033028  1.858433  2.892341            0           0           0  
      5.101077  6.389203  2.874891            0           0           0  
      7.636675  0.452821  4.849681            0           0           0  
      8.970953  1.169665  6.983103            0           0           0  
     10.192883  7.903579  6.969263            0           0           0  
      8.971785  1.115905  0.721998            0           0           0  
     10.262339  7.881621  0.764975            0           0           0  
      5.002415  4.913176  4.935221            0           0           0  
     11.502885  2.678871  4.857298            0           0           0  
     14.155813  8.725023  2.820407            0           0           0  
      8.979643  2.618940  4.903500            0           0           0  
      6.305890  2.634134  4.855031            0           0           0  
     11.542241  4.135108  2.790143            0           0           0  
      2.419927  1.879955  2.817345            0           0           0  
     11.543384  5.638735  0.858402            0           0           0  
      6.387432  5.662223  0.891717            0           0           0  
      7.749284  6.435515  2.821853            0           0           0  
      6.361720  4.090624  2.759842            0           0           0  
     10.266180  3.421948  7.060787            0           0           0  
     10.245443  3.417720  0.834008            0           0           0  
     10.269464  0.469889  4.869075            0           0           0  
      8.958072  7.220273  4.930624            0           0           0  
      6.392947  7.229252  4.938737            0           0           0  
      4.999964  0.283003  4.879972            0           0           0  
      5.674202  3.059344 10.776393     0.477028    0.873669    0.095641  
 
   3 f  =   11.473413 THz    72.089583 2PiTHz  382.711866 cm-1    47.450241 meV
             X         Y         Z           dx          dy          dz
     12.829431  7.954150  7.000845            0           0           0  
      5.057519  7.984054  6.967447            0           0           0  
      4.923972  3.419518  7.068997            0           0           0  
     14.185973  8.705682  9.394890            0           0           0  
      3.689635  4.197078  9.407934            0           0           0  
      6.345498  8.705874  9.290381            0           0           0  
     11.559396  4.166161  9.451675            0           0           0  
      8.960061  8.708017  9.267746            0           0           0  
     10.262462  1.912523  9.304529            0           0           0  
      2.423524  1.908904  9.303379            0           0           0  
     11.568635  8.694899  9.351722            0           0           0  
     12.865755  6.439796  9.445419            0           0           0  
      5.025193  1.884880  9.627356            0           0           0  
      7.660294  6.445927  9.364340            0           0           0  
      8.969246  4.178859  9.309382            0           0           0  
      5.028751  6.444981  9.408683            0           0           0  
      7.659616  1.898940  9.273785            0           0           0  
      7.685182  3.396995  6.991047            0           0           0  
      6.227736  1.122034  6.963635            0           0           0  
      6.360598  1.118418  0.836434            0           0           0  
      3.676042  4.170544  2.797305            0           0           0  
      1.154221  1.237341  6.914278            0           0           0  
      1.127025  1.175942  0.698123            0           0           0  
      6.373624  8.680686  2.887431            0           0           0  
      6.353059  4.189941  9.648230            0           0           0  
      7.601892  4.941036  4.811584            0           0           0  
     10.243846  6.444598  9.340221            0           0           0  
     14.137687  7.160553  4.867965            0           0           0  
     11.554681  5.626987  7.030846            0           0           0  
      6.352222  5.695557  7.044413            0           0           0  
      3.597724  2.553772  4.958234            0           0           0  
     10.267537  4.969746  4.851478            0           0           0  
      3.717935  5.693865  7.173242            0           0           0  
     12.852282  7.807618  0.888681            0           0           0  
      5.114080  7.849718  0.793090            0           0           0  
      3.770227  5.682576  0.769145            0           0           0  
      7.709702  1.997558  2.815724            0           0           0  
      8.995271  8.651687  2.845548            0           0           0  
      2.379460  3.465879  7.146320            0           0           0  
      2.337773  3.464190  0.785560            0           0           0  
     10.246202  1.952172  2.805117            0           0           0  
     12.841951  4.937451  4.921441            0           0           0  
      3.698899  1.042523  7.074321            0           0           0  
      8.942060  5.703472  7.087077            0           0           0  
      3.713945  1.087838  0.825141            0           0           0  
      8.998291  5.665219  0.927996            0           0           0  
      5.067435  3.441468  0.812654            0           0           0  
     11.517273  8.616645  2.892278            0           0           0  
     11.544645  7.199779  4.832406            0           0           0  
     12.758010  6.400910  2.817256            0           0           0  
      8.957703  4.172950  2.778963            0           0           0  
      7.695190  7.923955  6.991031            0           0           0  
      7.731381  7.860956  0.860880            0           0           0  
     10.294496  6.466176  2.809236            0           0           0  
      2.488487  0.262328  4.996902            0           0           0  
      7.672412  3.446372  0.727611            0           0           0  
      5.033028  1.858433  2.892341            0           0           0  
      5.101077  6.389203  2.874891            0           0           0  
      7.636675  0.452821  4.849681            0           0           0  
      8.970953  1.169665  6.983103            0           0           0  
     10.192883  7.903579  6.969263            0           0           0  
      8.971785  1.115905  0.721998            0           0           0  
     10.262339  7.881621  0.764975            0           0           0  
      5.002415  4.913176  4.935221            0           0           0  
     11.502885  2.678871  4.857298            0           0           0  
     14.155813  8.725023  2.820407            0           0           0  
      8.979643  2.618940  4.903500            0           0           0  
      6.305890  2.634134  4.855031            0           0           0  
     11.542241  4.135108  2.790143            0           0           0  
      2.419927  1.879955  2.817345            0           0           0  
     11.543384  5.638735  0.858402            0           0           0  
      6.387432  5.662223  0.891717            0           0           0  
      7.749284  6.435515  2.821853            0           0           0  
      6.361720  4.090624  2.759842            0           0           0  
     10.266180  3.421948  7.060787            0           0           0  
     10.245443  3.417720  0.834008            0           0           0  
     10.269464  0.469889  4.869075            0           0           0  
      8.958072  7.220273  4.930624            0           0           0  
      6.392947  7.229252  4.938737            0           0           0  
      4.999964  0.283003  4.879972            0           0           0  
      5.674202  3.059344 10.776393     0.877091   -0.480181    0.011728  
 
 Finite differences POTIM=  1.500000000000000E-002
  LATTYP: Found a hexagonal cell.
 ALAT       =    10.4600000381
 C/A-ratio  =     2.1032504704
  
  Lattice vectors:
  
 A1 = (   5.2300000190,  -9.0586257566,   0.0000000000)
 A2 = ( -10.4600000381,   0.0000000000,   0.0000000000)
 A3 = (   0.0000000000,   0.0000000000, -22.0000000000)


Analysis of symmetry for initial positions (statically):
=====================================================================
 Subroutine PRICEL returns:
 Original cell was already a primitive cell.
 

 Routine SETGRP: Setting up the symmetry group for a 
 hexagonal supercell.


 Subroutine GETGRP returns: Found  1 space group operations
 (whereof  1 operations were pure point group operations)
 out of a pool of 24 trial point group operations.


The static configuration has the point symmetry C_1 .


Analysis of symmetry for dynamics (positions and initial velocities):
=====================================================================
 Subroutine PRICEL returns:
 Original cell was already a primitive cell.
 

 Routine SETGRP: Setting up the symmetry group for a 
 hexagonal supercell.


 Subroutine GETGRP returns: Found  1 space group operations
 (whereof  1 operations were pure point group operations)
 out of a pool of 24 trial point group operations.


The dynamic configuration has the point symmetry C_1 .


Analysis of constrained symmetry for selective dynamics:
=====================================================================
 Subroutine PRICEL returns:
 Original cell was already a primitive cell.
 

 Routine SETGRP: Setting up the symmetry group for a 
 hexagonal supercell.


 Subroutine GETGRP returns: Found  1 space group operations
 (whereof  1 operations were pure point group operations)
 out of a pool of 24 trial point group operations.


The constrained configuration has the point symmetry C_1 .


Analysis of structural, dynamic, and magnetic symmetry:
=====================================================================
 Subroutine PRICEL returns:
 Original cell was already a primitive cell.
 

 Routine SETGRP: Setting up the symmetry group for a 
 hexagonal supercell.


 Subroutine GETGRP returns: Found  1 space group operations
 (whereof  1 operations were pure point group operations)
 out of a pool of 24 trial point group operations.


The magnetic configuration has the point symmetry C_1 .


 Subroutine INISYM returns: Found  1 space group operations
 (whereof  1 operations are pure point group operations),
 and found     1 'primitive' translations

 
 KPOINTS: mesh auto                               

Automatic generation of k-mesh.
Space group operators:
 irot       det(A)        alpha          n_x          n_y          n_z        tau_x        tau_y        tau_z
    1     1.000000     0.000000     1.000000     0.000000     0.000000     0.000000     0.000000     0.000000
 
 Subroutine IBZKPT returns following result:
 ===========================================
 
 Found      4 irreducible k-points:
 
 Following reciprocal coordinates:
            Coordinates               Weight
  0.000000  0.000000  0.000000      1.000000
  0.500000 -0.000000  0.000000      1.000000
  0.000000  0.500000  0.000000      1.000000
  0.500000  0.500000  0.000000      1.000000
 
 Following cartesian coordinates:
            Coordinates               Weight
  0.000000  0.000000  0.000000      1.000000
  0.047801 -0.027598  0.000000      1.000000
  0.000000  0.055196  0.000000      1.000000
  0.047801  0.027598  0.000000      1.000000
 
 TETIRR: Found     12 inequivalent tetrahedra from       24
     LOOP+:  cpu time 1379.7343: real time 1386.9769
    4ORBIT:  cpu time    0.0000: real time    0.0000
 BZINTS: Fermi energy:  2.171750;778.000000 electrons
         Band energy:-613.213510;  BLOECHL correction: -0.224412

 total amount of memory used by VASP MPI-rank0   349219. kBytes
=======================================================================

   base      :      30000. kBytes
   nonlr-proj:      90974. kBytes
   fftplans  :      11305. kBytes
   grid      :     110428. kBytes
   one-center:       2519. kBytes
   wavefun   :     103993. kBytes
 
  
  
 General timing and accounting informations for this job:
 ========================================================
  
                  Total CPU time used (sec):     9483.589
                            User time (sec):     9430.556
                          System time (sec):       53.033
                         Elapsed time (sec):     9537.992
  
                   Maximum memory used (kb):      660232.
                   Average memory used (kb):           0.
  
                          Minor page faults:      9955399
                          Major page faults:          144
                 Voluntary context switches:         8430
