 vasp.5.4.4.18Apr17-6-g9f103f2a35 (build Oct 25 2019 11:13:22) complex          
  
 executed on             LinuxIFC date 2022.02.13  03:33:08
 running on   48 total cores
 distrk:  each k-point on   48 cores,    1 groups
 distr:  one band on NCORES_PER_BAND=   1 cores,   48 groups


--------------------------------------------------------------------------------------------------------


 INCAR:
 POTCAR:    PAW_PBE Pt 04Feb2005                  
 POTCAR:    PAW_PBE Co 02Aug2007                  
 POTCAR:    PAW_PBE Ni 02Aug2007                  
 POTCAR:    PAW_PBE H 15Jun2001                   

 ----------------------------------------------------------------------------- 
|                                                                             |
|           W    W    AA    RRRRR   N    N  II  N    N   GGGG   !!!           |
|           W    W   A  A   R    R  NN   N  II  NN   N  G    G  !!!           |
|           W    W  A    A  R    R  N N  N  II  N N  N  G       !!!           |
|           W WW W  AAAAAA  RRRRR   N  N N  II  N  N N  G  GGG   !            |
|           WW  WW  A    A  R   R   N   NN  II  N   NN  G    G                |
|           W    W  A    A  R    R  N    N  II  N    N   GGGG   !!!           |
|                                                                             |
|      For optimal performance we recommend to set                            |
|        NCORE= 4 - approx SQRT( number of cores)                             |
|      NCORE specifies how many cores store one orbital (NPAR=cpu/NCORE).     |
|      This setting can  greatly improve the performance of VASP for DFT.     |
|      The default,   NCORE=1            might be grossly inefficient         |
|      on modern multi-core architectures or massively parallel machines.     |
|      Do your own testing !!!!                                               |
|      Unfortunately you need to use the default for GW and RPA calculations. |
|      (for HF NCORE is supported but not extensively tested yet)             |
|                                                                             |
 ----------------------------------------------------------------------------- 

 POTCAR:    PAW_PBE Pt 04Feb2005                  
   VRHFIN =Pt: s1d9                                                             
   LEXCH  = PE                                                                  
   EATOM  =   729.1176 eV,   53.5886 Ry                                         
                                                                                
   TITEL  = PAW_PBE Pt 04Feb2005                                                
   LULTRA =        F    use ultrasoft PP ?                                      
   IUNSCR =        1    unscreen: 0-lin 1-nonlin 2-no                           
   RPACOR =    2.330    partial core radius                                     
   POMASS =  195.080; ZVAL   =   10.000    mass and valenz                      
   RCORE  =    2.600    outmost cutoff radius                                   
   RWIGS  =    2.750; RWIGS  =    1.455    wigner-seitz radius (au A)           
   ENMAX  =  230.283; ENMIN  =  172.712 eV                                      
   ICORE  =        3    local potential                                         
   LCOR   =        T    correct aug charges                                     
   LPAW   =        T    paw PP                                                  
   EAUG   =  358.966                                                            
   DEXC   =    0.000                                                            
   RMAX   =    2.658    core radius for proj-oper                               
   RAUG   =    1.300    factor for augmentation sphere                          
   RDEP   =    2.761    radius for radial grids                                 
   RDEPT  =    2.203    core radius for aug-charge                              
                                                                                
   Atomic configuration                                                         
   16 entries                                                                   
     n  l   j            E        occ.                                          
     1  0  0.50    -78401.1885   2.0000                                         
     2  0  0.50    -13770.7750   2.0000                                         
     2  1  1.50    -11931.0468   6.0000                                         
     3  0  0.50     -3234.7234   2.0000                                         
     3  1  1.50     -2699.2216   6.0000                                         
     3  2  2.50     -2119.5714  10.0000                                         
     4  0  0.50      -695.1528   2.0000                                         
     4  1  1.50      -519.6034   6.0000                                         
     4  2  2.50      -306.6786  10.0000                                         
     4  3  3.50       -70.1041  14.0000                                         
     5  0  0.50      -101.7747   2.0000                                         
     5  1  1.50       -55.9873   6.0000                                         
     5  2  2.50        -6.1423   9.0000                                         
     6  0  0.50        -5.6573   1.0000                                         
     6  1  1.50        -6.8029   0.0000                                         
     5  3  2.50        -1.3606   0.0000                                         
   Description                                                                  
     l       E           TYP  RCUT    TYP  RCUT                                 
     2     -6.1423404     23  2.500                                             
     2     -7.5029230     23  2.500                                             
     0     -5.6573207     23  2.500                                             
     0      0.7416693     23  2.500                                             
     1     -2.7211652     23  2.600                                             
     1     20.4087390     23  2.600                                             
     3     -1.3605826     23  2.500                                             
  local pseudopotential read in
  partial core-charges read in
  partial kinetic energy density read in
  atomic valenz-charges read in
  non local Contribution for L=           2  read in
    real space projection operators read in
  non local Contribution for L=           2  read in
    real space projection operators read in
  non local Contribution for L=           0  read in
    real space projection operators read in
  non local Contribution for L=           0  read in
    real space projection operators read in
  non local Contribution for L=           1  read in
    real space projection operators read in
  non local Contribution for L=           1  read in
    real space projection operators read in
    PAW grid and wavefunctions read in
 
   number of l-projection  operators is LMAX  =           6
   number of lm-projection operators is LMMAX =          18
 
 POTCAR:    PAW_PBE Co 02Aug2007                  
   VRHFIN =Co: d8 s1                                                            
   LEXCH  = PE                                                                  
   EATOM  =   813.3670 eV,   59.7808 Ry                                         
                                                                                
   TITEL  = PAW_PBE Co 02Aug2007                                                
   LULTRA =        F    use ultrasoft PP ?                                      
   IUNSCR =        1    unscreen: 0-lin 1-nonlin 2-no                           
   RPACOR =    2.000    partial core radius                                     
   POMASS =   58.933; ZVAL   =    9.000    mass and valenz                      
   RCORE  =    2.300    outmost cutoff radius                                   
   RWIGS  =    2.460; RWIGS  =    1.302    wigner-seitz radius (au A)           
   ENMAX  =  267.968; ENMIN  =  200.976 eV                                      
   RCLOC  =    1.203    cutoff for local pot                                    
   LCOR   =        T    correct aug charges                                     
   LPAW   =        T    paw PP                                                  
   EAUG   =  477.818                                                            
   DEXC   =    0.000                                                            
   RMAX   =    2.360    core radius for proj-oper                               
   RAUG   =    1.300    factor for augmentation sphere                          
   RDEP   =    2.393    radius for radial grids                                 
   RDEPT  =    1.864    core radius for aug-charge                              
                                                                                
   Atomic configuration                                                         
    9 entries                                                                   
     n  l   j            E        occ.                                          
     1  0  0.50     -7587.6674   2.0000                                         
     2  0  0.50      -893.6084   2.0000                                         
     2  1  1.50      -764.5805   6.0000                                         
     3  0  0.50       -97.5973   2.0000                                         
     3  1  1.50       -60.9648   6.0000                                         
     3  2  2.50        -4.2382   8.0000                                         
     4  0  0.50        -4.3746   1.0000                                         
     4  1  1.50        -4.0817   0.0000                                         
     4  3  2.50        -1.3606   0.0000                                         
   Description                                                                  
     l       E           TYP  RCUT    TYP  RCUT                                 
     2     -4.2382362     23  2.300                                             
     2     -5.5988188     23  2.300                                             
     0     -4.3745797     23  2.300                                             
     0      5.7660125     23  2.300                                             
     1     -2.7211652     23  2.300                                             
     1     16.9860234     23  2.300                                             
  local pseudopotential read in
  partial core-charges read in
  partial kinetic energy density read in
  atomic valenz-charges read in
  non local Contribution for L=           2  read in
    real space projection operators read in
  non local Contribution for L=           2  read in
    real space projection operators read in
  non local Contribution for L=           0  read in
    real space projection operators read in
  non local Contribution for L=           0  read in
    real space projection operators read in
  non local Contribution for L=           1  read in
    real space projection operators read in
  non local Contribution for L=           1  read in
    real space projection operators read in
    PAW grid and wavefunctions read in
 
   number of l-projection  operators is LMAX  =           6
   number of lm-projection operators is LMMAX =          18
 
 POTCAR:    PAW_PBE Ni 02Aug2007                  
   VRHFIN =Ni:                                                                  
   LEXCH  = PE                                                                  
   EATOM  =  1077.6739 eV,   79.2068 Ry                                         
                                                                                
   TITEL  = PAW_PBE Ni 02Aug2007                                                
   LULTRA =        F    use ultrasoft PP ?                                      
   IUNSCR =        1    unscreen: 0-lin 1-nonlin 2-no                           
   RPACOR =    2.000    partial core radius                                     
   POMASS =   58.690; ZVAL   =   10.000    mass and valenz                      
   RCORE  =    2.300    outmost cutoff radius                                   
   RWIGS  =    2.430; RWIGS  =    1.286    wigner-seitz radius (au A)           
   ENMAX  =  269.532; ENMIN  =  202.149 eV                                      
   RCLOC  =    1.201    cutoff for local pot                                    
   LCOR   =        T    correct aug charges                                     
   LPAW   =        T    paw PP                                                  
   EAUG   =  544.565                                                            
   DEXC   =    0.000                                                            
   RMAX   =    2.357    core radius for proj-oper                               
   RAUG   =    1.300    factor for augmentation sphere                          
   RDEP   =    2.390    radius for radial grids                                 
   RDEPT  =    1.838    core radius for aug-charge                              
                                                                                
   Atomic configuration                                                         
    9 entries                                                                   
     n  l   j            E        occ.                                          
     1  0  0.50     -8206.4253   2.0000                                         
     2  0  0.50      -976.1748   2.0000                                         
     2  1  1.50      -839.0571   6.0000                                         
     3  0  0.50      -105.9991   2.0000                                         
     3  1  1.50       -66.4603   6.0000                                         
     3  2  2.50        -4.6458   9.0000                                         
     4  0  0.50        -4.4926   1.0000                                         
     4  1  1.50        -4.0817   0.0000                                         
     4  3  2.50        -1.3606   0.0000                                         
   Description                                                                  
     l       E           TYP  RCUT    TYP  RCUT                                 
     2     -4.6457903     23  2.300                                             
     2     -6.0063729     23  2.300                                             
     0     -4.4925590     23  2.300                                             
     0      5.0102601     23  2.300                                             
     1     -2.7211652     23  2.300                                             
     1     16.5183231     23  2.300                                             
  local pseudopotential read in
  partial core-charges read in
  partial kinetic energy density read in
  atomic valenz-charges read in
  non local Contribution for L=           2  read in
    real space projection operators read in
  non local Contribution for L=           2  read in
    real space projection operators read in
  non local Contribution for L=           0  read in
    real space projection operators read in
  non local Contribution for L=           0  read in
    real space projection operators read in
  non local Contribution for L=           1  read in
    real space projection operators read in
  non local Contribution for L=           1  read in
    real space projection operators read in
    PAW grid and wavefunctions read in
 
   number of l-projection  operators is LMAX  =           6
   number of lm-projection operators is LMMAX =          18
 
 POTCAR:    PAW_PBE H 15Jun2001                   
   VRHFIN =H: ultrasoft test                                                    
   LEXCH  = PE                                                                  
   EATOM  =    12.4884 eV,    0.9179 Ry                                         
                                                                                
   TITEL  = PAW_PBE H 15Jun2001                                                 
   LULTRA =        F    use ultrasoft PP ?                                      
   IUNSCR =        0    unscreen: 0-lin 1-nonlin 2-no                           
   RPACOR =    0.000    partial core radius                                     
   POMASS =    1.000; ZVAL   =    1.000    mass and valenz                      
   RCORE  =    1.100    outmost cutoff radius                                   
   RWIGS  =    0.700; RWIGS  =    0.370    wigner-seitz radius (au A)           
   ENMAX  =  250.000; ENMIN  =  200.000 eV                                      
   RCLOC  =    0.701    cutoff for local pot                                    
   LCOR   =        T    correct aug charges                                     
   LPAW   =        T    paw PP                                                  
   EAUG   =  400.000                                                            
   RMAX   =    1.123    core radius for proj-oper                               
   RAUG   =    1.200    factor for augmentation sphere                          
   RDEP   =    1.112    radius for radial grids                                 
   RDEPT  =    0.926    core radius for aug-charge                              
                                                                                
   Atomic configuration                                                         
    2 entries                                                                   
     n  l   j            E        occ.                                          
     1  0  0.50        -6.4927   1.0000                                         
     2  1  0.50        -3.4015   0.0000                                         
   Description                                                                  
     l       E           TYP  RCUT    TYP  RCUT                                 
     0     -6.4927494     23  1.100                                             
     0      6.8029130     23  1.100                                             
     1     -4.0817478     23  1.100                                             
  local pseudopotential read in
  atomic valenz-charges read in
  non local Contribution for L=           0  read in
    real space projection operators read in
  non local Contribution for L=           0  read in
    real space projection operators read in
  non local Contribution for L=           1  read in
    real space projection operators read in
    PAW grid and wavefunctions read in
 
   number of l-projection  operators is LMAX  =           3
   number of lm-projection operators is LMMAX =           5
 
 Optimization of the real space projectors (new method)

 maximal supplied QI-value         = 14.36
 optimisation between [QCUT,QGAM] = [ 11.92, 23.98] = [ 39.79,161.09] Ry 
 Optimized for a Real-space Cutoff    1.49 Angstroem

   l    n(q)    QCUT    max X(q) W(low)/X(q) W(high)/X(q)  e(spline) 
   2     10    11.920    66.195    0.79E-04    0.18E-03    0.24E-06
   2     10    11.920    64.643    0.81E-04    0.19E-03    0.24E-06
   0     11    11.920    95.520    0.28E-04    0.54E-04    0.18E-06
   0     11    11.920    63.403    0.27E-04    0.52E-04    0.17E-06
   1     10    11.920    19.961    0.18E-04    0.11E-03    0.23E-06
   1     10    11.920    13.289    0.25E-04    0.87E-04    0.19E-06
 Optimization of the real space projectors (new method)

 maximal supplied QI-value         = 16.25
 optimisation between [QCUT,QGAM] = [ 11.86, 23.89] = [ 39.41,159.82] Ry 
 Optimized for a Real-space Cutoff    1.33 Angstroem

   l    n(q)    QCUT    max X(q) W(low)/X(q) W(high)/X(q)  e(spline) 
   2      9    11.864    65.824    0.22E-03    0.53E-03    0.26E-06
   2      9    11.864    61.429    0.22E-03    0.53E-03    0.26E-06
   0      9    11.864    56.174    0.21E-03    0.32E-04    0.15E-06
   0      9    11.864    31.263    0.19E-03    0.30E-04    0.14E-06
   1      9    11.864    19.828    0.63E-04    0.30E-03    0.16E-06
   1      9    11.864    15.139    0.49E-04    0.25E-03    0.13E-06
 Optimization of the real space projectors (new method)

 maximal supplied QI-value         = 16.25
 optimisation between [QCUT,QGAM] = [ 11.86, 23.89] = [ 39.41,159.82] Ry 
 Optimized for a Real-space Cutoff    1.33 Angstroem

   l    n(q)    QCUT    max X(q) W(low)/X(q) W(high)/X(q)  e(spline) 
   2      9    11.864    60.317    0.21E-03    0.51E-03    0.25E-06
   2      9    11.864    55.921    0.21E-03    0.51E-03    0.26E-06
   0      9    11.864    51.690    0.22E-03    0.30E-04    0.17E-06
   0      9    11.864    30.015    0.20E-03    0.28E-04    0.15E-06
   1      9    11.864    18.849    0.76E-04    0.33E-03    0.17E-06
   1      9    11.864    14.624    0.60E-04    0.28E-03    0.15E-06
 Optimization of the real space projectors (new method)

 maximal supplied QI-value         = 34.20
 optimisation between [QCUT,QGAM] = [ 11.97, 23.94] = [ 40.13,160.53] Ry 
 Optimized for a Real-space Cutoff    1.18 Angstroem

   l    n(q)    QCUT    max X(q) W(low)/X(q) W(high)/X(q)  e(spline) 
   0      8    11.971    19.460    0.15E-03    0.31E-03    0.25E-06
   0      8    11.971    12.209    0.13E-03    0.29E-03    0.25E-06
   1      8    11.971     4.655    0.22E-03    0.24E-03    0.21E-06
  PAW_PBE Pt 04Feb2005                  :
 energy of atom  1       EATOM= -729.1176
 kinetic energy error for atom=    0.0021 (will be added to EATOM!!)
  PAW_PBE Co 02Aug2007                  :
 energy of atom  2       EATOM= -813.3670
 kinetic energy error for atom=    0.0026 (will be added to EATOM!!)
  PAW_PBE Ni 02Aug2007                  :
 energy of atom  3       EATOM=-1077.6739
 kinetic energy error for atom=    0.0027 (will be added to EATOM!!)
  PAW_PBE H 15Jun2001                   :
 energy of atom  4       EATOM=  -12.4884
 kinetic energy error for atom=    0.0008 (will be added to EATOM!!)
 
 
 POSCAR: 11.26                                   
  positions in cartesian coordinates
  No initial velocities read in
 exchange correlation table for  LEXCH =        8
   RHO(1)=    0.500       N(1)  =     2000
   RHO(2)=  100.500       N(2)  =     4000
 


--------------------------------------------------------------------------------------------------------


 ion  position               nearest neighbor table
   1  0.787  0.881  0.302-  49 2.48  59 2.56  60 2.65  28 2.72   2 2.74  29 2.75   4 2.76  19 2.78
                            12 2.85  61 2.86  11 2.89  33 2.97
   2  0.031  0.880  0.292-  79 2.49  77 2.55  60 2.72   1 2.74  28 2.74   4 2.79   6 2.85  16 2.90
                            30 2.92  33 3.01  22 3.16  52 3.28
   3  0.276  0.362  0.311-  64 2.54  68 2.62  31 2.62  39 2.67  33 2.70   5 2.71  13 2.74  30 2.75
                            25 2.78  43 2.80  19 2.80  18 2.87
   4  0.881  0.963  0.400-  81 1.87  60 2.71   6 2.72  16 2.74   9 2.74   1 2.76   2 2.79  17 2.83
                            12 2.85  11 2.97
   5  0.113  0.468  0.410-  39 2.60  33 2.68  12 2.71   3 2.71  16 2.76   7 2.78  10 2.78  25 2.83
                            13 2.94
   6  0.130  0.950  0.397-  52 2.58  22 2.71   4 2.72  16 2.76  14 2.77   8 2.78   2 2.85  10 2.96
                             9 2.97
   7  0.871  0.458  0.412-  75 2.55  39 2.58   9 2.77   5 2.78  27 2.79  10 2.80  29 2.81  15 2.85
                            12 2.89
   8  0.373  0.955  0.415-  52 2.54  43 2.54  61 2.70   6 2.78  13 2.79  11 2.79  27 2.79  10 2.85
                            14 2.88
   9  0.866  0.215  0.398-  75 2.60  22 2.67   4 2.74  15 2.76  17 2.77   7 2.77  60 2.80  10 2.92
                             6 2.97
  10  0.125  0.214  0.413-  22 2.63  43 2.71  13 2.71  39 2.76   5 2.78   7 2.80   8 2.85   9 2.92
                             6 2.96
  11  0.623  0.952  0.412-  81 1.88  61 2.64  27 2.73  19 2.75  12 2.76   8 2.79  13 2.82  17 2.88
                             1 2.89   4 2.97
  12  0.875  0.713  0.408-  29 2.66  16 2.71   5 2.71  11 2.76  33 2.81  27 2.84   4 2.85   1 2.85
                             7 2.89
  13  0.372  0.204  0.414-  43 2.67  10 2.71   3 2.74  19 2.75   8 2.79  25 2.79  11 2.82  17 2.86
                             5 2.94
  14  0.374  0.700  0.400-  52 2.52  44 2.55  15 2.72   6 2.77  25 2.79  16 2.82  30 2.84   8 2.88
                            27 2.88
  15  0.618  0.459  0.399-  75 2.54  44 2.60  14 2.72   9 2.76  17 2.79  25 2.79   7 2.85  27 2.85
                            18 2.87
  16  0.117  0.711  0.401-  30 2.66  12 2.71  33 2.73   4 2.74   6 2.76   5 2.76  14 2.82  25 2.90
                             2 2.90
  17  0.624  0.209  0.406-  81 1.83  18 2.69   9 2.77  25 2.77  15 2.79  19 2.82   4 2.83  60 2.85
                            13 2.86  11 2.88
  18  0.537  0.347  0.300-  67 2.46  26 2.59  68 2.65  60 2.68  19 2.68  17 2.69  25 2.83   3 2.87
                            15 2.87  30 2.94  75 3.20
  19  0.527  0.114  0.309-  59 2.48  80 2.52  68 2.58  43 2.61  61 2.64  18 2.68  11 2.75  13 2.75
                             1 2.78   3 2.80  17 2.82  60 2.92
  20  0.546  0.126  0.067-  48 2.50  57 2.52  47 2.52  62 2.53  37 2.60  56 2.66  34 2.70  63 2.89

  21  0.118  0.408  0.119-  47 2.44  40 2.48  36 2.49  69 2.60  57 2.64  42 2.67  64 2.70  70 2.72
                            31 2.74  50 3.30
  22  0.054  0.147  0.310-  77 2.42  55 2.51  65 2.51  43 2.58  10 2.63  39 2.63   9 2.67   6 2.71
                            75 2.92  52 3.04  31 3.05   2 3.16  60 3.22
  23  0.009  0.102  0.049-  40 2.49  62 2.55  70 2.57  41 2.59  45 2.66  76 2.69  24 2.70  35 2.74
                            53 3.07
  24  0.138  0.927  0.142-  79 2.46  35 2.50  77 2.54  58 2.54  53 2.56  55 2.59  38 2.59  73 2.64
                            70 2.65  23 2.70  66 2.83
  25  0.373  0.452  0.406-  30 2.75  17 2.77   3 2.78  15 2.79  14 2.79  13 2.79  18 2.83   5 2.83
                            16 2.90
  26  0.480  0.554  0.230-  74 2.50  44 2.51  73 2.52  51 2.59  18 2.59  79 2.60  30 2.62  78 2.62
                            32 2.66  67 2.70
  27  0.625  0.708  0.413-  44 2.49  61 2.69  11 2.73   7 2.79   8 2.79  29 2.81  12 2.84  15 2.85
                            14 2.88
  28  0.953  0.759  0.204-  58 2.53  50 2.61  66 2.61  42 2.62  36 2.63  33 2.66   1 2.72   2 2.74
                            64 2.80  49 2.88  34 3.22  59 3.23  35 3.30
  29  0.796  0.632  0.311-  39 2.60  49 2.60  32 2.61  75 2.62  42 2.63  33 2.63  44 2.66  12 2.66
                             1 2.75   7 2.81  27 2.81  61 2.82
  30  0.274  0.607  0.302-  79 2.43  33 2.60  64 2.61  26 2.62  16 2.66  25 2.75   3 2.75  14 2.84
                             2 2.92  18 2.94  52 3.30
  31  0.187  0.262  0.225-  70 2.52  57 2.57  65 2.58  55 2.59   3 2.62  43 2.62  39 2.63  42 2.72
                            80 2.73  21 2.74  68 2.76  64 2.79  22 3.05
  32  0.711  0.561  0.214-  69 2.53  51 2.56  54 2.61  29 2.61  49 2.62  26 2.66  65 2.66  50 2.66
                            75 2.68  42 2.68  78 2.71  67 2.73  44 2.74
  33  0.042  0.608  0.305-  42 2.46  64 2.50  39 2.51  30 2.60  29 2.63  28 2.66   5 2.68   3 2.70
                            16 2.73  12 2.81   1 2.97   2 3.01
  34  0.782  0.884  0.080-  48 2.38  35 2.38  50 2.53  66 2.54  36 2.55  62 2.67  20 2.70  28 3.22

  35  0.002  0.866  0.072-  36 2.37  34 2.38  66 2.43  24 2.50  58 2.60  23 2.74  62 2.75  28 3.30

  36  0.006  0.657  0.094-  50 2.33  35 2.37  58 2.38  21 2.49  34 2.55  28 2.63
  37  0.628  0.234  0.150-  41 2.41  56 2.42  59 2.43  67 2.44  62 2.45  68 2.50  51 2.50  74 2.51
                            20 2.60  66 2.60
  38  0.361  0.942  0.135-  53 2.40  45 2.41  63 2.42  57 2.43  48 2.45  55 2.45  54 2.46  78 2.48
                            80 2.54  73 2.59  24 2.59  70 2.83
  39  0.023  0.395  0.316-  42 2.47  33 2.51  65 2.58  75 2.58   7 2.58  29 2.60   5 2.60  31 2.63
                            22 2.63   3 2.67  10 2.76
  40  0.013  0.321  0.044-  69 2.32  76 2.45  21 2.48  23 2.49  70 2.51  45 2.63  71 2.93
  41  0.844  0.228  0.139-  67 2.35  76 2.37  77 2.38  37 2.41  62 2.44  51 2.48  69 2.48  66 2.49
                            65 2.58  23 2.59  70 2.61
  42  0.967  0.520  0.219-  33 2.46  39 2.47  50 2.48  64 2.48  65 2.50  28 2.62  29 2.63  69 2.65
                            21 2.67  32 2.68  31 2.72
  43  0.303  0.100  0.319-  52 2.45  80 2.47  55 2.52   8 2.54  22 2.58  61 2.58  19 2.61  31 2.62
                            13 2.67  10 2.71   3 2.80
  44  0.553  0.648  0.317-  61 2.46  78 2.47  27 2.49  26 2.51  14 2.55  52 2.56  15 2.60  29 2.66
                            75 2.71  32 2.74
  45  0.251  0.091  0.049-  38 2.41  57 2.45  53 2.48  70 2.50  63 2.54  40 2.63  23 2.66
  46  0.529  0.612  0.047-  54 2.37  73 2.44  51 2.45  71 2.47  72 2.53  53 2.63  56 2.72  76 2.87
                            63 3.07
  47  0.334  0.361  0.072-  74 2.29  56 2.44  21 2.44  57 2.50  72 2.50  20 2.52
  48  0.581  0.937  0.137-  49 2.29  63 2.35  34 2.38  54 2.38  80 2.38  38 2.45  59 2.46  20 2.50
                            57 2.63  50 2.74
  49  0.677  0.809  0.223-  48 2.29  50 2.34  61 2.46  78 2.47   1 2.48  59 2.54  80 2.57  29 2.60
                            32 2.62  54 2.79  28 2.88
  50  0.810  0.679  0.140-  36 2.33  49 2.34  54 2.38  71 2.39  42 2.48  69 2.52  34 2.53  28 2.61
                            32 2.66  48 2.74  21 3.30
  51  0.629  0.454  0.133-  56 2.40  76 2.44  46 2.45  41 2.48  37 2.50  67 2.53  32 2.56  26 2.59
                            74 2.59  69 2.66  73 2.78  54 2.83
  52  0.322  0.873  0.316-  55 2.35  79 2.41  61 2.42  78 2.44  43 2.45  14 2.52   8 2.54  44 2.56
                             6 2.58  22 3.04   2 3.28  30 3.30
  53  0.299  0.850  0.050-  73 2.39  38 2.40  45 2.48  24 2.56  63 2.58  46 2.63  72 2.82  23 3.07

  54  0.581  0.726  0.124-  46 2.37  50 2.38  48 2.38  73 2.40  71 2.42  63 2.42  38 2.46  78 2.50
                            32 2.61  49 2.79  51 2.83
  55  0.229  0.013  0.230-  52 2.35  80 2.44  79 2.44  38 2.45  22 2.51  43 2.52  78 2.56  24 2.59
                            31 2.59  77 2.61  70 2.62
  56  0.549  0.361  0.055-  51 2.40  37 2.42  47 2.44  74 2.52  76 2.56  62 2.60  72 2.61  20 2.66
                            46 2.72
  57  0.344  0.167  0.132-  38 2.43  45 2.45  80 2.47  47 2.50  20 2.52  68 2.55  31 2.57  48 2.63
                            21 2.64  70 2.71
  58  0.176  0.684  0.148-  36 2.38  72 2.39  64 2.41  73 2.43  28 2.53  79 2.53  24 2.54  74 2.56
                            35 2.60
  59  0.661  0.042  0.213-  66 2.38  37 2.43  48 2.46  19 2.48  49 2.54  68 2.55   1 2.56  80 2.59
                            60 2.70  28 3.23
  60  0.784  0.118  0.298-  67 2.46  77 2.54   1 2.65  18 2.68  59 2.70   4 2.71   2 2.72   9 2.80
                            17 2.85  19 2.92  22 3.22
  61  0.537  0.875  0.316-  52 2.42  49 2.46  44 2.46  78 2.48  80 2.52  43 2.58  19 2.64  11 2.64
                            27 2.69   8 2.70  29 2.82   1 2.86
  62  0.773  0.123  0.060-  66 2.43  41 2.44  37 2.45  20 2.53  23 2.55  56 2.60  76 2.63  34 2.67
                            35 2.75
  63  0.500  0.898  0.045-  48 2.35  54 2.42  38 2.42  45 2.54  53 2.58  20 2.89  46 3.07
  64  0.196  0.505  0.214-  58 2.41  42 2.48  33 2.50  74 2.52   3 2.54  30 2.61  68 2.66  21 2.70
                            31 2.79  28 2.80
  65  0.935  0.315  0.226-  69 2.40  75 2.41  67 2.41  77 2.43  42 2.50  22 2.51  70 2.53  39 2.58
                            41 2.58  31 2.58  32 2.66
  66  0.858  0.002  0.156-  77 2.38  59 2.38  62 2.43  35 2.43  41 2.49  34 2.54  37 2.60  28 2.61
                            24 2.83
  67  0.721  0.315  0.230-  41 2.35  75 2.39  65 2.41  37 2.44  60 2.46  18 2.46  51 2.53  26 2.70
                            77 2.70  32 2.73
  68  0.430  0.266  0.214-  74 2.43  37 2.50  57 2.55  59 2.55  19 2.58   3 2.62  80 2.64  18 2.65
                            64 2.66  31 2.76
  69  0.877  0.430  0.129-  40 2.32  71 2.34  65 2.40  41 2.48  76 2.49  50 2.52  32 2.53  21 2.60
                            42 2.65  70 2.65  51 2.66
  70  0.096  0.181  0.140-  45 2.50  40 2.51  31 2.52  65 2.53  23 2.57  41 2.61  55 2.62  24 2.65
                            69 2.65  57 2.71  21 2.72  77 2.83  38 2.83
  71  0.760  0.589  0.052-  69 2.34  50 2.39  54 2.42  46 2.47  76 2.56  40 2.93
  72  0.315  0.592  0.059-  58 2.39  74 2.39  73 2.42  47 2.50  46 2.53  56 2.61  53 2.82
  73  0.382  0.701  0.136-  53 2.39  54 2.40  72 2.42  58 2.43  46 2.44  79 2.49  26 2.52  38 2.59
                            78 2.60  24 2.64  74 2.69  51 2.78
  74  0.400  0.454  0.149-  47 2.29  72 2.39  68 2.43  26 2.50  37 2.51  56 2.52  64 2.52  58 2.56
                            51 2.59  73 2.69
  75  0.790  0.402  0.314-  67 2.39  65 2.41  15 2.54   7 2.55  39 2.58   9 2.60  29 2.62  32 2.68
                            44 2.71  22 2.92  18 3.20
  76  0.781  0.351  0.046-  41 2.37  51 2.44  40 2.45  69 2.49  71 2.56  56 2.56  62 2.63  23 2.69
                            46 2.87
  77  0.970  0.084  0.222-  41 2.38  66 2.38  22 2.42  65 2.43  24 2.54  60 2.54   2 2.55  55 2.61
                            67 2.70  70 2.83
  78  0.465  0.795  0.225-  52 2.44  49 2.47  44 2.47  79 2.48  38 2.48  80 2.48  61 2.48  54 2.50
                            55 2.56  73 2.60  26 2.62  32 2.71
  79  0.249  0.786  0.233-  52 2.41  30 2.43  55 2.44  24 2.46  78 2.48  73 2.49   2 2.49  58 2.53
                            26 2.60
  80  0.439  0.028  0.225-  48 2.38  55 2.44  57 2.47  43 2.47  78 2.48  61 2.52  19 2.52  38 2.54
                            49 2.57  59 2.59  68 2.64  31 2.73
  81  0.716  0.040  0.443-  17 1.83   4 1.87  11 1.88
 
  LATTYP: Found a hexagonal cell.
 ALAT       =    11.2227001190
 C/A-ratio  =     1.9603125600
  
  Lattice vectors:
  
 A1 = (   5.6113500595,  -9.7191434021,   0.0000000000)
 A2 = ( -11.2227001190,   0.0000000000,   0.0000000000)
 A3 = (   0.0000000000,   0.0000000000, -22.0000000000)


Analysis of symmetry for initial positions (statically):
=====================================================================
 Subroutine PRICEL returns:
 Original cell was already a primitive cell.
 

 Routine SETGRP: Setting up the symmetry group for a 
 hexagonal supercell.


 Subroutine GETGRP returns: Found  1 space group operations
 (whereof  1 operations were pure point group operations)
 out of a pool of 24 trial point group operations.


The static configuration has the point symmetry C_1 .


Analysis of symmetry for dynamics (positions and initial velocities):
=====================================================================
 Subroutine PRICEL returns:
 Original cell was already a primitive cell.
 

 Routine SETGRP: Setting up the symmetry group for a 
 hexagonal supercell.


 Subroutine GETGRP returns: Found  1 space group operations
 (whereof  1 operations were pure point group operations)
 out of a pool of 24 trial point group operations.


The dynamic configuration has the point symmetry C_1 .


Analysis of constrained symmetry for selective dynamics:
=====================================================================
 Subroutine PRICEL returns:
 Original cell was already a primitive cell.
 

 Routine SETGRP: Setting up the symmetry group for a 
 hexagonal supercell.


 Subroutine GETGRP returns: Found  1 space group operations
 (whereof  1 operations were pure point group operations)
 out of a pool of 24 trial point group operations.


The constrained configuration has the point symmetry C_1 .


Analysis of structural, dynamic, and magnetic symmetry:
=====================================================================
 Subroutine PRICEL returns:
 Original cell was already a primitive cell.
 

 Routine SETGRP: Setting up the symmetry group for a 
 hexagonal supercell.


 Subroutine GETGRP returns: Found  1 space group operations
 (whereof  1 operations were pure point group operations)
 out of a pool of 24 trial point group operations.


The magnetic configuration has the point symmetry C_1 .


 Subroutine INISYM returns: Found  1 space group operations
 (whereof  1 operations are pure point group operations),
 and found     1 'primitive' translations

 
 
 KPOINTS: mesh auto                               

Automatic generation of k-mesh.
Space group operators:
 irot       det(A)        alpha          n_x          n_y          n_z        tau_x        tau_y        tau_z
    1     1.000000     0.000000     1.000000     0.000000     0.000000     0.000000     0.000000     0.000000
 
 Subroutine IBZKPT returns following result:
 ===========================================
 
 Found      4 irreducible k-points:
 
 Following reciprocal coordinates:
            Coordinates               Weight
  0.000000  0.000000  0.000000      1.000000
  0.500000  0.000000  0.000000      1.000000
  0.000000  0.500000  0.000000      1.000000
  0.500000  0.500000  0.000000      1.000000
 
 Following cartesian coordinates:
            Coordinates               Weight
  0.000000  0.000000  0.000000      1.000000
  0.044553 -0.025722  0.000000      1.000000
  0.000000  0.051445  0.000000      1.000000
  0.044553  0.025722  0.000000      1.000000
 
 TETIRR: Found     12 inequivalent tetrahedra from       24
 
 Subroutine IBZKPT_HF returns following result:
 ==============================================
 
 Found      4 k-points in 1st BZ
 the following      4 k-points will be used (e.g. in the exchange kernel)
 Following reciprocal coordinates:   # in IRBZ
  0.000000  0.000000  0.000000    0.25000000   1 t-inv F
  0.500000  0.000000  0.000000    0.25000000   2 t-inv F
  0.000000  0.500000  0.000000    0.25000000   3 t-inv F
  0.500000  0.500000  0.000000    0.25000000   4 t-inv F


--------------------------------------------------------------------------------------------------------




 Dimension of arrays:
   k-points           NKPTS =      4   k-points in BZ     NKDIM =      4   number of bands    NBANDS=    576
   number of dos      NEDOS =    301   number of ions     NIONS =     81
   non local maximal  LDIM  =      6   non local SUM 2l+1 LMDIM =     18
   total plane-waves  NPLWV = ******
   max r-space proj   IRMAX =   7929   max aug-charges    IRDMAX=  34542
   dimension x,y,z NGX =    90 NGY =   90 NGZ =  168
   dimension x,y,z NGXF=   180 NGYF=  180 NGZF=  336
   support grid    NGXF=   180 NGYF=  180 NGZF=  336
   ions per type =              32  23  25   1
   NGX,Y,Z   is equivalent  to a cutoff of  13.33, 13.33, 12.70 a.u.
   NGXF,Y,Z  is equivalent  to a cutoff of  26.66, 26.66, 25.39 a.u.

 SYSTEM =  Pt111                                   
 POSCAR =  11.26                                   

 Startparameter for this run:
   NWRITE =      2    write-flag & timer
   PREC   = accura    normal or accurate (medium, high low for compatibility)
   ISTART =      0    job   : 0-new  1-cont  2-samecut
   ICHARG =      2    charge: 1-file 2-atom 10-const
   ISPIN  =      2    spin polarized calculation?
   LNONCOLLINEAR =      F non collinear calculations
   LSORBIT =      F    spin-orbit coupling
   INIWAV =      1    electr: 0-lowe 1-rand  2-diag
   LASPH  =      F    aspherical Exc in radial PAW
   METAGGA=      F    non-selfconsistent MetaGGA calc.

 Electronic Relaxation 1
   ENCUT  =  550.0 eV  40.42 Ry    6.36 a.u.  21.46 21.46 42.07*2*pi/ulx,y,z
   ENINI  =  550.0     initial cutoff
   ENAUG  =  544.6 eV  augmentation charge cutoff
   NELM   =    200;   NELMIN=  2; NELMDL= -5     # of ELM steps 
   EDIFF  = 0.1E-04   stopping-criterion for ELM
   LREAL  =      T    real-space projection
   NLSPLINE    = F    spline interpolate recip. space projectors
   LCOMPAT=      F    compatible to vasp.4.4
   GGA_COMPAT  = T    GGA compatible to vasp.4.4-vasp.4.6
   LMAXPAW     = -100 max onsite density
   LMAXMIX     =    2 max onsite mixed and CHGCAR
   VOSKOWN=      0    Vosko Wilk Nusair interpolation
   ROPT   =   -0.00025  -0.00025  -0.00025  -0.00025
 Ionic relaxation
   EDIFFG = -.5E-01   stopping-criterion for IOM
   NSW    =   1009    number of steps for IOM
   NBLOCK =      1;   KBLOCK =   1009    inner block; outer block 
   IBRION =      5    ionic relax: 0-MD 1-quasi-New 2-CG
   NFREE  =      2    steps in history (QN), initial steepest desc. (CG)
   ISIF   =      2    stress and relaxation
   IWAVPR =     11    prediction:  0-non 1-charg 2-wave 3-comb
   ISYM   =      2    0-nonsym 1-usesym 2-fastsym
   LCORR  =      T    Harris-Foulkes like correction to forces

   POTIM  = 0.5000    time-step for ionic-motion
   TEIN   =    0.0    initial temperature
   TEBEG  =    0.0;   TEEND  =   0.0 temperature during run
   SMASS  =  -3.00    Nose mass-parameter (am)
   estimated Nose-frequenzy (Omega)   =  0.10E-29 period in steps =****** mass=  -0.288E-26a.u.
   SCALEE = 1.0000    scale energy and forces
   NPACO  =    256;   APACO  = 16.0  distance and # of slots for P.C.
   PSTRESS=    0.0 pullay stress

  Mass of Ions in am
   POMASS = 195.08 58.93 58.69  1.00
  Ionic Valenz
   ZVAL   =  10.00  9.00 10.00  1.00
  Atomic Wigner-Seitz radii
   RWIGS  =  -1.00 -1.00 -1.00 -1.00
  virtual crystal weights 
   VCA    =   1.00  1.00  1.00  1.00
   NELECT =     778.0000    total number of electrons
   NUPDOWN=      -1.0000    fix difference up-down

 DOS related values:
   EMIN   =  10.00;   EMAX   =-10.00  energy-range for DOS
   EFERMI =   0.00
   ISMEAR =    -5;   SIGMA  =   0.10  broadening in eV -4-tet -1-fermi 0-gaus

 Electronic relaxation 2 (details)
   IALGO  =     68    algorithm
   LDIAG  =      T    sub-space diagonalisation (order eigenvalues)
   LSUBROT=      F    optimize rotation matrix (better conditioning)
   TURBO    =      0    0=normal 1=particle mesh
   IRESTART =      0    0=no restart 2=restart with 2 vectors
   NREBOOT  =      0    no. of reboots
   NMIN     =      0    reboot dimension
   EREF     =   0.00    reference energy to select bands
   IMIX   =      4    mixing-type and parameters
     AMIX     =   0.40;   BMIX     =  1.00
     AMIX_MAG =   1.60;   BMIX_MAG =  1.00
     AMIN     =   0.10
     WC   =   100.;   INIMIX=   1;  MIXPRE=   1;  MAXMIX= -45

 Intra band minimization:
   WEIMIN = 0.0010     energy-eigenvalue tresh-hold
   EBREAK =  0.43E-08  absolut break condition
   DEPER  =   0.30     relativ break condition  

   TIME   =   0.40     timestep for ELM

  volume/ion in A,a.u.               =      29.63       199.92
  Fermi-wavevector in a.u.,A,eV,Ry     =   1.124653  2.125287 17.209264  1.264845
  Thomas-Fermi vector in A             =   2.261326
 
 Write flags
   LWAVE        =      F    write WAVECAR
   LDOWNSAMPLE  =      F    k-point downsampling of WAVECAR
   LCHARG       =      F    write CHGCAR
   LVTOT        =      F    write LOCPOT, total local potential
   LVHAR        =      F    write LOCPOT, Hartree potential only
   LELF         =      F    write electronic localiz. function (ELF)
   LORBIT       =      0    0 simple, 1 ext, 2 COOP (PROOUT), +10 PAW based schemes


 Dipole corrections
   LMONO  =      F    monopole corrections only (constant potential shift)
   LDIPOL =      F    correct potential (dipole corrections)
   IDIPOL =      0    1-x, 2-y, 3-z, 4-all directions 
   EPSILON=  1.0000000 bulk dielectric constant

 Exchange correlation treatment:
   GGA     =    --    GGA type
   LEXCH   =     8    internal setting for exchange type
   VOSKOWN=      0    Vosko Wilk Nusair interpolation
   LHFCALC =     F    Hartree Fock is set to
   LHFONE  =     F    Hartree Fock one center treatment
   AEXX    =    0.0000 exact exchange contribution

 Linear response parameters
   LEPSILON=     F    determine dielectric tensor
   LRPA    =     F    only Hartree local field effects (RPA)
   LNABLA  =     F    use nabla operator in PAW spheres
   LVEL    =     F    velocity operator in full k-point grid
   LINTERFAST=   F  fast interpolation
   KINTER  =     0    interpolate to denser k-point grid
   CSHIFT  =0.1000    complex shift for real part using Kramers Kronig
   OMEGAMAX=  -1.0    maximum frequency
   DEG_THRESHOLD= 0.2000000E-02 threshold for treating states as degnerate
   RTIME   =   -0.100 relaxation time in fs
  (WPLASMAI=    0.000 imaginary part of plasma frequency in eV, 0.658/RTIME)
   DFIELD  = 0.0000000 0.0000000 0.0000000 field for delta impulse in time
 
 Orbital magnetization related:
   ORBITALMAG=     F  switch on orbital magnetization
   LCHIMAG   =     F  perturbation theory with respect to B field
   DQ        =  0.001000  dq finite difference perturbation B field
   LLRAUG    =     F  two centre corrections for induced B field



--------------------------------------------------------------------------------------------------------


 finite differences
   using selective dynamics as specified on POSCAR
   WARNING: If single coordinates had been selected the selection of coordinates
            is made according to the corresponding   d i r e c t   coordinates!
            Don't support selection of single cartesian coordinates -- sorry ...
  !
 charge density and potential will be updated during run
 spin polarized calculation
 RMM-DIIS sequential band-by-band and
  variant of blocked Davidson during initial phase
 perform sub-space diagonalisation
    before iterative eigenvector-optimisation
 modified Broyden-mixing scheme, WC =      100.0
 initial mixing is a Kerker type mixing with AMIX =  0.4000 and BMIX =      1.0000
 Hartree-type preconditioning will be used
 using additional bands          187
 real space projection scheme for non local part
 use partial core corrections
 calculate Harris-corrections to forces 
   (improved forces if not selfconsistent)
 use gradient corrections 
 use of overlap-Matrix (Vanderbilt PP)
 Fermi weights with tetrahedron method with Bloechl corrections


--------------------------------------------------------------------------------------------------------


  energy-cutoff  :      550.00
  volume of cell :     2399.65
      direct lattice vectors                 reciprocal lattice vectors
    11.222700119  0.000000000  0.000000000     0.089105116 -0.051444863  0.000000000
     5.611350060  9.719143402  0.000000000     0.000000000  0.102889726  0.000000000
     0.000000000  0.000000000 22.000000000     0.000000000  0.000000000  0.045454545

  length of vectors
    11.222700119 11.222700119 22.000000000     0.102889726  0.102889726  0.045454545


 
 k-points in units of 2pi/SCALE and weight: mesh auto                               
   0.00000000  0.00000000  0.00000000       0.250
   0.04455256 -0.02572243  0.00000000       0.250
   0.00000000  0.05144486  0.00000000       0.250
   0.04455256  0.02572243  0.00000000       0.250
 
 k-points in reciprocal lattice and weights: mesh auto                               
   0.00000000  0.00000000  0.00000000       0.250
   0.50000000  0.00000000  0.00000000       0.250
   0.00000000  0.50000000  0.00000000       0.250
   0.50000000  0.50000000  0.00000000       0.250
 
 position of ions in fractional coordinates (direct lattice) 
   0.78736460  0.88055394  0.30202172
   0.03061236  0.87985454  0.29162518
   0.27563504  0.36157161  0.31085777
   0.88137088  0.96348157  0.40006766
   0.11289262  0.46819599  0.41012986
   0.13048525  0.94999814  0.39703718
   0.87083639  0.45800308  0.41235501
   0.37348547  0.95476149  0.41517674
   0.86603690  0.21519960  0.39758193
   0.12508819  0.21439477  0.41310957
   0.62337595  0.95225942  0.41156101
   0.87529597  0.71328863  0.40845471
   0.37184969  0.20383181  0.41352432
   0.37388274  0.70003518  0.39956888
   0.61779519  0.45930692  0.39919165
   0.11714439  0.71120362  0.40054993
   0.62358755  0.20854679  0.40598574
   0.53710800  0.34731117  0.30036306
   0.52732201  0.11380064  0.30921644
   0.54569241  0.12647739  0.06683304
   0.11791659  0.40792499  0.11908862
   0.05438913  0.14669128  0.31036071
   0.00892895  0.10176852  0.04917651
   0.13783207  0.92691145  0.14197368
   0.37316328  0.45176855  0.40624552
   0.47979716  0.55399880  0.22971747
   0.62486975  0.70829379  0.41345351
   0.95252345  0.75898977  0.20420405
   0.79649350  0.63203129  0.31051764
   0.27383153  0.60710647  0.30236932
   0.18749030  0.26198206  0.22539890
   0.71089206  0.56100734  0.21410215
   0.04207972  0.60769425  0.30480258
   0.78196837  0.88367072  0.08012597
   0.00167860  0.86570870  0.07172203
   0.00649475  0.65686199  0.09367822
   0.62789021  0.23379040  0.14972974
   0.36050112  0.94235243  0.13470415
   0.02274271  0.39523290  0.31635390
   0.01296097  0.32139498  0.04442433
   0.84423970  0.22761319  0.13891977
   0.96744603  0.52048649  0.21885007
   0.30291565  0.10017371  0.31924645
   0.55259516  0.64795512  0.31683167
   0.25085454  0.09128101  0.04878728
   0.52913784  0.61162204  0.04697948
   0.33389242  0.36126594  0.07221963
   0.58147332  0.93651314  0.13694302
   0.67732667  0.80921239  0.22305304
   0.80979447  0.67906481  0.14024348
   0.62937817  0.45366950  0.13325724
   0.32212393  0.87304129  0.31623028
   0.29919813  0.84983568  0.05000644
   0.58103448  0.72612545  0.12392179
   0.22907234  0.01294552  0.22967573
   0.54871865  0.36069037  0.05545242
   0.34411655  0.16690962  0.13164412
   0.17554400  0.68420617  0.14761894
   0.66082635  0.04249037  0.21304482
   0.78418706  0.11818458  0.29781545
   0.53713427  0.87456655  0.31597730
   0.77284397  0.12278263  0.06048458
   0.50030742  0.89844953  0.04455515
   0.19571508  0.50522867  0.21438636
   0.93546177  0.31542046  0.22552712
   0.85824468  0.00195101  0.15611973
   0.72104290  0.31497628  0.22969726
   0.43002289  0.26577701  0.21377066
   0.87703755  0.42955743  0.12878365
   0.09634819  0.18069822  0.13969274
   0.75988870  0.58867799  0.05155611
   0.31527374  0.59151669  0.05925234
   0.38179216  0.70126590  0.13646584
   0.40042658  0.45377032  0.14884727
   0.78980238  0.40200223  0.31375380
   0.78089926  0.35148021  0.04598080
   0.96954404  0.08430315  0.22196820
   0.46486898  0.79463888  0.22533144
   0.24890496  0.78598962  0.23267623
   0.43862206  0.02771317  0.22450195
   0.71560185  0.04011346  0.44285724
 
 position of ions in cartesian coordinates  (Angst):
  13.77745315  8.55823002  6.64447793
   5.28072512  8.55143244  6.41575395
   5.12227430  3.51416632  6.83887095
  15.29779341  9.36421552  8.80148846
   3.89417165  4.55046401  9.02285700
   6.79516892  9.23316815  8.73481800
  12.34315127  4.45139761  9.07181018
   9.54901639  9.27946383  9.13388821
  10.92683278  2.09155581  8.74680238
   2.60687136  2.08373352  9.08841054
  12.33942225  9.25514585  9.05434218
  13.82569633  6.93255444  8.98600362
   5.31692917  1.98107062  9.09753494
   8.12411638  6.80374234  8.79051542
   9.51066202  4.46406980  8.78221635
   5.30548881  6.91228999  8.81209853
   8.16856518  2.02689621  8.93168637
   7.97668659  3.37556706  6.60798723
   6.55655204  1.10604477  6.80276175
   6.83385120  1.22925189  1.47032698
   3.61235247  3.96468152  2.61994962
   1.43352904  1.42571358  6.82793555
   0.67126575  0.98910281  1.08188317
   6.74807265  9.00878530  3.12342105
   6.72293115  4.39080337  8.93740138
   8.49330084  5.38439383  5.05378437
  10.98721025  6.88400895  9.09597733
  14.94884239  7.37673046  4.49248916
  12.48535656  6.14280273  6.83138805
   6.47981602  5.90055485  6.65212513
   3.57422044  2.54624125  4.95877580
  11.12613698  5.45251083  4.71024739
   3.88223321  5.90626758  6.70565679
  13.73438227  8.58852246  1.76277137
   4.87663302  8.41394697  1.57788465
   3.75877116  6.38413590  2.06092090
   8.35850333  2.27224245  3.29405432
   9.33366537  9.15885838  2.96349132
   2.47302474  3.84132521  6.95978582
   1.94891684  3.12368389  0.97733531
  10.75186628  2.21220519  3.05623495
  13.77798860  5.05868282  4.81470165
   3.96164127  0.97360267  7.02342195
   9.83751276  6.29756873  6.97029676
   3.32747495  0.88717326  1.07332023
   9.37038068  5.94444230  1.03354859
   5.77436416  3.51119550  1.58883193
  11.78080373  9.10210551  3.01274644
  12.14220806  7.86485128  4.90716692
  12.89855082  6.59992829  3.08535659
   9.60902083  4.40927897  2.93165935
   8.51404054  8.48521354  6.95706618
   8.12653637  8.25967484  1.10014163
  10.59531978  7.05731733  2.72627938
   2.64345207  0.12581940  5.05286608
   8.18206475  3.50560142  1.21995326
   4.79850516  1.62221856  2.89617069
   5.80939796  6.64989784  3.24761674
   7.65468432  0.41297001  4.68698615
   9.46387130  1.14865285  6.55193998
  10.93559584  8.50003768  6.95150049
   9.36237240  1.19334199  1.33066085
  10.65631497  8.73215981  0.98021322
   5.03146660  4.91038993  4.71649990
  12.26834149  3.06561666  4.96159659
   9.64277050  0.01896212  3.43463404
   9.85949038  3.06129963  5.05333976
   6.31738572  2.58312482  4.70295446
  12.25312658  4.17493029  2.83324027
   2.09524784  1.75623189  3.07324021
  11.83128130  5.72144585  1.13423452
   6.85742987  5.74903551  1.30355140
   8.21978744  6.81570388  3.00224843
   7.04013147  4.41025877  3.27463986
  11.11949050  3.90711733  6.90258370
  10.73607676  3.41608656  1.01157751
  11.35395654  0.81935443  4.88330047
   9.67608211  7.72320924  4.95729164
   7.20384860  7.63914586  5.11887697
   5.07803210  0.26934830  4.93904295
   8.25607567  0.38986850  9.74285924
 


--------------------------------------------------------------------------------------------------------


 k-point  1 :   0.0000 0.0000 0.0000  plane waves:   70321
 k-point  2 :   0.5000 0.0000 0.0000  plane waves:   70264
 k-point  3 :   0.0000 0.5000 0.0000  plane waves:   70264
 k-point  4 :   0.5000 0.5000 0.0000  plane waves:   70264

 maximum and minimum number of plane-waves per node :     70321    70264

 maximum number of plane-waves:     70321
 maximum index in each direction: 
   IXMAX=   21   IYMAX=   21   IZMAX=   42
   IXMIN=  -21   IYMIN=  -21   IZMIN=  -42


 serial   3D FFT for wavefunctions
 parallel 3D FFT for charge:
    minimum data exchange during FFTs selected (reduces bandwidth)


 total amount of memory used by VASP MPI-rank0   379504. kBytes
=======================================================================

   base      :      30000. kBytes
   nonlr-proj:      90618. kBytes
   fftplans  :      13535. kBytes
   grid      :     132462. kBytes
   one-center:       2519. kBytes
   wavefun   :     110370. kBytes
 
     INWAV:  cpu time    0.0000: real time    0.0004
 Broyden mixing: mesh for mixing (old mesh)
   NGX = 43   NGY = 43   NGZ = 85
  (NGX  =180   NGY  =180   NGZ  =336)
  gives a total of 157165 points

 initial charge density was supplied:
 charge density of overlapping atoms calculated
 number of electron     778.0000000 magnetization     206.0000000
 keeping initial charge density in first step


--------------------------------------------------------------------------------------------------------


 Maximum index for non-local projection operator         7659
 Maximum index for augmentation-charges         1121 (set IRDMAX)


--------------------------------------------------------------------------------------------------------


 First call to EWALD:  gamma=   0.132
 Maximum number of real-space cells 4x 4x 2
 Maximum number of reciprocal cells 2x 2x 4

    FEWALD:  cpu time    0.0042: real time    0.0042


--------------------------------------- Iteration      1(   1)  ---------------------------------------


    POTLOK:  cpu time    0.5002: real time    0.5024
    SETDIJ:  cpu time    0.0320: real time    0.0321
     EDDAV:  cpu time   57.1775: real time   57.4294
 BZINTS: Fermi energy: 15.086101;778.000000 electrons
         Band energy:6664.393511;  BLOECHL correction: -0.014505
       DOS:  cpu time    0.0224: real time    0.0233
    --------------------------------------------
      LOOP:  cpu time   57.7321: real time   57.9873

 eigenvalue-minimisations  :  9216
 total energy-change (2. order) : 0.6703958E+04  (-0.3449036E+05)
 number of electron     778.0000000 magnetization     206.0000000
 augmentation part      778.0000000 magnetization     206.0000000

 Free energy of the ion-electron system (eV)
  ---------------------------------------------------
  alpha Z        PSCENC =      1751.32544349
  Ewald energy   TEWEN  =    237388.09739162
  -Hartree energ DENC   =   -307445.69431847
  -exchange      EXHF   =         0.00000000
  -V(xc)+E(xc)   XCENC  =      1334.69382119
  PAW double counting   =     62871.68470781   -64853.88848185
  entropy T*S    EENTRO =         0.00000000
  eigenvalues    EBANDS =      6664.39351147
  atomic energy  EATOM  =     68993.34587830
  Solvation  Ediel_sol  =         0.00000000
  ---------------------------------------------------
  free energy    TOTEN  =      6703.95795356 eV

  energy without entropy =     6703.95795356  energy(sigma->0) =     6703.95795356


--------------------------------------------------------------------------------------------------------




--------------------------------------- Iteration      1(   2)  ---------------------------------------


     EDDAV:  cpu time   57.0278: real time   57.1900
 BZINTS: Fermi energy:  4.438752;778.000000 electrons
         Band energy: 303.799100;  BLOECHL correction: -0.005605
       DOS:  cpu time    0.0216: real time    0.0244
    --------------------------------------------
      LOOP:  cpu time   57.0494: real time   57.2145

 eigenvalue-minimisations  :  9216
 total energy-change (2. order) :-0.6360594E+04  (-0.5775912E+04)
 number of electron     778.0000000 magnetization     206.0000000
 augmentation part      778.0000000 magnetization     206.0000000

 Free energy of the ion-electron system (eV)
  ---------------------------------------------------
  alpha Z        PSCENC =      1751.32544349
  Ewald energy   TEWEN  =    237388.09739162
  -Hartree energ DENC   =   -307445.69431847
  -exchange      EXHF   =         0.00000000
  -V(xc)+E(xc)   XCENC  =      1334.69382119
  PAW double counting   =     62871.68470781   -64853.88848185
  entropy T*S    EENTRO =         0.00000000
  eigenvalues    EBANDS =       303.79909959
  atomic energy  EATOM  =     68993.34587830
  Solvation  Ediel_sol  =         0.00000000
  ---------------------------------------------------
  free energy    TOTEN  =       343.36354168 eV

  energy without entropy =      343.36354168  energy(sigma->0) =      343.36354168


--------------------------------------------------------------------------------------------------------




--------------------------------------- Iteration      1(   3)  ---------------------------------------


     EDDAV:  cpu time   60.6776: real time   60.8361
 BZINTS: Fermi energy:  2.809701;778.000000 electrons
         Band energy:-505.369919;  BLOECHL correction: -0.019506
       DOS:  cpu time    0.0237: real time    0.0377
    --------------------------------------------
      LOOP:  cpu time   60.7013: real time   60.8738

 eigenvalue-minimisations  :  9984
 total energy-change (2. order) :-0.8091690E+03  (-0.6959748E+03)
 number of electron     778.0000000 magnetization     206.0000000
 augmentation part      778.0000000 magnetization     206.0000000

 Free energy of the ion-electron system (eV)
  ---------------------------------------------------
  alpha Z        PSCENC =      1751.32544349
  Ewald energy   TEWEN  =    237388.09739162
  -Hartree energ DENC   =   -307445.69431847
  -exchange      EXHF   =         0.00000000
  -V(xc)+E(xc)   XCENC  =      1334.69382119
  PAW double counting   =     62871.68470781   -64853.88848185
  entropy T*S    EENTRO =         0.00000000
  eigenvalues    EBANDS =      -505.36991937
  atomic energy  EATOM  =     68993.34587830
  Solvation  Ediel_sol  =         0.00000000
  ---------------------------------------------------
  free energy    TOTEN  =      -465.80547728 eV

  energy without entropy =     -465.80547728  energy(sigma->0) =     -465.80547728


--------------------------------------------------------------------------------------------------------




--------------------------------------- Iteration      1(   4)  ---------------------------------------


     EDDAV:  cpu time   62.7110: real time   62.9401
 BZINTS: Fermi energy:  2.736154;778.000000 electrons
         Band energy:-544.298750;  BLOECHL correction: -0.018822
       DOS:  cpu time    0.0225: real time    0.0232
    --------------------------------------------
      LOOP:  cpu time   62.7335: real time   62.9633

 eigenvalue-minimisations  : 10368
 total energy-change (2. order) :-0.3892883E+02  (-0.3800286E+02)
 number of electron     778.0000000 magnetization     206.0000000
 augmentation part      778.0000000 magnetization     206.0000000

 Free energy of the ion-electron system (eV)
  ---------------------------------------------------
  alpha Z        PSCENC =      1751.32544349
  Ewald energy   TEWEN  =    237388.09739162
  -Hartree energ DENC   =   -307445.69431847
  -exchange      EXHF   =         0.00000000
  -V(xc)+E(xc)   XCENC  =      1334.69382119
  PAW double counting   =     62871.68470781   -64853.88848185
  entropy T*S    EENTRO =         0.00000000
  eigenvalues    EBANDS =      -544.29874965
  atomic energy  EATOM  =     68993.34587830
  Solvation  Ediel_sol  =         0.00000000
  ---------------------------------------------------
  free energy    TOTEN  =      -504.73430756 eV

  energy without entropy =     -504.73430756  energy(sigma->0) =     -504.73430756


--------------------------------------------------------------------------------------------------------




--------------------------------------- Iteration      1(   5)  ---------------------------------------


     EDDAV:  cpu time   69.2143: real time   69.4996
 BZINTS: Fermi energy:  2.734960;778.000000 electrons
         Band energy:-544.986682;  BLOECHL correction: -0.018858
       DOS:  cpu time    0.0231: real time    0.0309
    CHARGE:  cpu time    3.0559: real time    3.0638
    MIXING:  cpu time    0.0110: real time    0.0112
    --------------------------------------------
      LOOP:  cpu time   72.3044: real time   72.6056

 eigenvalue-minimisations  : 11712
 total energy-change (2. order) :-0.6879321E+00  (-0.6874780E+00)
 number of electron     778.0000029 magnetization     194.0962914
 augmentation part      338.0991606 magnetization     164.6156864

 Broyden mixing:
  rms(total) = 0.10647E+02    rms(broyden)= 0.10647E+02
  rms(prec ) = 0.11017E+02
  weight for this iteration     100.00

 Free energy of the ion-electron system (eV)
  ---------------------------------------------------
  alpha Z        PSCENC =      1751.32544349
  Ewald energy   TEWEN  =    237388.09739162
  -Hartree energ DENC   =   -307445.69431847
  -exchange      EXHF   =         0.00000000
  -V(xc)+E(xc)   XCENC  =      1334.69382119
  PAW double counting   =     62871.68470781   -64853.88848185
  entropy T*S    EENTRO =         0.00000000
  eigenvalues    EBANDS =      -544.98668171
  atomic energy  EATOM  =     68993.34587830
  Solvation  Ediel_sol  =         0.00000000
  ---------------------------------------------------
  free energy    TOTEN  =      -505.42223962 eV

  energy without entropy =     -505.42223962  energy(sigma->0) =     -505.42223962


--------------------------------------------------------------------------------------------------------




--------------------------------------- Iteration      1(   6)  ---------------------------------------


    POTLOK:  cpu time    0.4621: real time    0.4646
    SETDIJ:  cpu time    0.0317: real time    0.0318
    EDDIAG:  cpu time    9.9595: real time    9.9873
  RMM-DIIS:  cpu time   38.2310: real time   38.3538
    ORTHCH:  cpu time    1.4051: real time    1.4111
 BZINTS: Fermi energy:  1.270964;778.000000 electrons
         Band energy:***********;  BLOECHL correction: -0.017483
       DOS:  cpu time    0.0247: real time    0.0247
    CHARGE:  cpu time    3.0273: real time    3.0368
    MIXING:  cpu time    0.0114: real time    0.0131
    --------------------------------------------
      LOOP:  cpu time   53.1528: real time   53.3233

 eigenvalue-minimisations  :  9403
 total energy-change (2. order) :-0.2497200E+03  (-0.9952863E+02)
 number of electron     778.0000043 magnetization     190.7795119
 augmentation part      408.5882979 magnetization     162.6052443

 Broyden mixing:
  rms(total) = 0.20783E+02    rms(broyden)= 0.20783E+02
  rms(prec ) = 0.25846E+02
  weight for this iteration     100.00

 eigenvalues of (default mixing * dielectric matrix)
  average eigenvalue GAMMA=   0.1757
  0.1757

 Free energy of the ion-electron system (eV)
  ---------------------------------------------------
  alpha Z        PSCENC =      1751.32544349
  Ewald energy   TEWEN  =    237388.09739162
  -Hartree energ DENC   =   -306166.48899357
  -exchange      EXHF   =         0.00000000
  -V(xc)+E(xc)   XCENC  =      1289.15215938
  PAW double counting   =     67911.91546843   -69664.66542481
  entropy T*S    EENTRO =         0.00000000
  eigenvalues    EBANDS =     -2257.82420030
  atomic energy  EATOM  =     68993.34587830
  Solvation  Ediel_sol  =         0.00000000
  ---------------------------------------------------
  free energy    TOTEN  =      -755.14227746 eV

  energy without entropy =     -755.14227746  energy(sigma->0) =     -755.14227746


--------------------------------------------------------------------------------------------------------




--------------------------------------- Iteration      1(   7)  ---------------------------------------


    POTLOK:  cpu time    0.4660: real time    0.4686
    SETDIJ:  cpu time    0.0318: real time    0.0319
    EDDIAG:  cpu time    9.9623: real time    9.9895
  RMM-DIIS:  cpu time   38.0179: real time   38.1521
    ORTHCH:  cpu time    1.3932: real time    1.4004
 BZINTS: Fermi energy:  2.046708;778.000000 electrons
         Band energy:***********;  BLOECHL correction: -0.008118
       DOS:  cpu time    0.0245: real time    0.0246
    CHARGE:  cpu time    3.0242: real time    3.0413
    MIXING:  cpu time    0.0118: real time    0.0120
    --------------------------------------------
      LOOP:  cpu time   52.9318: real time   53.1204

 eigenvalue-minimisations  :  9237
 total energy-change (2. order) : 0.2390641E+03  (-0.1710820E+02)
 number of electron     778.0000032 magnetization     187.8351606
 augmentation part      372.0845000 magnetization     152.9775979

 Broyden mixing:
  rms(total) = 0.14936E+02    rms(broyden)= 0.14936E+02
  rms(prec ) = 0.18123E+02
  weight for this iteration     100.00

 eigenvalues of (default mixing * dielectric matrix)
  average eigenvalue GAMMA=   0.2169
  0.2169  0.2169

 Free energy of the ion-electron system (eV)
  ---------------------------------------------------
  alpha Z        PSCENC =      1751.32544349
  Ewald energy   TEWEN  =    237388.09739162
  -Hartree energ DENC   =   -306769.02734712
  -exchange      EXHF   =         0.00000000
  -V(xc)+E(xc)   XCENC  =      1305.75933975
  PAW double counting   =     68954.00199986   -70871.21029951
  entropy T*S    EENTRO =         0.00000000
  eigenvalues    EBANDS =     -1268.37061950
  atomic energy  EATOM  =     68993.34587830
  Solvation  Ediel_sol  =         0.00000000
  ---------------------------------------------------
  free energy    TOTEN  =      -516.07821311 eV

  energy without entropy =     -516.07821311  energy(sigma->0) =     -516.07821311


--------------------------------------------------------------------------------------------------------




--------------------------------------- Iteration      1(   8)  ---------------------------------------


    POTLOK:  cpu time    0.4601: real time    0.4623
    SETDIJ:  cpu time    0.0314: real time    0.0315
    EDDIAG:  cpu time    9.9648: real time    9.9928
  RMM-DIIS:  cpu time   37.9824: real time   38.1736
    ORTHCH:  cpu time    1.3945: real time    1.3992
 BZINTS: Fermi energy:  1.459915;778.000000 electrons
         Band energy:***********;  BLOECHL correction: -0.031071
       DOS:  cpu time    0.0244: real time    0.0245
    CHARGE:  cpu time    3.0396: real time    3.0476
    MIXING:  cpu time    0.0122: real time    0.0124
    --------------------------------------------
      LOOP:  cpu time   52.9094: real time   53.1438

 eigenvalue-minimisations  :  9260
 total energy-change (2. order) : 0.8463817E+02  (-0.1330250E+02)
 number of electron     778.0000036 magnetization     180.8537011
 augmentation part      380.7162894 magnetization     142.5776193

 Broyden mixing:
  rms(total) = 0.11892E+02    rms(broyden)= 0.11892E+02
  rms(prec ) = 0.13924E+02
  weight for this iteration     100.00

 eigenvalues of (default mixing * dielectric matrix)
  average eigenvalue GAMMA=   0.3148
  0.5665  0.2857  0.0921

 Free energy of the ion-electron system (eV)
  ---------------------------------------------------
  alpha Z        PSCENC =      1751.32544349
  Ewald energy   TEWEN  =    237388.09739162
  -Hartree energ DENC   =   -306628.67574962
  -exchange      EXHF   =         0.00000000
  -V(xc)+E(xc)   XCENC  =      1310.33180253
  PAW double counting   =     69663.62444661   -71602.80535797
  entropy T*S    EENTRO =         0.00000000
  eigenvalues    EBANDS =     -1306.68389757
  atomic energy  EATOM  =     68993.34587830
  Solvation  Ediel_sol  =         0.00000000
  ---------------------------------------------------
  free energy    TOTEN  =      -431.44004260 eV

  energy without entropy =     -431.44004260  energy(sigma->0) =     -431.44004260


--------------------------------------------------------------------------------------------------------




--------------------------------------- Iteration      1(   9)  ---------------------------------------


    POTLOK:  cpu time    0.4639: real time    0.4662
    SETDIJ:  cpu time    0.0315: real time    0.0317
    EDDIAG:  cpu time   10.0923: real time   10.1186
  RMM-DIIS:  cpu time   37.6401: real time   37.8266
    ORTHCH:  cpu time    1.3946: real time    1.3986
 BZINTS: Fermi energy:  1.593093;778.000000 electrons
         Band energy:***********;  BLOECHL correction: -0.035652
       DOS:  cpu time    0.0234: real time    0.0236
    CHARGE:  cpu time    3.0315: real time    3.0393
    MIXING:  cpu time    0.0132: real time    0.0133
    --------------------------------------------
      LOOP:  cpu time   52.6906: real time   52.9180

 eigenvalue-minimisations  :  9233
 total energy-change (2. order) :-0.9998151E+02  (-0.1757295E+02)
 number of electron     778.0000033 magnetization     174.7275640
 augmentation part      380.3382522 magnetization     141.9289025

 Broyden mixing:
  rms(total) = 0.16799E+02    rms(broyden)= 0.16799E+02
  rms(prec ) = 0.19257E+02
  weight for this iteration     100.00

 eigenvalues of (default mixing * dielectric matrix)
  average eigenvalue GAMMA=   0.3431
  0.8418  0.3102  0.1101  0.1101

 Free energy of the ion-electron system (eV)
  ---------------------------------------------------
  alpha Z        PSCENC =      1751.32544349
  Ewald energy   TEWEN  =    237388.09739162
  -Hartree energ DENC   =   -306381.26171079
  -exchange      EXHF   =         0.00000000
  -V(xc)+E(xc)   XCENC  =      1327.41632517
  PAW double counting   =     71280.60501120   -73282.33002764
  entropy T*S    EENTRO =         0.00000000
  eigenvalues    EBANDS =     -1608.61986166
  atomic energy  EATOM  =     68993.34587830
  Solvation  Ediel_sol  =         0.00000000
  ---------------------------------------------------
  free energy    TOTEN  =      -531.42155030 eV

  energy without entropy =     -531.42155030  energy(sigma->0) =     -531.42155030


--------------------------------------------------------------------------------------------------------




--------------------------------------- Iteration      1(  10)  ---------------------------------------


    POTLOK:  cpu time    0.4737: real time    0.5284
    SETDIJ:  cpu time    0.0316: real time    0.0319
    EDDIAG:  cpu time   10.0063: real time   10.0762
  RMM-DIIS:  cpu time   37.6735: real time   37.7732
    ORTHCH:  cpu time    1.3971: real time    1.4012
 BZINTS: Fermi energy:  1.887169;778.000000 electrons
         Band energy:***********;  BLOECHL correction: -0.003950
       DOS:  cpu time    0.0245: real time    0.0245
    CHARGE:  cpu time    3.0330: real time    3.0408
    MIXING:  cpu time    0.0125: real time    0.0127
    --------------------------------------------
      LOOP:  cpu time   52.6522: real time   52.8889

 eigenvalue-minimisations  :  9240
 total energy-change (2. order) : 0.1133452E+03  (-0.1229979E+02)
 number of electron     778.0000035 magnetization     169.2760706
 augmentation part      381.7849191 magnetization     126.3590698

 Broyden mixing:
  rms(total) = 0.10545E+02    rms(broyden)= 0.10545E+02
  rms(prec ) = 0.13474E+02
  weight for this iteration     100.00

 eigenvalues of (default mixing * dielectric matrix)
  average eigenvalue GAMMA=   0.3492
  0.9362  0.4282  0.1461  0.1461  0.0896

 Free energy of the ion-electron system (eV)
  ---------------------------------------------------
  alpha Z        PSCENC =      1751.32544349
  Ewald energy   TEWEN  =    237388.09739162
  -Hartree energ DENC   =   -306771.41138643
  -exchange      EXHF   =         0.00000000
  -V(xc)+E(xc)   XCENC  =      1336.84096296
  PAW double counting   =     72585.90144222   -74647.61494242
  entropy T*S    EENTRO =         0.00000000
  eigenvalues    EBANDS =     -1054.56110394
  atomic energy  EATOM  =     68993.34587830
  Solvation  Ediel_sol  =         0.00000000
  ---------------------------------------------------
  free energy    TOTEN  =      -418.07631420 eV

  energy without entropy =     -418.07631420  energy(sigma->0) =     -418.07631420


--------------------------------------------------------------------------------------------------------




--------------------------------------- Iteration      1(  11)  ---------------------------------------


    POTLOK:  cpu time    0.4618: real time    0.4640
    SETDIJ:  cpu time    0.0313: real time    0.0314
    EDDIAG:  cpu time    9.9690: real time    9.9961
  RMM-DIIS:  cpu time   38.1708: real time   38.2729
    ORTHCH:  cpu time    1.4015: real time    1.4081
 BZINTS: Fermi energy:  1.951392;778.000000 electrons
         Band energy:-735.770504;  BLOECHL correction: -0.079679
       DOS:  cpu time    0.0258: real time    0.0259
    CHARGE:  cpu time    3.0498: real time    3.0587
    MIXING:  cpu time    0.0135: real time    0.0137
    --------------------------------------------
      LOOP:  cpu time   53.1235: real time   53.2710

 eigenvalue-minimisations  :  9263
 total energy-change (2. order) : 0.5914311E+02  (-0.8490705E+01)
 number of electron     778.0000035 magnetization     165.2036667
 augmentation part      373.6800505 magnetization     123.2553726

 Broyden mixing:
  rms(total) = 0.97094E+01    rms(broyden)= 0.97093E+01
  rms(prec ) = 0.10580E+02
  weight for this iteration     100.00

 eigenvalues of (default mixing * dielectric matrix)
  average eigenvalue GAMMA=   0.3521
  1.0590  0.4757  0.1674  0.1674  0.1504  0.0929

 Free energy of the ion-electron system (eV)
  ---------------------------------------------------
  alpha Z        PSCENC =      1751.32544349
  Ewald energy   TEWEN  =    237388.09739162
  -Hartree energ DENC   =   -306994.45299895
  -exchange      EXHF   =         0.00000000
  -V(xc)+E(xc)   XCENC  =      1336.97421035
  PAW double counting   =     73484.18089942   -75582.63352307
  entropy T*S    EENTRO =         0.00000000
  eigenvalues    EBANDS =      -735.77050436
  atomic energy  EATOM  =     68993.34587830
  Solvation  Ediel_sol  =         0.00000000
  ---------------------------------------------------
  free energy    TOTEN  =      -358.93320319 eV

  energy without entropy =     -358.93320319  energy(sigma->0) =     -358.93320319


--------------------------------------------------------------------------------------------------------




--------------------------------------- Iteration      1(  12)  ---------------------------------------


    POTLOK:  cpu time    0.4672: real time    0.4696
    SETDIJ:  cpu time    0.0314: real time    0.0316
    EDDIAG:  cpu time    9.9957: real time   10.0426
  RMM-DIIS:  cpu time   38.1526: real time   38.2554
    ORTHCH:  cpu time    1.4386: real time    1.4431
 BZINTS: Fermi energy:  2.051055;778.000000 electrons
         Band energy:-741.754059;  BLOECHL correction: -0.039094
       DOS:  cpu time    0.0223: real time    0.0224
    CHARGE:  cpu time    3.0286: real time    3.0363
    MIXING:  cpu time    0.0133: real time    0.0134
    --------------------------------------------
      LOOP:  cpu time   53.1497: real time   53.3145

 eigenvalue-minimisations  :  9267
 total energy-change (2. order) :-0.1019978E+02  (-0.5585874E+01)
 number of electron     778.0000034 magnetization     160.5893196
 augmentation part      372.0007476 magnetization     122.5494930

 Broyden mixing:
  rms(total) = 0.12051E+02    rms(broyden)= 0.12051E+02
  rms(prec ) = 0.13524E+02
  weight for this iteration     100.00

 eigenvalues of (default mixing * dielectric matrix)
  average eigenvalue GAMMA=   0.3521
  1.1893  0.4406  0.3367  0.1462  0.1462  0.0960  0.1094

 Free energy of the ion-electron system (eV)
  ---------------------------------------------------
  alpha Z        PSCENC =      1751.32544349
  Ewald energy   TEWEN  =    237388.09739162
  -Hartree energ DENC   =   -306981.69555825
  -exchange      EXHF   =         0.00000000
  -V(xc)+E(xc)   XCENC  =      1333.56817422
  PAW double counting   =     73993.03968779   -76105.05994048
  entropy T*S    EENTRO =         0.00000000
  eigenvalues    EBANDS =      -741.75405946
  atomic energy  EATOM  =     68993.34587830
  Solvation  Ediel_sol  =         0.00000000
  ---------------------------------------------------
  free energy    TOTEN  =      -369.13298278 eV

  energy without entropy =     -369.13298278  energy(sigma->0) =     -369.13298278


--------------------------------------------------------------------------------------------------------




--------------------------------------- Iteration      1(  13)  ---------------------------------------


    POTLOK:  cpu time    0.4635: real time    0.4660
    SETDIJ:  cpu time    0.0317: real time    0.0320
    EDDIAG:  cpu time   10.0258: real time   10.0833
  RMM-DIIS:  cpu time   38.2102: real time   38.3107
    ORTHCH:  cpu time    1.4061: real time    1.4111
 BZINTS: Fermi energy:  2.090795;778.000000 electrons
         Band energy:-655.969667;  BLOECHL correction: -0.042180
       DOS:  cpu time    0.0207: real time    0.0207
    CHARGE:  cpu time    3.0323: real time    3.0402
    MIXING:  cpu time    0.0138: real time    0.0139
    --------------------------------------------
      LOOP:  cpu time   53.2041: real time   53.3778

 eigenvalue-minimisations  :  9267
 total energy-change (2. order) : 0.3544375E+01  (-0.3961264E+01)
 number of electron     778.0000027 magnetization     156.1777447
 augmentation part      372.6311414 magnetization     117.2326767

 Broyden mixing:
  rms(total) = 0.99900E+01    rms(broyden)= 0.99899E+01
  rms(prec ) = 0.11153E+02
  weight for this iteration     100.00

 eigenvalues of (default mixing * dielectric matrix)
  average eigenvalue GAMMA=   0.3504
  1.2815  0.4569  0.4569  0.1499  0.1499  0.1268  0.0928  0.0881

 Free energy of the ion-electron system (eV)
  ---------------------------------------------------
  alpha Z        PSCENC =      1751.32544349
  Ewald energy   TEWEN  =    237388.09739162
  -Hartree energ DENC   =   -307050.87759806
  -exchange      EXHF   =         0.00000000
  -V(xc)+E(xc)   XCENC  =      1329.48861966
  PAW double counting   =     74530.17882841   -76651.17750382
  entropy T*S    EENTRO =         0.00000000
  eigenvalues    EBANDS =      -655.96966721
[...]
      9.837513  6.297569  6.970297            0           0           0  
      3.327475  0.887173  1.073320            0           0           0  
      9.370381  5.944442  1.033549            0           0           0  
      5.774364  3.511196  1.588832            0           0           0  
     11.780804  9.102106  3.012746            0           0           0  
     12.142208  7.864851  4.907167            0           0           0  
     12.898551  6.599928  3.085357            0           0           0  
      9.609021  4.409279  2.931659            0           0           0  
      8.514041  8.485214  6.957066            0           0           0  
      8.126536  8.259675  1.100142            0           0           0  
     10.595320  7.057317  2.726279            0           0           0  
      2.643452  0.125819  5.052866            0           0           0  
      8.182065  3.505601  1.219953            0           0           0  
      4.798505  1.622219  2.896171            0           0           0  
      5.809398  6.649898  3.247617            0           0           0  
      7.654684  0.412970  4.686986            0           0           0  
      9.463871  1.148653  6.551940            0           0           0  
     10.935596  8.500038  6.951500            0           0           0  
      9.362372  1.193342  1.330661            0           0           0  
     10.656315  8.732160  0.980213            0           0           0  
      5.031467  4.910390  4.716500            0           0           0  
     12.268341  3.065617  4.961597            0           0           0  
      9.642770  0.018962  3.434634            0           0           0  
      9.859490  3.061300  5.053340            0           0           0  
      6.317386  2.583125  4.702954            0           0           0  
     12.253127  4.174930  2.833240            0           0           0  
      2.095248  1.756232  3.073240            0           0           0  
     11.831281  5.721446  1.134235            0           0           0  
      6.857430  5.749036  1.303551            0           0           0  
      8.219787  6.815704  3.002248            0           0           0  
      7.040131  4.410259  3.274640            0           0           0  
     11.119490  3.907117  6.902584            0           0           0  
     10.736077  3.416087  1.011578            0           0           0  
     11.353957  0.819354  4.883300            0           0           0  
      9.676082  7.723209  4.957292            0           0           0  
      7.203849  7.639146  5.118877            0           0           0  
      5.078032  0.269348  4.939043            0           0           0  
      8.256076  0.389868  9.742859    -0.012949   -0.309485    0.950816  
 
   2 f  =   21.330461 THz   134.023239 2PiTHz  711.507567 cm-1    88.215727 meV
             X         Y         Z           dx          dy          dz
     13.777453  8.558230  6.644478            0           0           0  
      5.280725  8.551432  6.415754            0           0           0  
      5.122274  3.514166  6.838871            0           0           0  
     15.297793  9.364216  8.801488            0           0           0  
      3.894172  4.550464  9.022857            0           0           0  
      6.795169  9.233168  8.734818            0           0           0  
     12.343151  4.451398  9.071810            0           0           0  
      9.549016  9.279464  9.133888            0           0           0  
     10.926833  2.091556  8.746802            0           0           0  
      2.606871  2.083734  9.088411            0           0           0  
     12.339422  9.255146  9.054342            0           0           0  
     13.825696  6.932554  8.986004            0           0           0  
      5.316929  1.981071  9.097535            0           0           0  
      8.124116  6.803742  8.790515            0           0           0  
      9.510662  4.464070  8.782216            0           0           0  
      5.305489  6.912290  8.812099            0           0           0  
      8.168565  2.026896  8.931686            0           0           0  
      7.976687  3.375567  6.607987            0           0           0  
      6.556552  1.106045  6.802762            0           0           0  
      6.833851  1.229252  1.470327            0           0           0  
      3.612352  3.964682  2.619950            0           0           0  
      1.433529  1.425714  6.827936            0           0           0  
      0.671266  0.989103  1.081883            0           0           0  
      6.748073  9.008785  3.123421            0           0           0  
      6.722931  4.390803  8.937401            0           0           0  
      8.493301  5.384394  5.053784            0           0           0  
     10.987210  6.884009  9.095977            0           0           0  
     14.948842  7.376730  4.492489            0           0           0  
     12.485357  6.142803  6.831388            0           0           0  
      6.479816  5.900555  6.652125            0           0           0  
      3.574220  2.546241  4.958776            0           0           0  
     11.126137  5.452511  4.710247            0           0           0  
      3.882233  5.906268  6.705657            0           0           0  
     13.734382  8.588522  1.762771            0           0           0  
      4.876633  8.413947  1.577885            0           0           0  
      3.758771  6.384136  2.060921            0           0           0  
      8.358503  2.272242  3.294054            0           0           0  
      9.333665  9.158858  2.963491            0           0           0  
      2.473025  3.841325  6.959786            0           0           0  
      1.948917  3.123684  0.977335            0           0           0  
     10.751866  2.212205  3.056235            0           0           0  
     13.777989  5.058683  4.814702            0           0           0  
      3.961641  0.973603  7.023422            0           0           0  
      9.837513  6.297569  6.970297            0           0           0  
      3.327475  0.887173  1.073320            0           0           0  
      9.370381  5.944442  1.033549            0           0           0  
      5.774364  3.511196  1.588832            0           0           0  
     11.780804  9.102106  3.012746            0           0           0  
     12.142208  7.864851  4.907167            0           0           0  
     12.898551  6.599928  3.085357            0           0           0  
      9.609021  4.409279  2.931659            0           0           0  
      8.514041  8.485214  6.957066            0           0           0  
      8.126536  8.259675  1.100142            0           0           0  
     10.595320  7.057317  2.726279            0           0           0  
      2.643452  0.125819  5.052866            0           0           0  
      8.182065  3.505601  1.219953            0           0           0  
      4.798505  1.622219  2.896171            0           0           0  
      5.809398  6.649898  3.247617            0           0           0  
      7.654684  0.412970  4.686986            0           0           0  
      9.463871  1.148653  6.551940            0           0           0  
     10.935596  8.500038  6.951500            0           0           0  
      9.362372  1.193342  1.330661            0           0           0  
     10.656315  8.732160  0.980213            0           0           0  
      5.031467  4.910390  4.716500            0           0           0  
     12.268341  3.065617  4.961597            0           0           0  
      9.642770  0.018962  3.434634            0           0           0  
      9.859490  3.061300  5.053340            0           0           0  
      6.317386  2.583125  4.702954            0           0           0  
     12.253127  4.174930  2.833240            0           0           0  
      2.095248  1.756232  3.073240            0           0           0  
     11.831281  5.721446  1.134235            0           0           0  
      6.857430  5.749036  1.303551            0           0           0  
      8.219787  6.815704  3.002248            0           0           0  
      7.040131  4.410259  3.274640            0           0           0  
     11.119490  3.907117  6.902584            0           0           0  
     10.736077  3.416087  1.011578            0           0           0  
     11.353957  0.819354  4.883300            0           0           0  
      9.676082  7.723209  4.957292            0           0           0  
      7.203849  7.639146  5.118877            0           0           0  
      5.078032  0.269348  4.939043            0           0           0  
      8.256076  0.389868  9.742859     0.027829    0.950416    0.309734  
 
   3 f  =   19.624525 THz   123.304525 2PiTHz  654.603662 cm-1    81.160539 meV
             X         Y         Z           dx          dy          dz
     13.777453  8.558230  6.644478            0           0           0  
      5.280725  8.551432  6.415754            0           0           0  
      5.122274  3.514166  6.838871            0           0           0  
     15.297793  9.364216  8.801488            0           0           0  
      3.894172  4.550464  9.022857            0           0           0  
      6.795169  9.233168  8.734818            0           0           0  
     12.343151  4.451398  9.071810            0           0           0  
      9.549016  9.279464  9.133888            0           0           0  
     10.926833  2.091556  8.746802            0           0           0  
      2.606871  2.083734  9.088411            0           0           0  
     12.339422  9.255146  9.054342            0           0           0  
     13.825696  6.932554  8.986004            0           0           0  
      5.316929  1.981071  9.097535            0           0           0  
      8.124116  6.803742  8.790515            0           0           0  
      9.510662  4.464070  8.782216            0           0           0  
      5.305489  6.912290  8.812099            0           0           0  
      8.168565  2.026896  8.931686            0           0           0  
      7.976687  3.375567  6.607987            0           0           0  
      6.556552  1.106045  6.802762            0           0           0  
      6.833851  1.229252  1.470327            0           0           0  
      3.612352  3.964682  2.619950            0           0           0  
      1.433529  1.425714  6.827936            0           0           0  
      0.671266  0.989103  1.081883            0           0           0  
      6.748073  9.008785  3.123421            0           0           0  
      6.722931  4.390803  8.937401            0           0           0  
      8.493301  5.384394  5.053784            0           0           0  
     10.987210  6.884009  9.095977            0           0           0  
     14.948842  7.376730  4.492489            0           0           0  
     12.485357  6.142803  6.831388            0           0           0  
      6.479816  5.900555  6.652125            0           0           0  
      3.574220  2.546241  4.958776            0           0           0  
     11.126137  5.452511  4.710247            0           0           0  
      3.882233  5.906268  6.705657            0           0           0  
     13.734382  8.588522  1.762771            0           0           0  
      4.876633  8.413947  1.577885            0           0           0  
      3.758771  6.384136  2.060921            0           0           0  
      8.358503  2.272242  3.294054            0           0           0  
      9.333665  9.158858  2.963491            0           0           0  
      2.473025  3.841325  6.959786            0           0           0  
      1.948917  3.123684  0.977335            0           0           0  
     10.751866  2.212205  3.056235            0           0           0  
     13.777989  5.058683  4.814702            0           0           0  
      3.961641  0.973603  7.023422            0           0           0  
      9.837513  6.297569  6.970297            0           0           0  
      3.327475  0.887173  1.073320            0           0           0  
      9.370381  5.944442  1.033549            0           0           0  
      5.774364  3.511196  1.588832            0           0           0  
     11.780804  9.102106  3.012746            0           0           0  
     12.142208  7.864851  4.907167            0           0           0  
     12.898551  6.599928  3.085357            0           0           0  
      9.609021  4.409279  2.931659            0           0           0  
      8.514041  8.485214  6.957066            0           0           0  
      8.126536  8.259675  1.100142            0           0           0  
     10.595320  7.057317  2.726279            0           0           0  
      2.643452  0.125819  5.052866            0           0           0  
      8.182065  3.505601  1.219953            0           0           0  
      4.798505  1.622219  2.896171            0           0           0  
      5.809398  6.649898  3.247617            0           0           0  
      7.654684  0.412970  4.686986            0           0           0  
      9.463871  1.148653  6.551940            0           0           0  
     10.935596  8.500038  6.951500            0           0           0  
      9.362372  1.193342  1.330661            0           0           0  
     10.656315  8.732160  0.980213            0           0           0  
      5.031467  4.910390  4.716500            0           0           0  
     12.268341  3.065617  4.961597            0           0           0  
      9.642770  0.018962  3.434634            0           0           0  
      9.859490  3.061300  5.053340            0           0           0  
      6.317386  2.583125  4.702954            0           0           0  
     12.253127  4.174930  2.833240            0           0           0  
      2.095248  1.756232  3.073240            0           0           0  
     11.831281  5.721446  1.134235            0           0           0  
      6.857430  5.749036  1.303551            0           0           0  
      8.219787  6.815704  3.002248            0           0           0  
      7.040131  4.410259  3.274640            0           0           0  
     11.119490  3.907117  6.902584            0           0           0  
     10.736077  3.416087  1.011578            0           0           0  
     11.353957  0.819354  4.883300            0           0           0  
      9.676082  7.723209  4.957292            0           0           0  
      7.203849  7.639146  5.118877            0           0           0  
      5.078032  0.269348  4.939043            0           0           0  
      8.256076  0.389868  9.742859     0.999529   -0.030471    0.003694  
 
 Finite differences POTIM=  1.500000000000000E-002
  LATTYP: Found a hexagonal cell.
 ALAT       =    11.2227001190
 C/A-ratio  =     1.9603125600
  
  Lattice vectors:
  
 A1 = (   5.6113500595,  -9.7191434021,   0.0000000000)
 A2 = ( -11.2227001190,   0.0000000000,   0.0000000000)
 A3 = (   0.0000000000,   0.0000000000, -22.0000000000)


Analysis of symmetry for initial positions (statically):
=====================================================================
 Subroutine PRICEL returns:
 Original cell was already a primitive cell.
 

 Routine SETGRP: Setting up the symmetry group for a 
 hexagonal supercell.


 Subroutine GETGRP returns: Found  1 space group operations
 (whereof  1 operations were pure point group operations)
 out of a pool of 24 trial point group operations.


The static configuration has the point symmetry C_1 .


Analysis of symmetry for dynamics (positions and initial velocities):
=====================================================================
 Subroutine PRICEL returns:
 Original cell was already a primitive cell.
 

 Routine SETGRP: Setting up the symmetry group for a 
 hexagonal supercell.


 Subroutine GETGRP returns: Found  1 space group operations
 (whereof  1 operations were pure point group operations)
 out of a pool of 24 trial point group operations.


The dynamic configuration has the point symmetry C_1 .


Analysis of constrained symmetry for selective dynamics:
=====================================================================
 Subroutine PRICEL returns:
 Original cell was already a primitive cell.
 

 Routine SETGRP: Setting up the symmetry group for a 
 hexagonal supercell.


 Subroutine GETGRP returns: Found  1 space group operations
 (whereof  1 operations were pure point group operations)
 out of a pool of 24 trial point group operations.


The constrained configuration has the point symmetry C_1 .


Analysis of structural, dynamic, and magnetic symmetry:
=====================================================================
 Subroutine PRICEL returns:
 Original cell was already a primitive cell.
 

 Routine SETGRP: Setting up the symmetry group for a 
 hexagonal supercell.


 Subroutine GETGRP returns: Found  1 space group operations
 (whereof  1 operations were pure point group operations)
 out of a pool of 24 trial point group operations.


The magnetic configuration has the point symmetry C_1 .


 Subroutine INISYM returns: Found  1 space group operations
 (whereof  1 operations are pure point group operations),
 and found     1 'primitive' translations

 
 KPOINTS: mesh auto                               

Automatic generation of k-mesh.
Space group operators:
 irot       det(A)        alpha          n_x          n_y          n_z        tau_x        tau_y        tau_z
    1     1.000000     0.000000     1.000000     0.000000     0.000000     0.000000     0.000000     0.000000
 
 Subroutine IBZKPT returns following result:
 ===========================================
 
 Found      4 irreducible k-points:
 
 Following reciprocal coordinates:
            Coordinates               Weight
  0.000000  0.000000  0.000000      1.000000
  0.500000  0.000000  0.000000      1.000000
  0.000000  0.500000  0.000000      1.000000
  0.500000  0.500000  0.000000      1.000000
 
 Following cartesian coordinates:
            Coordinates               Weight
  0.000000  0.000000  0.000000      1.000000
  0.044553 -0.025722  0.000000      1.000000
  0.000000  0.051445  0.000000      1.000000
  0.044553  0.025722  0.000000      1.000000
 
 TETIRR: Found     12 inequivalent tetrahedra from       24
     LOOP+:  cpu time  596.8207: real time  599.4542
    4ORBIT:  cpu time    0.0000: real time    0.0000
 BZINTS: Fermi energy:  1.516484;778.000000 electrons
         Band energy:-897.988541;  BLOECHL correction: -0.237649

 total amount of memory used by VASP MPI-rank0   379504. kBytes
=======================================================================

   base      :      30000. kBytes
   nonlr-proj:      90618. kBytes
   fftplans  :      13535. kBytes
   grid      :     132462. kBytes
   one-center:       2519. kBytes
   wavefun   :     110370. kBytes
 
  
  
 General timing and accounting informations for this job:
 ========================================================
  
                  Total CPU time used (sec):     8109.774
                            User time (sec):     8070.279
                          System time (sec):       39.495
                         Elapsed time (sec):     8154.344
  
                   Maximum memory used (kb):      734632.
                   Average memory used (kb):           0.
  
                          Minor page faults:      3176040
                          Major page faults:          240
                 Voluntary context switches:         7146
