 vasp.5.4.4.18Apr17-6-g9f103f2a35 (build Oct 25 2019 11:13:22) complex          
  
 executed on             LinuxIFC date 2022.02.12  02:29:01
 running on   48 total cores
 distrk:  each k-point on   48 cores,    1 groups
 distr:  one band on NCORES_PER_BAND=   4 cores,   12 groups


--------------------------------------------------------------------------------------------------------


 INCAR:
 POTCAR:    PAW_PBE Pt 04Feb2005                  
 POTCAR:    PAW_PBE Co 02Aug2007                  
 POTCAR:    PAW_PBE Ni 02Aug2007                  
 POTCAR:    PAW_PBE H 15Jun2001                   
 POTCAR:    PAW_PBE Pt 04Feb2005                  
   VRHFIN =Pt: s1d9                                                             
   LEXCH  = PE                                                                  
   EATOM  =   729.1176 eV,   53.5886 Ry                                         
                                                                                
   TITEL  = PAW_PBE Pt 04Feb2005                                                
   LULTRA =        F    use ultrasoft PP ?                                      
   IUNSCR =        1    unscreen: 0-lin 1-nonlin 2-no                           
   RPACOR =    2.330    partial core radius                                     
   POMASS =  195.080; ZVAL   =   10.000    mass and valenz                      
   RCORE  =    2.600    outmost cutoff radius                                   
   RWIGS  =    2.750; RWIGS  =    1.455    wigner-seitz radius (au A)           
   ENMAX  =  230.283; ENMIN  =  172.712 eV                                      
   ICORE  =        3    local potential                                         
   LCOR   =        T    correct aug charges                                     
   LPAW   =        T    paw PP                                                  
   EAUG   =  358.966                                                            
   DEXC   =    0.000                                                            
   RMAX   =    2.658    core radius for proj-oper                               
   RAUG   =    1.300    factor for augmentation sphere                          
   RDEP   =    2.761    radius for radial grids                                 
   RDEPT  =    2.203    core radius for aug-charge                              
                                                                                
   Atomic configuration                                                         
   16 entries                                                                   
     n  l   j            E        occ.                                          
     1  0  0.50    -78401.1885   2.0000                                         
     2  0  0.50    -13770.7750   2.0000                                         
     2  1  1.50    -11931.0468   6.0000                                         
     3  0  0.50     -3234.7234   2.0000                                         
     3  1  1.50     -2699.2216   6.0000                                         
     3  2  2.50     -2119.5714  10.0000                                         
     4  0  0.50      -695.1528   2.0000                                         
     4  1  1.50      -519.6034   6.0000                                         
     4  2  2.50      -306.6786  10.0000                                         
     4  3  3.50       -70.1041  14.0000                                         
     5  0  0.50      -101.7747   2.0000                                         
     5  1  1.50       -55.9873   6.0000                                         
     5  2  2.50        -6.1423   9.0000                                         
     6  0  0.50        -5.6573   1.0000                                         
     6  1  1.50        -6.8029   0.0000                                         
     5  3  2.50        -1.3606   0.0000                                         
   Description                                                                  
     l       E           TYP  RCUT    TYP  RCUT                                 
     2     -6.1423404     23  2.500                                             
     2     -7.5029230     23  2.500                                             
     0     -5.6573207     23  2.500                                             
     0      0.7416693     23  2.500                                             
     1     -2.7211652     23  2.600                                             
     1     20.4087390     23  2.600                                             
     3     -1.3605826     23  2.500                                             
  local pseudopotential read in
  partial core-charges read in
  partial kinetic energy density read in
  atomic valenz-charges read in
  non local Contribution for L=           2  read in
    real space projection operators read in
  non local Contribution for L=           2  read in
    real space projection operators read in
  non local Contribution for L=           0  read in
    real space projection operators read in
  non local Contribution for L=           0  read in
    real space projection operators read in
  non local Contribution for L=           1  read in
    real space projection operators read in
  non local Contribution for L=           1  read in
    real space projection operators read in
    PAW grid and wavefunctions read in
 
   number of l-projection  operators is LMAX  =           6
   number of lm-projection operators is LMMAX =          18
 
 POTCAR:    PAW_PBE Co 02Aug2007                  
   VRHFIN =Co: d8 s1                                                            
   LEXCH  = PE                                                                  
   EATOM  =   813.3670 eV,   59.7808 Ry                                         
                                                                                
   TITEL  = PAW_PBE Co 02Aug2007                                                
   LULTRA =        F    use ultrasoft PP ?                                      
   IUNSCR =        1    unscreen: 0-lin 1-nonlin 2-no                           
   RPACOR =    2.000    partial core radius                                     
   POMASS =   58.933; ZVAL   =    9.000    mass and valenz                      
   RCORE  =    2.300    outmost cutoff radius                                   
   RWIGS  =    2.460; RWIGS  =    1.302    wigner-seitz radius (au A)           
   ENMAX  =  267.968; ENMIN  =  200.976 eV                                      
   RCLOC  =    1.203    cutoff for local pot                                    
   LCOR   =        T    correct aug charges                                     
   LPAW   =        T    paw PP                                                  
   EAUG   =  477.818                                                            
   DEXC   =    0.000                                                            
   RMAX   =    2.360    core radius for proj-oper                               
   RAUG   =    1.300    factor for augmentation sphere                          
   RDEP   =    2.393    radius for radial grids                                 
   RDEPT  =    1.864    core radius for aug-charge                              
                                                                                
   Atomic configuration                                                         
    9 entries                                                                   
     n  l   j            E        occ.                                          
     1  0  0.50     -7587.6674   2.0000                                         
     2  0  0.50      -893.6084   2.0000                                         
     2  1  1.50      -764.5805   6.0000                                         
     3  0  0.50       -97.5973   2.0000                                         
     3  1  1.50       -60.9648   6.0000                                         
     3  2  2.50        -4.2382   8.0000                                         
     4  0  0.50        -4.3746   1.0000                                         
     4  1  1.50        -4.0817   0.0000                                         
     4  3  2.50        -1.3606   0.0000                                         
   Description                                                                  
     l       E           TYP  RCUT    TYP  RCUT                                 
     2     -4.2382362     23  2.300                                             
     2     -5.5988188     23  2.300                                             
     0     -4.3745797     23  2.300                                             
     0      5.7660125     23  2.300                                             
     1     -2.7211652     23  2.300                                             
     1     16.9860234     23  2.300                                             
  local pseudopotential read in
  partial core-charges read in
  partial kinetic energy density read in
  atomic valenz-charges read in
  non local Contribution for L=           2  read in
    real space projection operators read in
  non local Contribution for L=           2  read in
    real space projection operators read in
  non local Contribution for L=           0  read in
    real space projection operators read in
  non local Contribution for L=           0  read in
    real space projection operators read in
  non local Contribution for L=           1  read in
    real space projection operators read in
  non local Contribution for L=           1  read in
    real space projection operators read in
    PAW grid and wavefunctions read in
 
   number of l-projection  operators is LMAX  =           6
   number of lm-projection operators is LMMAX =          18
 
 POTCAR:    PAW_PBE Ni 02Aug2007                  
   VRHFIN =Ni:                                                                  
   LEXCH  = PE                                                                  
   EATOM  =  1077.6739 eV,   79.2068 Ry                                         
                                                                                
   TITEL  = PAW_PBE Ni 02Aug2007                                                
   LULTRA =        F    use ultrasoft PP ?                                      
   IUNSCR =        1    unscreen: 0-lin 1-nonlin 2-no                           
   RPACOR =    2.000    partial core radius                                     
   POMASS =   58.690; ZVAL   =   10.000    mass and valenz                      
   RCORE  =    2.300    outmost cutoff radius                                   
   RWIGS  =    2.430; RWIGS  =    1.286    wigner-seitz radius (au A)           
   ENMAX  =  269.532; ENMIN  =  202.149 eV                                      
   RCLOC  =    1.201    cutoff for local pot                                    
   LCOR   =        T    correct aug charges                                     
   LPAW   =        T    paw PP                                                  
   EAUG   =  544.565                                                            
   DEXC   =    0.000                                                            
   RMAX   =    2.357    core radius for proj-oper                               
   RAUG   =    1.300    factor for augmentation sphere                          
   RDEP   =    2.390    radius for radial grids                                 
   RDEPT  =    1.838    core radius for aug-charge                              
                                                                                
   Atomic configuration                                                         
    9 entries                                                                   
     n  l   j            E        occ.                                          
     1  0  0.50     -8206.4253   2.0000                                         
     2  0  0.50      -976.1748   2.0000                                         
     2  1  1.50      -839.0571   6.0000                                         
     3  0  0.50      -105.9991   2.0000                                         
     3  1  1.50       -66.4603   6.0000                                         
     3  2  2.50        -4.6458   9.0000                                         
     4  0  0.50        -4.4926   1.0000                                         
     4  1  1.50        -4.0817   0.0000                                         
     4  3  2.50        -1.3606   0.0000                                         
   Description                                                                  
     l       E           TYP  RCUT    TYP  RCUT                                 
     2     -4.6457903     23  2.300                                             
     2     -6.0063729     23  2.300                                             
     0     -4.4925590     23  2.300                                             
     0      5.0102601     23  2.300                                             
     1     -2.7211652     23  2.300                                             
     1     16.5183231     23  2.300                                             
  local pseudopotential read in
  partial core-charges read in
  partial kinetic energy density read in
  atomic valenz-charges read in
  non local Contribution for L=           2  read in
    real space projection operators read in
  non local Contribution for L=           2  read in
    real space projection operators read in
  non local Contribution for L=           0  read in
    real space projection operators read in
  non local Contribution for L=           0  read in
    real space projection operators read in
  non local Contribution for L=           1  read in
    real space projection operators read in
  non local Contribution for L=           1  read in
    real space projection operators read in
    PAW grid and wavefunctions read in
 
   number of l-projection  operators is LMAX  =           6
   number of lm-projection operators is LMMAX =          18
 
 POTCAR:    PAW_PBE H 15Jun2001                   
   VRHFIN =H: ultrasoft test                                                    
   LEXCH  = PE                                                                  
   EATOM  =    12.4884 eV,    0.9179 Ry                                         
                                                                                
   TITEL  = PAW_PBE H 15Jun2001                                                 
   LULTRA =        F    use ultrasoft PP ?                                      
   IUNSCR =        0    unscreen: 0-lin 1-nonlin 2-no                           
   RPACOR =    0.000    partial core radius                                     
   POMASS =    1.000; ZVAL   =    1.000    mass and valenz                      
   RCORE  =    1.100    outmost cutoff radius                                   
   RWIGS  =    0.700; RWIGS  =    0.370    wigner-seitz radius (au A)           
   ENMAX  =  250.000; ENMIN  =  200.000 eV                                      
   RCLOC  =    0.701    cutoff for local pot                                    
   LCOR   =        T    correct aug charges                                     
   LPAW   =        T    paw PP                                                  
   EAUG   =  400.000                                                            
   RMAX   =    1.123    core radius for proj-oper                               
   RAUG   =    1.200    factor for augmentation sphere                          
   RDEP   =    1.112    radius for radial grids                                 
   RDEPT  =    0.926    core radius for aug-charge                              
                                                                                
   Atomic configuration                                                         
    2 entries                                                                   
     n  l   j            E        occ.                                          
     1  0  0.50        -6.4927   1.0000                                         
     2  1  0.50        -3.4015   0.0000                                         
   Description                                                                  
     l       E           TYP  RCUT    TYP  RCUT                                 
     0     -6.4927494     23  1.100                                             
     0      6.8029130     23  1.100                                             
     1     -4.0817478     23  1.100                                             
  local pseudopotential read in
  atomic valenz-charges read in
  non local Contribution for L=           0  read in
    real space projection operators read in
  non local Contribution for L=           0  read in
    real space projection operators read in
  non local Contribution for L=           1  read in
    real space projection operators read in
    PAW grid and wavefunctions read in
 
   number of l-projection  operators is LMAX  =           3
   number of lm-projection operators is LMMAX =           5
 
 Optimization of the real space projectors (new method)

 maximal supplied QI-value         = 14.36
 optimisation between [QCUT,QGAM] = [ 11.92, 23.98] = [ 39.79,161.09] Ry 
 Optimized for a Real-space Cutoff    1.49 Angstroem

   l    n(q)    QCUT    max X(q) W(low)/X(q) W(high)/X(q)  e(spline) 
   2     10    11.920    66.195    0.79E-04    0.18E-03    0.24E-06
   2     10    11.920    64.643    0.81E-04    0.19E-03    0.24E-06
   0     11    11.920    95.520    0.28E-04    0.54E-04    0.18E-06
   0     11    11.920    63.403    0.27E-04    0.52E-04    0.17E-06
   1     10    11.920    19.961    0.18E-04    0.11E-03    0.23E-06
   1     10    11.920    13.289    0.25E-04    0.87E-04    0.19E-06
 Optimization of the real space projectors (new method)

 maximal supplied QI-value         = 16.25
 optimisation between [QCUT,QGAM] = [ 11.86, 23.89] = [ 39.41,159.82] Ry 
 Optimized for a Real-space Cutoff    1.33 Angstroem

   l    n(q)    QCUT    max X(q) W(low)/X(q) W(high)/X(q)  e(spline) 
   2      9    11.864    65.824    0.22E-03    0.53E-03    0.26E-06
   2      9    11.864    61.429    0.22E-03    0.53E-03    0.26E-06
   0      9    11.864    56.174    0.21E-03    0.32E-04    0.15E-06
   0      9    11.864    31.263    0.19E-03    0.30E-04    0.14E-06
   1      9    11.864    19.828    0.63E-04    0.30E-03    0.16E-06
   1      9    11.864    15.139    0.49E-04    0.25E-03    0.13E-06
 Optimization of the real space projectors (new method)

 maximal supplied QI-value         = 16.25
 optimisation between [QCUT,QGAM] = [ 11.86, 23.89] = [ 39.41,159.82] Ry 
 Optimized for a Real-space Cutoff    1.33 Angstroem

   l    n(q)    QCUT    max X(q) W(low)/X(q) W(high)/X(q)  e(spline) 
   2      9    11.864    60.317    0.21E-03    0.51E-03    0.25E-06
   2      9    11.864    55.921    0.21E-03    0.51E-03    0.26E-06
   0      9    11.864    51.690    0.22E-03    0.30E-04    0.17E-06
   0      9    11.864    30.015    0.20E-03    0.28E-04    0.15E-06
   1      9    11.864    18.849    0.76E-04    0.33E-03    0.17E-06
   1      9    11.864    14.624    0.60E-04    0.28E-03    0.15E-06
 Optimization of the real space projectors (new method)

 maximal supplied QI-value         = 34.20
 optimisation between [QCUT,QGAM] = [ 11.97, 23.94] = [ 40.13,160.53] Ry 
 Optimized for a Real-space Cutoff    1.18 Angstroem

   l    n(q)    QCUT    max X(q) W(low)/X(q) W(high)/X(q)  e(spline) 
   0      8    11.971    19.460    0.15E-03    0.31E-03    0.25E-06
   0      8    11.971    12.209    0.13E-03    0.29E-03    0.25E-06
   1      8    11.971     4.655    0.22E-03    0.24E-03    0.21E-06
  PAW_PBE Pt 04Feb2005                  :
 energy of atom  1       EATOM= -729.1176
 kinetic energy error for atom=    0.0021 (will be added to EATOM!!)
  PAW_PBE Co 02Aug2007                  :
 energy of atom  2       EATOM= -813.3670
 kinetic energy error for atom=    0.0026 (will be added to EATOM!!)
  PAW_PBE Ni 02Aug2007                  :
 energy of atom  3       EATOM=-1077.6739
 kinetic energy error for atom=    0.0027 (will be added to EATOM!!)
  PAW_PBE H 15Jun2001                   :
 energy of atom  4       EATOM=  -12.4884
 kinetic energy error for atom=    0.0008 (will be added to EATOM!!)
 
 
 POSCAR: 11.26                                   
  positions in direct lattice
  velocities in cartesian coordinates
 exchange correlation table for  LEXCH =        8
   RHO(1)=    0.500       N(1)  =     2000
   RHO(2)=  100.500       N(2)  =     4000
 


--------------------------------------------------------------------------------------------------------


 ion  position               nearest neighbor table
   1  0.789  0.879  0.301-  49 2.47  59 2.56  60 2.64  28 2.69   4 2.73   2 2.74  29 2.75  19 2.80
                            11 2.85  12 2.85  61 2.89  33 2.94
   2  0.033  0.879  0.293-  79 2.49  77 2.57  60 2.72   1 2.74  28 2.76   4 2.81   6 2.89  30 2.90
                            16 2.94  33 2.99  22 3.17  52 3.23
   3  0.276  0.362  0.311-  64 2.54  68 2.62  31 2.63  39 2.67  33 2.70   5 2.71  30 2.76  13 2.76
                            25 2.78  19 2.81  43 2.82  18 2.87
   4  0.875  0.964  0.400-  60 2.71   9 2.72  17 2.72   1 2.73   6 2.79  16 2.79  12 2.81   2 2.81
                            11 2.83
   5  0.113  0.467  0.410-  39 2.60  33 2.70   3 2.71  12 2.72  16 2.73  10 2.76   7 2.77  25 2.85
                            13 2.98
   6  0.125  0.959  0.400-  52 2.62  22 2.70   4 2.79   8 2.83  16 2.86   9 2.88   2 2.89  10 2.90
                            14 2.91
   7  0.873  0.455  0.412-  75 2.54  39 2.58   5 2.77  10 2.79  27 2.80   9 2.80  29 2.82  15 2.84
                            12 2.93
   8  0.377  0.956  0.415-  43 2.53  52 2.56  61 2.68  13 2.75  27 2.80  11 2.81   6 2.83  10 2.84
                            14 2.90
   9  0.864  0.211  0.396-  75 2.60  22 2.67   4 2.72  17 2.73  15 2.74  60 2.77   7 2.80   6 2.88
                            10 3.01
  10  0.129  0.214  0.413-  22 2.64  43 2.69  13 2.72   5 2.76  39 2.77   7 2.79   8 2.84   6 2.90
                             9 3.01
  11  0.629  0.952  0.410-  61 2.65  12 2.71  19 2.73  27 2.76  17 2.79  13 2.81   8 2.81   4 2.83
                             1 2.85
  12  0.875  0.714  0.408-  29 2.66  16 2.68  11 2.71   5 2.72   4 2.81  33 2.81  27 2.83   1 2.85
                             7 2.93
  13  0.378  0.200  0.413-  81 1.51  43 2.70  10 2.72  19 2.73   8 2.75   3 2.76  25 2.78  17 2.80
                            11 2.81   5 2.98
  14  0.381  0.696  0.403-  52 2.55  44 2.56  15 2.69  25 2.81  27 2.84  30 2.88  16 2.90   8 2.90
                             6 2.91
  15  0.620  0.456  0.399-  75 2.53  44 2.61  14 2.69   9 2.74  25 2.79  17 2.83   7 2.84  18 2.85
                            27 2.87
  16  0.116  0.709  0.404-  12 2.68  30 2.69   5 2.73  33 2.76   4 2.79   6 2.86  14 2.90  25 2.92
                             2 2.94
  17  0.627  0.201  0.404-  18 2.69   4 2.72   9 2.73  19 2.79  11 2.79  25 2.79  13 2.80  60 2.82
                            15 2.83
  18  0.538  0.348  0.301-  67 2.46  26 2.59  68 2.67  17 2.69  60 2.69  19 2.70  25 2.82  15 2.85
                             3 2.87  30 2.95  75 3.20
  19  0.527  0.113  0.308-  59 2.47  80 2.51  68 2.57  43 2.61  61 2.63  18 2.70  13 2.73  11 2.73
                            17 2.79   1 2.80   3 2.81  60 2.92
  20  0.546  0.126  0.067-  48 2.50  57 2.52  47 2.52  62 2.53  37 2.60  56 2.66  34 2.70  63 2.89

  21  0.118  0.408  0.119-  47 2.44  40 2.48  36 2.49  69 2.60  57 2.64  42 2.67  64 2.70  70 2.72
                            31 2.74  50 3.30
  22  0.055  0.148  0.310-  77 2.43  65 2.51  55 2.51  43 2.57  39 2.62  10 2.64   9 2.67   6 2.70
                            75 2.90  31 3.04  52 3.05   2 3.17  60 3.23
  23  0.009  0.102  0.049-  40 2.49  62 2.55  70 2.57  41 2.59  45 2.66  76 2.69  24 2.70  35 2.74
                            53 3.07
  24  0.138  0.927  0.142-  79 2.46  35 2.50  77 2.54  58 2.54  53 2.56  55 2.59  38 2.59  73 2.64
                            70 2.65  23 2.70  66 2.83
  25  0.376  0.448  0.407-  81 1.54  30 2.76  13 2.78   3 2.78  15 2.79  17 2.79  14 2.81  18 2.82
                             5 2.85  16 2.92
  26  0.480  0.554  0.230-  74 2.50  73 2.52  44 2.52  51 2.59  18 2.59  79 2.60  78 2.62  30 2.63
                            32 2.66  67 2.70
  27  0.627  0.707  0.413-  44 2.49  61 2.70  11 2.76   7 2.80   8 2.80  29 2.80  12 2.83  14 2.84
                            15 2.87
  28  0.953  0.759  0.204-  58 2.53  50 2.61  66 2.61  42 2.62  36 2.63  33 2.66   1 2.69   2 2.76
                            64 2.80  49 2.88  34 3.22  59 3.23  35 3.30
  29  0.797  0.631  0.311-  39 2.59  32 2.61  49 2.62  75 2.62  42 2.63  33 2.64  44 2.65  12 2.66
                             1 2.75  27 2.80   7 2.82  61 2.84
  30  0.274  0.608  0.304-  79 2.43  33 2.60  26 2.63  64 2.65  16 2.69  25 2.76   3 2.76  14 2.88
                             2 2.90  18 2.95  52 3.26
  31  0.187  0.262  0.225-  70 2.52  57 2.57  65 2.58  55 2.59  39 2.62   3 2.63  43 2.63  42 2.72
                            80 2.73  21 2.74  68 2.76  64 2.79  22 3.04
  32  0.711  0.561  0.214-  69 2.53  51 2.56  54 2.61  29 2.61  49 2.62  26 2.66  65 2.66  50 2.66
                            42 2.68  75 2.69  78 2.71  67 2.73  44 2.73
  33  0.042  0.609  0.305-  42 2.47  64 2.50  39 2.51  30 2.60  29 2.64  28 2.66   5 2.70   3 2.70
                            16 2.76  12 2.81   1 2.94   2 2.99
  34  0.782  0.884  0.080-  48 2.38  35 2.38  50 2.53  66 2.54  36 2.55  62 2.67  20 2.70  28 3.22

  35  0.002  0.866  0.072-  36 2.37  34 2.38  66 2.43  24 2.50  58 2.60  23 2.74  62 2.75  28 3.30

  36  0.006  0.657  0.094-  50 2.33  35 2.37  58 2.38  21 2.49  34 2.55  28 2.63
  37  0.628  0.234  0.150-  41 2.41  56 2.42  59 2.43  67 2.44  62 2.45  68 2.50  51 2.50  74 2.51
                            20 2.60  66 2.60
  38  0.361  0.942  0.135-  53 2.40  45 2.41  63 2.42  57 2.43  48 2.45  55 2.45  54 2.46  78 2.48
                            80 2.54  73 2.59  24 2.59  70 2.83
  39  0.024  0.396  0.316-  42 2.46  33 2.51   7 2.58  75 2.58  65 2.58  29 2.59   5 2.60  31 2.62
                            22 2.62   3 2.67  10 2.77
  40  0.013  0.321  0.044-  69 2.32  76 2.45  21 2.48  23 2.49  70 2.51  45 2.63  71 2.93
  41  0.844  0.228  0.139-  67 2.35  76 2.37  77 2.38  37 2.41  62 2.44  51 2.48  69 2.48  66 2.49
                            65 2.58  23 2.59  70 2.61
  42  0.967  0.520  0.219-  39 2.46  33 2.47  50 2.48  64 2.48  65 2.50  28 2.62  29 2.63  69 2.65
                            21 2.67  32 2.68  31 2.72
  43  0.303  0.099  0.319-  52 2.45  80 2.46  55 2.51   8 2.53  61 2.56  22 2.57  19 2.61  31 2.63
                            10 2.69  13 2.70   3 2.82
  44  0.553  0.648  0.317-  61 2.45  78 2.47  27 2.49  26 2.52  14 2.56  52 2.57  15 2.61  29 2.65
                            75 2.73  32 2.73
  45  0.251  0.091  0.049-  38 2.41  57 2.45  53 2.48  70 2.50  63 2.54  40 2.63  23 2.66
  46  0.529  0.612  0.047-  54 2.37  73 2.44  51 2.45  71 2.47  72 2.53  53 2.63  56 2.72  76 2.87
                            63 3.07
  47  0.334  0.361  0.072-  74 2.29  56 2.44  21 2.44  57 2.50  72 2.50  20 2.52
  48  0.581  0.937  0.137-  49 2.29  63 2.35  34 2.38  54 2.38  80 2.38  38 2.45  59 2.46  20 2.50
                            57 2.63  50 2.74
  49  0.677  0.809  0.223-  48 2.29  50 2.34  61 2.46  78 2.47   1 2.47  59 2.54  80 2.57  29 2.62
                            32 2.62  54 2.79  28 2.88
  50  0.810  0.679  0.140-  36 2.33  49 2.34  54 2.38  71 2.39  42 2.48  69 2.52  34 2.53  28 2.61
                            32 2.66  48 2.74  21 3.30
  51  0.629  0.454  0.133-  56 2.40  76 2.44  46 2.45  41 2.48  37 2.50  67 2.53  32 2.56  26 2.59
                            74 2.59  69 2.66  73 2.78  54 2.83
  52  0.320  0.872  0.317-  55 2.38  79 2.41  61 2.43  43 2.45  78 2.46  14 2.55   8 2.56  44 2.57
                             6 2.62  22 3.05   2 3.23  30 3.26
  53  0.299  0.850  0.050-  73 2.39  38 2.40  45 2.48  24 2.56  63 2.58  46 2.63  72 2.82  23 3.07

  54  0.581  0.726  0.124-  46 2.37  50 2.38  48 2.38  73 2.40  71 2.42  63 2.42  38 2.46  78 2.50
                            32 2.61  49 2.79  51 2.83
  55  0.229  0.013  0.230-  52 2.38  80 2.44  79 2.44  38 2.45  43 2.51  22 2.51  78 2.56  24 2.59
                            31 2.59  77 2.61  70 2.62
  56  0.549  0.361  0.055-  51 2.40  37 2.42  47 2.44  74 2.52  76 2.56  62 2.60  72 2.61  20 2.66
                            46 2.72
  57  0.344  0.167  0.132-  38 2.43  45 2.45  80 2.47  47 2.50  20 2.52  68 2.55  31 2.57  48 2.63
                            21 2.64  70 2.71
  58  0.176  0.684  0.148-  36 2.38  72 2.39  64 2.41  73 2.43  28 2.53  79 2.53  24 2.54  74 2.56
                            35 2.60
  59  0.661  0.042  0.213-  66 2.38  37 2.43  48 2.46  19 2.47  49 2.54  68 2.55   1 2.56  80 2.59
                            60 2.68  28 3.23
  60  0.785  0.116  0.297-  67 2.47  77 2.53   1 2.64  59 2.68  18 2.69   4 2.71   2 2.72   9 2.77
                            17 2.82  19 2.92  22 3.23
  61  0.536  0.875  0.316-  52 2.43  44 2.45  49 2.46  78 2.48  80 2.51  43 2.56  19 2.63  11 2.65
                             8 2.68  27 2.70  29 2.84   1 2.89
  62  0.773  0.123  0.060-  66 2.43  41 2.44  37 2.45  20 2.53  23 2.55  56 2.60  76 2.63  34 2.67
                            35 2.75
  63  0.500  0.898  0.045-  48 2.35  54 2.42  38 2.42  45 2.54  53 2.58  20 2.89  46 3.07
  64  0.196  0.505  0.214-  58 2.41  42 2.48  33 2.50  74 2.52   3 2.54  30 2.65  68 2.66  21 2.70
                            31 2.79  28 2.80
  65  0.935  0.315  0.226-  75 2.39  69 2.40  67 2.41  77 2.43  42 2.50  22 2.51  70 2.53  41 2.58
                            31 2.58  39 2.58  32 2.66
  66  0.858  0.002  0.156-  77 2.38  59 2.38  62 2.43  35 2.43  41 2.49  34 2.54  37 2.60  28 2.61
                            24 2.83
  67  0.721  0.315  0.230-  41 2.35  75 2.39  65 2.41  37 2.44  18 2.46  60 2.47  51 2.53  26 2.70
                            77 2.70  32 2.73
  68  0.430  0.266  0.214-  74 2.43  37 2.50  57 2.55  59 2.55  19 2.57   3 2.62  80 2.64  64 2.66
                            18 2.67  31 2.76
  69  0.877  0.430  0.129-  40 2.32  71 2.34  65 2.40  41 2.48  76 2.49  50 2.52  32 2.53  21 2.60
                            42 2.65  70 2.65  51 2.66
  70  0.096  0.181  0.140-  45 2.50  40 2.51  31 2.52  65 2.53  23 2.57  41 2.61  55 2.62  24 2.65
                            69 2.65  57 2.71  21 2.72  77 2.83  38 2.83
  71  0.760  0.589  0.052-  69 2.34  50 2.39  54 2.42  46 2.47  76 2.56  40 2.93
  72  0.315  0.592  0.059-  58 2.39  74 2.39  73 2.42  47 2.50  46 2.53  56 2.61  53 2.82
  73  0.382  0.701  0.136-  53 2.39  54 2.40  72 2.42  58 2.43  46 2.44  79 2.49  26 2.52  38 2.59
                            78 2.60  24 2.64  74 2.69  51 2.78
  74  0.400  0.454  0.149-  47 2.29  72 2.39  68 2.43  26 2.50  37 2.51  56 2.52  64 2.52  58 2.56
                            51 2.59  73 2.69
  75  0.792  0.401  0.314-  67 2.39  65 2.39  15 2.53   7 2.54  39 2.58   9 2.60  29 2.62  32 2.69
                            44 2.73  22 2.90  18 3.20
  76  0.781  0.351  0.046-  41 2.37  51 2.44  40 2.45  69 2.49  71 2.56  56 2.56  62 2.63  23 2.69
                            46 2.87
  77  0.970  0.084  0.222-  41 2.38  66 2.38  65 2.43  22 2.43  60 2.53  24 2.54   2 2.57  55 2.61
                            67 2.70  70 2.83
  78  0.465  0.795  0.225-  52 2.46  49 2.47  44 2.47  61 2.48  79 2.48  38 2.48  80 2.48  54 2.50
                            55 2.56  73 2.60  26 2.62  32 2.71
  79  0.249  0.786  0.233-  52 2.41  30 2.43  55 2.44  24 2.46  78 2.48  73 2.49   2 2.49  58 2.53
                            26 2.60
  80  0.439  0.028  0.225-  48 2.38  55 2.44  43 2.46  57 2.47  78 2.48  19 2.51  61 2.51  38 2.54
                            49 2.57  59 2.59  68 2.64  31 2.73
  81  0.378  0.326  0.438-  13 1.51  25 1.54
 
  LATTYP: Found a hexagonal cell.
 ALAT       =    11.2227001190
 C/A-ratio  =     1.9603125600
  
  Lattice vectors:
  
 A1 = (   5.6113500595,  -9.7191434021,   0.0000000000)
 A2 = ( -11.2227001190,   0.0000000000,   0.0000000000)
 A3 = (   0.0000000000,   0.0000000000, -22.0000000000)


Analysis of symmetry for initial positions (statically):
=====================================================================
 Subroutine PRICEL returns:
 Original cell was already a primitive cell.
 

 Routine SETGRP: Setting up the symmetry group for a 
 hexagonal supercell.


 Subroutine GETGRP returns: Found  1 space group operations
 (whereof  1 operations were pure point group operations)
 out of a pool of 24 trial point group operations.


The static configuration has the point symmetry C_1 .


Analysis of symmetry for dynamics (positions and initial velocities):
=====================================================================
 Subroutine PRICEL returns:
 Original cell was already a primitive cell.
 

 Routine SETGRP: Setting up the symmetry group for a 
 hexagonal supercell.


 Subroutine GETGRP returns: Found  1 space group operations
 (whereof  1 operations were pure point group operations)
 out of a pool of 24 trial point group operations.


The dynamic configuration has the point symmetry C_1 .


Analysis of constrained symmetry for selective dynamics:
=====================================================================
 Subroutine PRICEL returns:
 Original cell was already a primitive cell.
 

 Routine SETGRP: Setting up the symmetry group for a 
 hexagonal supercell.


 Subroutine GETGRP returns: Found  1 space group operations
 (whereof  1 operations were pure point group operations)
 out of a pool of 24 trial point group operations.


The constrained configuration has the point symmetry C_1 .


Analysis of structural, dynamic, and magnetic symmetry:
=====================================================================
 Subroutine PRICEL returns:
 Original cell was already a primitive cell.
 

 Routine SETGRP: Setting up the symmetry group for a 
 hexagonal supercell.


 Subroutine GETGRP returns: Found  1 space group operations
 (whereof  1 operations were pure point group operations)
 out of a pool of 24 trial point group operations.


The magnetic configuration has the point symmetry C_1 .


 Subroutine INISYM returns: Found  1 space group operations
 (whereof  1 operations are pure point group operations),
 and found     1 'primitive' translations

 
 
 KPOINTS: mesh auto                               

Automatic generation of k-mesh.
Space group operators:
 irot       det(A)        alpha          n_x          n_y          n_z        tau_x        tau_y        tau_z
    1     1.000000     0.000000     1.000000     0.000000     0.000000     0.000000     0.000000     0.000000
 
 Subroutine IBZKPT returns following result:
 ===========================================
 
 Found      4 irreducible k-points:
 
 Following reciprocal coordinates:
            Coordinates               Weight
  0.000000  0.000000  0.000000      1.000000
  0.500000  0.000000  0.000000      1.000000
  0.000000  0.500000  0.000000      1.000000
  0.500000  0.500000  0.000000      1.000000
 
 Following cartesian coordinates:
            Coordinates               Weight
  0.000000  0.000000  0.000000      1.000000
  0.044553 -0.025722  0.000000      1.000000
  0.000000  0.051445  0.000000      1.000000
  0.044553  0.025722  0.000000      1.000000
 


--------------------------------------------------------------------------------------------------------




 Dimension of arrays:
   k-points           NKPTS =      4   k-points in BZ     NKDIM =      4   number of bands    NBANDS=    576
   number of dos      NEDOS =    301   number of ions     NIONS =     81
   non local maximal  LDIM  =      6   non local SUM 2l+1 LMDIM =     18
   total plane-waves  NPLWV = ******
   max r-space proj   IRMAX =   7929   max aug-charges    IRDMAX=  34542
   dimension x,y,z NGX =    90 NGY =   90 NGZ =  168
   dimension x,y,z NGXF=   180 NGYF=  180 NGZF=  336
   support grid    NGXF=   180 NGYF=  180 NGZF=  336
   ions per type =              32  23  25   1
   NGX,Y,Z   is equivalent  to a cutoff of  13.33, 13.33, 12.70 a.u.
   NGXF,Y,Z  is equivalent  to a cutoff of  26.66, 26.66, 25.39 a.u.

 SYSTEM =  Pt111                                   
 POSCAR =  11.26                                   

 Startparameter for this run:
   NWRITE =      2    write-flag & timer
   PREC   = accura    normal or accurate (medium, high low for compatibility)
   ISTART =      0    job   : 0-new  1-cont  2-samecut
   ICHARG =      2    charge: 1-file 2-atom 10-const
   ISPIN  =      2    spin polarized calculation?
   LNONCOLLINEAR =      F non collinear calculations
   LSORBIT =      F    spin-orbit coupling
   INIWAV =      1    electr: 0-lowe 1-rand  2-diag
   LASPH  =      F    aspherical Exc in radial PAW
   METAGGA=      F    non-selfconsistent MetaGGA calc.

 Electronic Relaxation 1
   ENCUT  =  550.0 eV  40.42 Ry    6.36 a.u.  21.46 21.46 42.07*2*pi/ulx,y,z
   ENINI  =  550.0     initial cutoff
   ENAUG  =  544.6 eV  augmentation charge cutoff
   NELM   =    200;   NELMIN=  2; NELMDL= -5     # of ELM steps 
   EDIFF  = 0.1E-04   stopping-criterion for ELM
   LREAL  =      T    real-space projection
   NLSPLINE    = F    spline interpolate recip. space projectors
   LCOMPAT=      F    compatible to vasp.4.4
   GGA_COMPAT  = T    GGA compatible to vasp.4.4-vasp.4.6
   LMAXPAW     = -100 max onsite density
   LMAXMIX     =    2 max onsite mixed and CHGCAR
   VOSKOWN=      0    Vosko Wilk Nusair interpolation
   ROPT   =   -0.00025  -0.00025  -0.00025  -0.00025
 Ionic relaxation
   EDIFFG = -.5E-01   stopping-criterion for IOM
   NSW    =    300    number of steps for IOM
   NBLOCK =      1;   KBLOCK =    300    inner block; outer block 
   IBRION =      2    ionic relax: 0-MD 1-quasi-New 2-CG
   NFREE  =      1    steps in history (QN), initial steepest desc. (CG)
   ISIF   =      2    stress and relaxation
   IWAVPR =     11    prediction:  0-non 1-charg 2-wave 3-comb
   ISYM   =      2    0-nonsym 1-usesym 2-fastsym
   LCORR  =      T    Harris-Foulkes like correction to forces

   POTIM  = 0.5000    time-step for ionic-motion
   TEIN   =    0.0    initial temperature
   TEBEG  =    0.0;   TEEND  =   0.0 temperature during run
   SMASS  =  -3.00    Nose mass-parameter (am)
   estimated Nose-frequenzy (Omega)   =  0.10E-29 period in steps =****** mass=  -0.288E-26a.u.
   SCALEE = 1.0000    scale energy and forces
   NPACO  =    256;   APACO  = 16.0  distance and # of slots for P.C.
   PSTRESS=    0.0 pullay stress

  Mass of Ions in am
   POMASS = 195.08 58.93 58.69  1.00
  Ionic Valenz
   ZVAL   =  10.00  9.00 10.00  1.00
  Atomic Wigner-Seitz radii
   RWIGS  =  -1.00 -1.00 -1.00 -1.00
  virtual crystal weights 
   VCA    =   1.00  1.00  1.00  1.00
   NELECT =     778.0000    total number of electrons
   NUPDOWN=      -1.0000    fix difference up-down

 DOS related values:
   EMIN   =  10.00;   EMAX   =-10.00  energy-range for DOS
   EFERMI =   0.00
   ISMEAR =     1;   SIGMA  =   0.10  broadening in eV -4-tet -1-fermi 0-gaus

 Electronic relaxation 2 (details)
   IALGO  =     68    algorithm
   LDIAG  =      T    sub-space diagonalisation (order eigenvalues)
   LSUBROT=      F    optimize rotation matrix (better conditioning)
   TURBO    =      0    0=normal 1=particle mesh
   IRESTART =      0    0=no restart 2=restart with 2 vectors
   NREBOOT  =      0    no. of reboots
   NMIN     =      0    reboot dimension
   EREF     =   0.00    reference energy to select bands
   IMIX   =      4    mixing-type and parameters
     AMIX     =   0.40;   BMIX     =  1.00
     AMIX_MAG =   1.60;   BMIX_MAG =  1.00
     AMIN     =   0.10
     WC   =   100.;   INIMIX=   1;  MIXPRE=   1;  MAXMIX= -45

 Intra band minimization:
   WEIMIN = 0.0010     energy-eigenvalue tresh-hold
   EBREAK =  0.43E-08  absolut break condition
   DEPER  =   0.30     relativ break condition  

   TIME   =   0.40     timestep for ELM

  volume/ion in A,a.u.               =      29.63       199.92
  Fermi-wavevector in a.u.,A,eV,Ry     =   1.124653  2.125287 17.209264  1.264845
  Thomas-Fermi vector in A             =   2.261326
 
 Write flags
   LWAVE        =      F    write WAVECAR
   LDOWNSAMPLE  =      F    k-point downsampling of WAVECAR
   LCHARG       =      F    write CHGCAR
   LVTOT        =      F    write LOCPOT, total local potential
   LVHAR        =      F    write LOCPOT, Hartree potential only
   LELF         =      F    write electronic localiz. function (ELF)
   LORBIT       =      0    0 simple, 1 ext, 2 COOP (PROOUT), +10 PAW based schemes


 Dipole corrections
   LMONO  =      F    monopole corrections only (constant potential shift)
   LDIPOL =      F    correct potential (dipole corrections)
   IDIPOL =      0    1-x, 2-y, 3-z, 4-all directions 
   EPSILON=  1.0000000 bulk dielectric constant

 Exchange correlation treatment:
   GGA     =    --    GGA type
   LEXCH   =     8    internal setting for exchange type
   VOSKOWN=      0    Vosko Wilk Nusair interpolation
   LHFCALC =     F    Hartree Fock is set to
   LHFONE  =     F    Hartree Fock one center treatment
   AEXX    =    0.0000 exact exchange contribution

 Linear response parameters
   LEPSILON=     F    determine dielectric tensor
   LRPA    =     F    only Hartree local field effects (RPA)
   LNABLA  =     F    use nabla operator in PAW spheres
   LVEL    =     F    velocity operator in full k-point grid
   LINTERFAST=   F  fast interpolation
   KINTER  =     0    interpolate to denser k-point grid
   CSHIFT  =0.1000    complex shift for real part using Kramers Kronig
   OMEGAMAX=  -1.0    maximum frequency
   DEG_THRESHOLD= 0.2000000E-02 threshold for treating states as degnerate
   RTIME   =   -0.100 relaxation time in fs
  (WPLASMAI=    0.000 imaginary part of plasma frequency in eV, 0.658/RTIME)
   DFIELD  = 0.0000000 0.0000000 0.0000000 field for delta impulse in time
 
 Orbital magnetization related:
   ORBITALMAG=     F  switch on orbital magnetization
   LCHIMAG   =     F  perturbation theory with respect to B field
   DQ        =  0.001000  dq finite difference perturbation B field
   LLRAUG    =     F  two centre corrections for induced B field



--------------------------------------------------------------------------------------------------------


 conjugate gradient relaxation of ions
   using selective dynamics as specified on POSCAR
 charge density and potential will be updated during run
 spin polarized calculation
 RMM-DIIS sequential band-by-band and
  variant of blocked Davidson during initial phase
 perform sub-space diagonalisation
    before iterative eigenvector-optimisation
 modified Broyden-mixing scheme, WC =      100.0
 initial mixing is a Kerker type mixing with AMIX =  0.4000 and BMIX =      1.0000
 Hartree-type preconditioning will be used
 using additional bands          187
 real space projection scheme for non local part
 use partial core corrections
 calculate Harris-corrections to forces 
   (improved forces if not selfconsistent)
 use gradient corrections 
 use of overlap-Matrix (Vanderbilt PP)
 Methfessel and Paxton  Order N= 1 SIGMA  =   0.10


--------------------------------------------------------------------------------------------------------


  energy-cutoff  :      550.00
  volume of cell :     2399.65
      direct lattice vectors                 reciprocal lattice vectors
    11.222700119  0.000000000  0.000000000     0.089105116 -0.051444863  0.000000000
     5.611350060  9.719143402  0.000000000     0.000000000  0.102889726  0.000000000
     0.000000000  0.000000000 22.000000000     0.000000000  0.000000000  0.045454545

  length of vectors
    11.222700119 11.222700119 22.000000000     0.102889726  0.102889726  0.045454545


 
 k-points in units of 2pi/SCALE and weight: mesh auto                               
   0.00000000  0.00000000  0.00000000       0.250
   0.04455256 -0.02572243  0.00000000       0.250
   0.00000000  0.05144486  0.00000000       0.250
   0.04455256  0.02572243  0.00000000       0.250
 
 k-points in reciprocal lattice and weights: mesh auto                               
   0.00000000  0.00000000  0.00000000       0.250
   0.50000000  0.00000000  0.00000000       0.250
   0.00000000  0.50000000  0.00000000       0.250
   0.50000000  0.50000000  0.00000000       0.250
 
 position of ions in fractional coordinates (direct lattice) 
   0.78925998  0.87878802  0.30121222
   0.03270259  0.87918048  0.29281978
   0.27595481  0.36227641  0.31085980
   0.87452803  0.96417189  0.39986541
   0.11347695  0.46739997  0.41031125
   0.12514630  0.95929033  0.39950627
   0.87301284  0.45480225  0.41217167
   0.37701318  0.95585584  0.41523770
   0.86441231  0.21135176  0.39649291
   0.12938104  0.21430742  0.41300922
   0.62945289  0.95163036  0.40962071
   0.87531965  0.71431373  0.40848710
   0.37811308  0.20035718  0.41347329
   0.38084327  0.69648099  0.40256170
   0.62040281  0.45628506  0.39873021
   0.11607802  0.70916439  0.40358339
   0.62681720  0.20137626  0.40429930
   0.53828593  0.34754319  0.30086371
   0.52741195  0.11320966  0.30844004
   0.54569241  0.12647739  0.06683304
   0.11791659  0.40792499  0.11908862
   0.05457374  0.14826096  0.31034432
   0.00892895  0.10176852  0.04917651
   0.13783207  0.92691145  0.14197368
   0.37604756  0.44835740  0.40652188
   0.47979716  0.55399880  0.22971747
   0.62713798  0.70737237  0.41347945
   0.95252345  0.75898977  0.20420405
   0.79731901  0.63088403  0.31069021
   0.27421233  0.60849866  0.30376107
   0.18749030  0.26198206  0.22539890
   0.71089206  0.56100734  0.21410215
   0.04247202  0.60866576  0.30471865
   0.78196837  0.88367072  0.08012597
   0.00167860  0.86570870  0.07172203
   0.00649475  0.65686199  0.09367822
   0.62789021  0.23379040  0.14972974
   0.36050112  0.94235243  0.13470415
   0.02367156  0.39570538  0.31624423
   0.01296097  0.32139498  0.04442433
   0.84423970  0.22761319  0.13891977
   0.96744603  0.52048649  0.21885007
   0.30318925  0.09874004  0.31911861
   0.55336689  0.64796514  0.31680171
   0.25085454  0.09128101  0.04878728
   0.52913784  0.61162204  0.04697948
   0.33389242  0.36126594  0.07221963
   0.58147332  0.93651314  0.13694302
   0.67732667  0.80921239  0.22305304
   0.80979447  0.67906481  0.14024348
   0.62937817  0.45366950  0.13325724
   0.32036889  0.87194096  0.31726179
   0.29919813  0.84983568  0.05000644
   0.58103448  0.72612545  0.12392179
   0.22907234  0.01294552  0.22967573
   0.54871865  0.36069037  0.05545242
   0.34411655  0.16690962  0.13164412
   0.17554400  0.68420617  0.14761894
   0.66082635  0.04249037  0.21304482
   0.78516879  0.11592854  0.29690217
   0.53581451  0.87478900  0.31589053
   0.77284397  0.12278263  0.06048458
   0.50030742  0.89844953  0.04455515
   0.19571508  0.50522867  0.21438636
   0.93546177  0.31542046  0.22552712
   0.85824468  0.00195101  0.15611973
   0.72104290  0.31497628  0.22969726
   0.43002289  0.26577701  0.21377066
   0.87703755  0.42955743  0.12878365
   0.09634819  0.18069822  0.13969274
   0.75988870  0.58867799  0.05155611
   0.31527374  0.59151669  0.05925234
   0.38179216  0.70126590  0.13646584
   0.40042658  0.45377032  0.14884727
   0.79153862  0.40082537  0.31361618
   0.78089926  0.35148021  0.04598080
   0.96954404  0.08430315  0.22196820
   0.46486898  0.79463888  0.22533144
   0.24890496  0.78598962  0.23267623
   0.43862206  0.02771317  0.22450195
   0.37798802  0.32551968  0.43844976
 
 position of ions in cartesian coordinates  (Angst):
  13.78881523  8.54106679  6.62666878
   5.30040079  8.54488114  6.44203507
   5.12981781  3.52101637  6.83891552
  15.22487182  9.37092486  8.79703905
   3.89626264  4.54272733  9.02684743
   6.78739321  9.32348026  8.78913801
  12.34961596  4.42028825  9.06777677
   9.59474762  9.29009995  9.13522950
  10.88700891  2.05415809  8.72284412
   2.65455856  2.08288452  9.08620280
  12.40409210  9.24903192  9.01165573
  13.83171432  6.94251760  8.98671616
   5.36772404  1.94730018  9.09641244
   8.18228845  6.76919863  8.85635749
   9.52296988  4.43469994  8.77206466
   5.28207851  6.89247041  8.87883451
   8.16457415  1.95720479  8.89458451
   7.99120805  3.37782207  6.61900172
   6.55424518  1.10030096  6.78568086
   6.83385120  1.22925189  1.47032698
   3.61235247  3.96468152  2.61994962
   1.44440888  1.44096951  6.82757507
   0.67126575  0.98910281  1.08188317
   6.74807265  9.00878530  3.12342105
   6.73615930  4.35764984  8.94348133
   8.49330084  5.38439383  5.05378437
  11.00749549  6.87505349  9.09654801
  14.94884239  7.37673046  4.49248916
  12.48818327  6.13165233  6.83518465
   6.49190180  5.91408578  6.68274363
   3.57422044  2.54624125  4.95877580
  11.12613698  5.45251083  4.71024739
   3.89208734  5.91570976  6.70381020
  13.73438227  8.58852246  1.76277137
   4.87663302  8.41394697  1.57788465
   3.75877116  6.38413590  2.06092090
   8.35850333  2.27224245  3.29405432
   9.33366537  9.15885838  2.96349132
   2.48610016  3.84591731  6.95737300
   1.94891684  3.12368389  0.97733531
  10.75186628  2.21220519  3.05623495
  13.77798860  5.05868282  4.81470165
   3.95666700  0.95966865  7.02060946
   9.84622993  6.29766610  6.96963760
   3.32747495  0.88717326  1.07332023
   9.37038068  5.94444230  1.03354859
   5.77436416  3.51119550  1.58883193
  11.78080373  9.10210551  3.01274644
  12.14220806  7.86485128  4.90716692
  12.89855082  6.59992829  3.08535659
   9.60902083  4.40927897  2.93165935
   8.48817002  8.47451927  6.97975946
   8.12653637  8.25967484  1.10014163
  10.59531978  7.05731733  2.72627938
   2.64345207  0.12581940  5.05286608
   8.18206475  3.50560142  1.21995326
   4.79850516  1.62221856  2.89617069
   5.80939796  6.64989784  3.24761674
   7.65468432  0.41297001  4.68698615
   9.46222948  1.12672610  6.53184779
  10.92203289  8.50219970  6.94959171
   9.36237240  1.19334199  1.33066085
  10.65631497  8.73215981  0.98021322
   5.03146660  4.91038993  4.71649990
  12.26834149  3.06561666  4.96159659
   9.64277050  0.01896212  3.43463404
   9.85949038  3.06129963  5.05333976
   6.31738572  2.58312482  4.70295446
  12.25312658  4.17493029  2.83324027
   2.09524784  1.75623189  3.07324021
  11.83128130  5.72144585  1.13423452
   6.85742987  5.74903551  1.30355140
   8.21978744  6.81570388  3.00224843
   7.04013147  4.41025877  3.27463986
  11.13237201  3.89567921  6.89955600
  10.73607676  3.41608656  1.01157751
  11.35395654  0.81935443  4.88330047
   9.67608211  7.72320924  4.95729164
   7.20384860  7.63914586  5.11887697
   5.07803210  0.26934830  4.93904295
   6.06865112  3.16377244  9.64589479
 


--------------------------------------------------------------------------------------------------------


 k-point  1 :   0.0000 0.0000 0.0000  plane waves:   70321
 k-point  2 :   0.5000 0.0000 0.0000  plane waves:   70264
 k-point  3 :   0.0000 0.5000 0.0000  plane waves:   70264
 k-point  4 :   0.5000 0.5000 0.0000  plane waves:   70264

 maximum and minimum number of plane-waves per node :     17611    17530

 maximum number of plane-waves:     70321
 maximum index in each direction: 
   IXMAX=   21   IYMAX=   21   IZMAX=   42
   IXMIN=  -21   IYMIN=  -21   IZMIN=  -42


 real space projection operators:
  total allocation   :      70751.99 KBytes
  max/ min on nodes  :      18090.23      17295.20


 parallel 3D FFT for wavefunctions:
    minimum data exchange during FFTs selected (reduces bandwidth)
 parallel 3D FFT for charge:
    minimum data exchange during FFTs selected (reduces bandwidth)


 total amount of memory used by VASP MPI-rank0   243557. kBytes
=======================================================================

   base      :      30000. kBytes
   nonlr-proj:      33158. kBytes
   fftplans  :      18297. kBytes
   grid      :      51226. kBytes
   one-center:        653. kBytes
   wavefun   :     110223. kBytes
 
     INWAV:  cpu time    0.0000: real time    0.0003
 Broyden mixing: mesh for mixing (old mesh)
   NGX = 43   NGY = 43   NGZ = 85
  (NGX  =180   NGY  =180   NGZ  =336)
  gives a total of 157165 points

 initial charge density was supplied:
 charge density of overlapping atoms calculated
 number of electron     778.0000000 magnetization     206.0000000
 keeping initial charge density in first step


--------------------------------------------------------------------------------------------------------


 Maximum index for non-local projection operator         2137
 Maximum index for augmentation-charges         1121 (set IRDMAX)


--------------------------------------------------------------------------------------------------------


 First call to EWALD:  gamma=   0.132
 Maximum number of real-space cells 4x 4x 2
 Maximum number of reciprocal cells 2x 2x 4

    FEWALD:  cpu time    0.0045: real time    0.0066


--------------------------------------- Iteration      1(   1)  ---------------------------------------


    POTLOK:  cpu time    0.4294: real time    0.4330
    SETDIJ:  cpu time    0.0335: real time    0.0375
     EDDAV:  cpu time   63.5434: real time   63.8279
       DOS:  cpu time    0.0023: real time    0.0130
    --------------------------------------------
      LOOP:  cpu time   64.0086: real time   64.3114

 eigenvalue-minimisations  :  9216
 total energy-change (2. order) : 0.6873075E+04  (-0.3404537E+05)
 number of electron     778.0000000 magnetization     206.0000000
 augmentation part      778.0000000 magnetization     206.0000000

 Free energy of the ion-electron system (eV)
  ---------------------------------------------------
  alpha Z        PSCENC =      1751.32544349
  Ewald energy   TEWEN  =    237214.81177112
  -Hartree energ DENC   =   -307266.95463514
  -exchange      EXHF   =         0.00000000
  -V(xc)+E(xc)   XCENC  =      1334.92428615
  PAW double counting   =     62871.68470781   -64853.88848185
  entropy T*S    EENTRO =         0.00037833
  eigenvalues    EBANDS =      6827.82607346
  atomic energy  EATOM  =     68993.34587830
  Solvation  Ediel_sol  =         0.00000000
  ---------------------------------------------------
  free energy    TOTEN  =      6873.07542167 eV

  energy without entropy =     6873.07504334  energy(sigma->0) =     6873.07529556


--------------------------------------------------------------------------------------------------------




--------------------------------------- Iteration      1(   2)  ---------------------------------------


     EDDAV:  cpu time   63.4721: real time   63.7612
       DOS:  cpu time    0.0029: real time    0.0038
    --------------------------------------------
      LOOP:  cpu time   63.4750: real time   63.7650

 eigenvalue-minimisations  :  9216
 total energy-change (2. order) :-0.6439423E+04  (-0.5815184E+04)
 number of electron     778.0000000 magnetization     206.0000000
 augmentation part      778.0000000 magnetization     206.0000000

 Free energy of the ion-electron system (eV)
  ---------------------------------------------------
  alpha Z        PSCENC =      1751.32544349
  Ewald energy   TEWEN  =    237214.81177112
  -Hartree energ DENC   =   -307266.95463514
  -exchange      EXHF   =         0.00000000
  -V(xc)+E(xc)   XCENC  =      1334.92428615
  PAW double counting   =     62871.68470781   -64853.88848185
  entropy T*S    EENTRO =        -0.01153889
  eigenvalues    EBANDS =       388.41526274
  atomic energy  EATOM  =     68993.34587830
  Solvation  Ediel_sol  =         0.00000000
  ---------------------------------------------------
  free energy    TOTEN  =       433.65269372 eV

  energy without entropy =      433.66423262  energy(sigma->0) =      433.65654002


--------------------------------------------------------------------------------------------------------




--------------------------------------- Iteration      1(   3)  ---------------------------------------


     EDDAV:  cpu time   66.2928: real time   66.4942
       DOS:  cpu time    0.0045: real time    0.1846
    --------------------------------------------
      LOOP:  cpu time   66.2973: real time   66.6788

 eigenvalue-minimisations  :  9756
 total energy-change (2. order) :-0.8804725E+03  (-0.7321776E+03)
 number of electron     778.0000000 magnetization     206.0000000
 augmentation part      778.0000000 magnetization     206.0000000

 Free energy of the ion-electron system (eV)
  ---------------------------------------------------
  alpha Z        PSCENC =      1751.32544349
  Ewald energy   TEWEN  =    237214.81177112
  -Hartree energ DENC   =   -307266.95463514
  -exchange      EXHF   =         0.00000000
  -V(xc)+E(xc)   XCENC  =      1334.92428615
  PAW double counting   =     62871.68470781   -64853.88848185
  entropy T*S    EENTRO =        -0.00273813
  eigenvalues    EBANDS =      -492.06608518
  atomic energy  EATOM  =     68993.34587830
  Solvation  Ediel_sol  =         0.00000000
  ---------------------------------------------------
  free energy    TOTEN  =      -446.81985343 eV

  energy without entropy =     -446.81711530  energy(sigma->0) =     -446.81894072


--------------------------------------------------------------------------------------------------------




--------------------------------------- Iteration      1(   4)  ---------------------------------------


     EDDAV:  cpu time   68.9624: real time   69.2580
       DOS:  cpu time    0.0030: real time    0.0041
    --------------------------------------------
      LOOP:  cpu time   68.9654: real time   69.2621

 eigenvalue-minimisations  : 10284
 total energy-change (2. order) :-0.5692534E+02  (-0.5480103E+02)
 number of electron     778.0000000 magnetization     206.0000000
 augmentation part      778.0000000 magnetization     206.0000000

 Free energy of the ion-electron system (eV)
  ---------------------------------------------------
  alpha Z        PSCENC =      1751.32544349
  Ewald energy   TEWEN  =    237214.81177112
  -Hartree energ DENC   =   -307266.95463514
  -exchange      EXHF   =         0.00000000
  -V(xc)+E(xc)   XCENC  =      1334.92428615
  PAW double counting   =     62871.68470781   -64853.88848185
  entropy T*S    EENTRO =        -0.00143225
  eigenvalues    EBANDS =      -548.99273376
  atomic energy  EATOM  =     68993.34587830
  Solvation  Ediel_sol  =         0.00000000
  ---------------------------------------------------
  free energy    TOTEN  =      -503.74519613 eV

  energy without entropy =     -503.74376388  energy(sigma->0) =     -503.74471871


--------------------------------------------------------------------------------------------------------




--------------------------------------- Iteration      1(   5)  ---------------------------------------


     EDDAV:  cpu time   72.0801: real time   72.3163
       DOS:  cpu time    0.0030: real time    0.0040
    CHARGE:  cpu time    4.4038: real time    4.4158
    MIXING:  cpu time    0.0108: real time    0.0109
    --------------------------------------------
      LOOP:  cpu time   76.4976: real time   76.7470

 eigenvalue-minimisations  : 10872
 total energy-change (2. order) :-0.1093223E+01  (-0.1091390E+01)
 number of electron     778.0000030 magnetization     194.1530257
 augmentation part      338.0542983 magnetization     164.4503905

 Broyden mixing:
  rms(total) = 0.10707E+02    rms(broyden)= 0.10707E+02
  rms(prec ) = 0.11077E+02
  weight for this iteration     100.00

 Free energy of the ion-electron system (eV)
  ---------------------------------------------------
  alpha Z        PSCENC =      1751.32544349
  Ewald energy   TEWEN  =    237214.81177112
  -Hartree energ DENC   =   -307266.95463514
  -exchange      EXHF   =         0.00000000
  -V(xc)+E(xc)   XCENC  =      1334.92428615
  PAW double counting   =     62871.68470781   -64853.88848185
  entropy T*S    EENTRO =        -0.00157220
  eigenvalues    EBANDS =      -550.08581684
  atomic energy  EATOM  =     68993.34587830
  Solvation  Ediel_sol  =         0.00000000
  ---------------------------------------------------
  free energy    TOTEN  =      -504.83841916 eV

  energy without entropy =     -504.83684696  energy(sigma->0) =     -504.83789509


--------------------------------------------------------------------------------------------------------




--------------------------------------- Iteration      1(   6)  ---------------------------------------


    POTLOK:  cpu time    0.4232: real time    0.4371
    SETDIJ:  cpu time    0.0385: real time    0.0387
    EDDIAG:  cpu time   11.6634: real time   11.7337
  RMM-DIIS:  cpu time   41.2268: real time   41.3753
    ORTHCH:  cpu time    1.2271: real time    1.2469
       DOS:  cpu time    0.0025: real time    0.0025
    CHARGE:  cpu time    4.3247: real time    4.3408
    MIXING:  cpu time    0.0118: real time    0.0124
    --------------------------------------------
      LOOP:  cpu time   58.9180: real time   59.1874

 eigenvalue-minimisations  :  9404
 total energy-change (2. order) :-0.2522878E+03  (-0.9982666E+02)
 number of electron     778.0000040 magnetization     190.8334689
 augmentation part      408.7556175 magnetization     162.5889375

 Broyden mixing:
  rms(total) = 0.20859E+02    rms(broyden)= 0.20859E+02
  rms(prec ) = 0.25968E+02
  weight for this iteration     100.00

 eigenvalues of (default mixing * dielectric matrix)
  average eigenvalue GAMMA=   0.1760
  0.1760

 Free energy of the ion-electron system (eV)
  ---------------------------------------------------
  alpha Z        PSCENC =      1751.32544349
  Ewald energy   TEWEN  =    237214.81177112
  -Hartree energ DENC   =   -305978.60297251
  -exchange      EXHF   =         0.00000000
  -V(xc)+E(xc)   XCENC  =      1289.49362911
  PAW double counting   =     67999.27055106   -69751.34994997
  entropy T*S    EENTRO =         0.00474484
  eigenvalues    EBANDS =     -2275.42534297
  atomic energy  EATOM  =     68993.34587830
  Solvation  Ediel_sol  =         0.00000000
  ---------------------------------------------------
  free energy    TOTEN  =      -757.12624753 eV

  energy without entropy =     -757.13099237  energy(sigma->0) =     -757.12782915


--------------------------------------------------------------------------------------------------------




--------------------------------------- Iteration      1(   7)  ---------------------------------------


    POTLOK:  cpu time    0.4052: real time    0.4114
    SETDIJ:  cpu time    0.0355: real time    0.0356
    EDDIAG:  cpu time   11.7140: real time   11.7578
  RMM-DIIS:  cpu time   40.5592: real time   40.7096
    ORTHCH:  cpu time    1.2250: real time    1.2436
       DOS:  cpu time    0.0025: real time    0.0025
    CHARGE:  cpu time    4.3284: real time    4.3448
    MIXING:  cpu time    0.0123: real time    0.0124
    --------------------------------------------
      LOOP:  cpu time   58.2822: real time   58.5177

 eigenvalue-minimisations  :  9239
 total energy-change (2. order) : 0.2400547E+03  (-0.1728172E+02)
 number of electron     778.0000031 magnetization     187.8938737
 augmentation part      371.9767511 magnetization     153.0046220

 Broyden mixing:
  rms(total) = 0.15006E+02    rms(broyden)= 0.15006E+02
  rms(prec ) = 0.18231E+02
  weight for this iteration     100.00

 eigenvalues of (default mixing * dielectric matrix)
  average eigenvalue GAMMA=   0.2161
  0.2161  0.2161

 Free energy of the ion-electron system (eV)
  ---------------------------------------------------
  alpha Z        PSCENC =      1751.32544349
  Ewald energy   TEWEN  =    237214.81177112
  -Hartree energ DENC   =   -306587.52735137
  -exchange      EXHF   =         0.00000000
  -V(xc)+E(xc)   XCENC  =      1306.06668547
  PAW double counting   =     69050.87863873   -70968.31676143
  entropy T*S    EENTRO =        -0.00242037
  eigenvalues    EBANDS =     -1277.65346910
  atomic energy  EATOM  =     68993.34587830
  Solvation  Ediel_sol  =         0.00000000
  ---------------------------------------------------
  free energy    TOTEN  =      -517.07158515 eV

  energy without entropy =     -517.06916478  energy(sigma->0) =     -517.07077836


--------------------------------------------------------------------------------------------------------




--------------------------------------- Iteration      1(   8)  ---------------------------------------


    POTLOK:  cpu time    0.4035: real time    0.4152
    SETDIJ:  cpu time    0.0359: real time    0.0361
    EDDIAG:  cpu time   11.6708: real time   11.7084
  RMM-DIIS:  cpu time   40.6098: real time   40.7619
    ORTHCH:  cpu time    1.2644: real time    1.2802
       DOS:  cpu time    0.0026: real time    0.0026
    CHARGE:  cpu time    4.2646: real time    4.2791
    MIXING:  cpu time    0.0123: real time    0.0127
    --------------------------------------------
      LOOP:  cpu time   58.2640: real time   58.4961

 eigenvalue-minimisations  :  9260
 total energy-change (2. order) : 0.8679046E+02  (-0.1328893E+02)
 number of electron     778.0000040 magnetization     180.8283161
 augmentation part      380.5476593 magnetization     142.5180983

 Broyden mixing:
  rms(total) = 0.11865E+02    rms(broyden)= 0.11865E+02
  rms(prec ) = 0.13861E+02
  weight for this iteration     100.00

 eigenvalues of (default mixing * dielectric matrix)
  average eigenvalue GAMMA=   0.3169
  0.5768  0.2817  0.0923

 Free energy of the ion-electron system (eV)
  ---------------------------------------------------
  alpha Z        PSCENC =      1751.32544349
  Ewald energy   TEWEN  =    237214.81177112
  -Hartree energ DENC   =   -306451.04494924
  -exchange      EXHF   =         0.00000000
  -V(xc)+E(xc)   XCENC  =      1310.59735202
  PAW double counting   =     69764.73773318   -71704.61735866
  entropy T*S    EENTRO =        -0.00087376
  eigenvalues    EBANDS =     -1309.43612253
  atomic energy  EATOM  =     68993.34587830
  Solvation  Ediel_sol  =         0.00000000
  ---------------------------------------------------
  free energy    TOTEN  =      -430.28112609 eV

  energy without entropy =     -430.28025232  energy(sigma->0) =     -430.28083483


--------------------------------------------------------------------------------------------------------




--------------------------------------- Iteration      1(   9)  ---------------------------------------


    POTLOK:  cpu time    0.4033: real time    0.4087
    SETDIJ:  cpu time    0.0359: real time    0.0361
    EDDIAG:  cpu time   11.6728: real time   11.7098
  RMM-DIIS:  cpu time   40.5143: real time   40.6284
    ORTHCH:  cpu time    1.2344: real time    1.2496
       DOS:  cpu time    0.0027: real time    0.0027
    CHARGE:  cpu time    4.1718: real time    4.1873
    MIXING:  cpu time    0.0121: real time    0.0122
    --------------------------------------------
      LOOP:  cpu time   58.0473: real time   58.2347

 eigenvalue-minimisations  :  9225
 total energy-change (2. order) :-0.1010362E+03  (-0.1739434E+02)
 number of electron     778.0000028 magnetization     174.6258061
 augmentation part      380.4337378 magnetization     141.7064585

 Broyden mixing:
  rms(total) = 0.16679E+02    rms(broyden)= 0.16679E+02
  rms(prec ) = 0.19143E+02
  weight for this iteration     100.00

 eigenvalues of (default mixing * dielectric matrix)
  average eigenvalue GAMMA=   0.3466
  0.8553  0.3095  0.1108  0.1108

 Free energy of the ion-electron system (eV)
  ---------------------------------------------------
  alpha Z        PSCENC =      1751.32544349
  Ewald energy   TEWEN  =    237214.81177112
  -Hartree energ DENC   =   -306198.24789416
  -exchange      EXHF   =         0.00000000
  -V(xc)+E(xc)   XCENC  =      1328.03874278
  PAW double counting   =     71412.81522536   -73416.66994665
  entropy T*S    EENTRO =         0.01200416
  eigenvalues    EBANDS =     -1616.74856974
  atomic energy  EATOM  =     68993.34587830
  Solvation  Ediel_sol  =         0.00000000
  ---------------------------------------------------
  free energy    TOTEN  =      -531.31734533 eV

  energy without entropy =     -531.32934949  energy(sigma->0) =     -531.32134672


--------------------------------------------------------------------------------------------------------




--------------------------------------- Iteration      1(  10)  ---------------------------------------


    POTLOK:  cpu time    0.4073: real time    0.4095
    SETDIJ:  cpu time    0.0362: real time    0.0363
    EDDIAG:  cpu time   11.7348: real time   11.8047
  RMM-DIIS:  cpu time   40.5805: real time   40.6970
    ORTHCH:  cpu time    1.2171: real time    1.2769
       DOS:  cpu time    0.0029: real time    0.0029
    CHARGE:  cpu time    4.3108: real time    4.3227
    MIXING:  cpu time    0.0124: real time    0.0125
    --------------------------------------------
      LOOP:  cpu time   58.3020: real time   58.5626

 eigenvalue-minimisations  :  9243
 total energy-change (2. order) : 0.1141660E+03  (-0.1268063E+02)
 number of electron     778.0000036 magnetization     169.1267550
 augmentation part      381.6461874 magnetization     126.0663179

 Broyden mixing:
  rms(total) = 0.10590E+02    rms(broyden)= 0.10590E+02
  rms(prec ) = 0.13516E+02
  weight for this iteration     100.00

 eigenvalues of (default mixing * dielectric matrix)
  average eigenvalue GAMMA=   0.3525
  0.9542  0.4259  0.1462  0.1462  0.0901

 Free energy of the ion-electron system (eV)
  ---------------------------------------------------
  alpha Z        PSCENC =      1751.32544349
  Ewald energy   TEWEN  =    237214.81177112
  -Hartree energ DENC   =   -306596.87465748
  -exchange      EXHF   =         0.00000000
  -V(xc)+E(xc)   XCENC  =      1337.66165143
  PAW double counting   =     72737.93992257   -74802.61794969
  entropy T*S    EENTRO =        -0.00694380
  eigenvalues    EBANDS =     -1052.73646961
  atomic energy  EATOM  =     68993.34587830
  Solvation  Ediel_sol  =         0.00000000
  ---------------------------------------------------
  free energy    TOTEN  =      -417.15135368 eV

  energy without entropy =     -417.14440987  energy(sigma->0) =     -417.14903908


--------------------------------------------------------------------------------------------------------




--------------------------------------- Iteration      1(  11)  ---------------------------------------


    POTLOK:  cpu time    0.4077: real time    0.4183
    SETDIJ:  cpu time    0.0356: real time    0.0357
    EDDIAG:  cpu time   11.7987: real time   11.8312
  RMM-DIIS:  cpu time   40.6543: real time   40.7650
    ORTHCH:  cpu time    1.2434: real time    1.3246
       DOS:  cpu time    0.0024: real time    0.0024
    CHARGE:  cpu time    4.2960: real time    4.3077
    MIXING:  cpu time    0.0129: real time    0.0130
    --------------------------------------------
      LOOP:  cpu time   58.4510: real time   58.6979

 eigenvalue-minimisations  :  9266
 total energy-change (2. order) : 0.5956293E+02  (-0.8874742E+01)
 number of electron     778.0000033 magnetization     165.0349679
 augmentation part      373.6088003 magnetization     122.8653986

 Broyden mixing:
  rms(total) = 0.96600E+01    rms(broyden)= 0.96599E+01
  rms(prec ) = 0.10510E+02
  weight for this iteration     100.00

 eigenvalues of (default mixing * dielectric matrix)
  average eigenvalue GAMMA=   0.3544
  1.0707  0.4786  0.1658  0.1658  0.1519  0.0937

 Free energy of the ion-electron system (eV)
  ---------------------------------------------------
  alpha Z        PSCENC =      1751.32544349
  Ewald energy   TEWEN  =    237214.81177112
  -Hartree energ DENC   =   -306819.24289744
  -exchange      EXHF   =         0.00000000
  -V(xc)+E(xc)   XCENC  =      1337.68912402
  PAW double counting   =     73640.85399258   -75741.79637511
  entropy T*S    EENTRO =        -0.01161492
  eigenvalues    EBANDS =      -734.56374433
  atomic energy  EATOM  =     68993.34587830
  Solvation  Ediel_sol  =         0.00000000
  ---------------------------------------------------
  free energy    TOTEN  =      -357.58842230 eV

  energy without entropy =     -357.57680737  energy(sigma->0) =     -357.58455066


--------------------------------------------------------------------------------------------------------




--------------------------------------- Iteration      1(  12)  ---------------------------------------


    POTLOK:  cpu time    0.4078: real time    0.4166
    SETDIJ:  cpu time    0.0361: real time    0.0362
    EDDIAG:  cpu time   11.6994: real time   11.7319
  RMM-DIIS:  cpu time   40.6791: real time   40.8819
    ORTHCH:  cpu time    1.2308: real time    1.2495
       DOS:  cpu time    0.0026: real time    0.0026
    CHARGE:  cpu time    4.3088: real time    4.3230
    MIXING:  cpu time    0.0134: real time    0.0135
    --------------------------------------------
      LOOP:  cpu time   58.3780: real time   58.6552

 eigenvalue-minimisations  :  9266
 total energy-change (2. order) :-0.8639416E+01  (-0.5477202E+01)
 number of electron     778.0000032 magnetization     160.4712554
 augmentation part      372.2186247 magnetization     121.8608866

 Broyden mixing:
  rms(total) = 0.11613E+02    rms(broyden)= 0.11612E+02
  rms(prec ) = 0.13010E+02
  weight for this iteration     100.00

 eigenvalues of (default mixing * dielectric matrix)
  average eigenvalue GAMMA=   0.3549
  1.1985  0.4523  0.3355  0.1455  0.1455  0.0974  0.1098

 Free energy of the ion-electron system (eV)
  ---------------------------------------------------
  alpha Z        PSCENC =      1751.32544349
  Ewald energy   TEWEN  =    237214.81177112
  -Hartree energ DENC   =   -306806.74034549
  -exchange      EXHF   =         0.00000000
  -V(xc)+E(xc)   XCENC  =      1333.86146668
  PAW double counting   =     74145.94772884   -76259.89548124
  entropy T*S    EENTRO =        -0.00296674
  eigenvalues    EBANDS =      -738.88133289
  atomic energy  EATOM  =     68993.34587830
  Solvation  Ediel_sol  =         0.00000000
  ---------------------------------------------------
  free energy    TOTEN  =      -366.22783792 eV

  energy without entropy =     -366.22487118  energy(sigma->0) =     -366.22684901


--------------------------------------------------------------------------------------------------------




--------------------------------------- Iteration      1(  13)  ---------------------------------------


    POTLOK:  cpu time    0.4090: real time    0.4113
    SETDIJ:  cpu time    0.0361: real time    0.0361
    EDDIAG:  cpu time   11.6350: real time   11.7062
  RMM-DIIS:  cpu time   40.6765: real time   40.7859
    ORTHCH:  cpu time    1.2534: real time    1.2781
       DOS:  cpu time    0.0028: real time    0.0028
    CHARGE:  cpu time    4.2283: real time    4.2825
    MIXING:  cpu time    0.0136: real time    0.0138
    --------------------------------------------
      LOOP:  cpu time   58.2547: real time   58.5167

 eigenvalue-minimisations  :  9264
 total energy-change (2. order) :-0.4001579E+00  (-0.3848638E+01)
 number of electron     778.0000029 magnetization     155.8327108
 augmentation part      372.9578445 magnetization     117.3188573

 Broyden mixing:
  rms(total) = 0.10117E+02    rms(broyden)= 0.10117E+02
  rms(prec ) = 0.11290E+02
  weight for this iteration     100.00

 eigenvalues of (default mixing * dielectric matrix)
  average eigenvalue GAMMA=   0.3557
  1.2948  0.4710  0.4710  0.1489  0.1489  0.1270  0.0970  0.0868

 Free energy of the ion-electron system (eV)
  ---------------------------------------------------
  alpha Z        PSCENC =      1751.32544349
  Ewald energy   TEWEN  =    237214.81177112
  -Hartree energ DENC   =   -306893.43073321
  -exchange      EXHF   =         0.00000000
  -V(xc)+E(xc)   XCENC  =      1329.41241964
  PAW double counting   =     74678.82311002   -76802.16925162
  entropy T*S    EENTRO =        -0.00087412
  eigenvalues    EBANDS =      -638.74575940
  atomic energy  EATOM  =     68993.34587830
  Solvation  Ediel_sol  =         0.00000000
  ---------------------------------------------------
  free energy    TOTEN  =      -366.62799579 eV

  energy without entropy =     -366.62712167  energy(sigma->0) =     -366.62770442


--------------------------------------------------------------------------------------------------------




--------------------------------------- Iteration      1(  14)  ---------------------------------------


    POTLOK:  cpu time    0.4087: real time    0.4111
    SETDIJ:  cpu time    0.0363: real time    0.0364
    EDDIAG:  cpu time   11.6431: real time   11.6745
  RMM-DIIS:  cpu time   40.7022: real time   40.8206
    ORTHCH:  cpu time    1.2508: real time    1.2683
       DOS:  cpu time    0.0026: real time    0.0026
    CHARGE:  cpu time    4.2302: real time    4.2417
    MIXING:  cpu time    0.0139: real time    0.0141
    --------------------------------------------
      LOOP:  cpu time   58.2878: real time   58.4693

 eigenvalue-minimisations  :  9258
 total energy-change (2. order) : 0.3046263E+02  (-0.2810919E+01)
 number of electron     778.0000034 magnetization     153.4475084
 augmentation part      371.8959144 magnetization     113.2236600

 Broyden mixing:
  rms(total) = 0.59160E+01    rms(broyden)= 0.59158E+01
  rms(prec ) = 0.63983E+01
  weight for this iteration     100.00

 eigenvalues of (default mixing * dielectric matrix)
  average eigenvalue GAMMA=   0.3402
  1.3032  0.5044  0.5044  0.1662  0.1662  0.1163  0.1163  0.0922  0.0922

 Free energy of the ion-electron system (eV)
  ---------------------------------------------------
  alpha Z        PSCENC =      1751.32544349
  Ewald energy   TEWEN  =    237214.81177112
  -Hartree energ DENC   =   -306965.61385237
  -exchange      EXHF   =         0.00000000
  -V(xc)+E(xc)   XCENC  =      1328.14387142
  PAW double counting   =     75194.53314492   -77327.93370663
  entropy T*S    EENTRO =        -0.00657401
  eigenvalues    EBANDS =      -524.77134305
  atomic energy  EATOM  =     68993.34587830
  Solvation  Ediel_sol  =         0.00000000
  ---------------------------------------------------
  free energy    TOTEN  =      -336.16536679 eV

  energy without entropy =     -336.15879279  energy(sigma->0) =     -336.16317546


--------------------------------------------------------------------------------------------------------




--------------------------------------- Iteration      1(  15)  ---------------------------------------


    POTLOK:  cpu time    0.4076: real time    0.4097
    SETDIJ:  cpu time    0.0364: real time    0.0364
    EDDIAG:  cpu time   11.6546: real time   11.6870
  RMM-DIIS:  cpu time   40.7146: real time   40.8249
    ORTHCH:  cpu time    1.2296: real time    1.2449
       DOS:  cpu time    0.0025: real time    0.0025
    CHARGE:  cpu time    4.2272: real time    4.2553
    MIXING:  cpu time    0.0141: real time    0.0142
    --------------------------------------------
      LOOP:  cpu time   58.2867: real time   58.4749

 eigenvalue-minimisations  :  9261
 total energy-change (2. order) : 0.5982931E+00  (-0.1115448E+01)
 number of electron     778.0000035 magnetization     150.1650971
 augmentation part      371.2185995 magnetization     110.7443621

 Broyden mixing:
  rms(total) = 0.55290E+01    rms(broyden)= 0.55289E+01
  rms(prec ) = 0.59380E+01
  weight for this iteration     100.00

 eigenvalues of (default mixing * dielectric matrix)
  average eigenvalue GAMMA=   0.3438
  1.3176  0.5871  0.5871  0.2104  0.2021  0.1311  0.1311  0.0955  0.0955  0.0802

 Free energy of the ion-electron system (eV)
  ---------------------------------------------------
  alpha Z        PSCENC =      1751.32544349
[...]
   -.409E+02 0.180E+02 -.271E+04   0.413E+02 -.174E+02 0.271E+04   -.484E+00 -.654E+00 0.152E+01   -.234E-02 0.656E-03 0.189E-01
   -.709E+02 -.252E+02 -.283E+04   0.694E+02 0.263E+02 0.282E+04   0.154E+01 -.110E+01 0.274E+01   -.600E-02 0.345E-02 -.802E-02
   0.991E+02 0.936E+01 -.271E+04   -.985E+02 -.102E+02 0.271E+04   -.527E+00 0.910E+00 0.208E+01   0.155E-01 -.181E-01 -.442E-02
   0.120E+02 -.751E+00 -.291E+04   -.120E+02 -.349E+00 0.291E+04   -.468E-01 0.112E+01 0.274E+01   0.747E-02 -.938E-02 -.530E-05
   0.543E+02 0.113E+02 -.297E+04   -.545E+02 -.106E+02 0.296E+04   0.262E+00 -.595E+00 0.336E+01   -.367E-01 -.140E-01 -.363E-01
   0.225E+02 0.758E+02 -.273E+04   -.233E+02 -.751E+02 0.273E+04   0.765E+00 -.658E+00 0.198E+01   0.724E-05 -.732E-02 -.634E-02
   0.520E+02 0.123E+02 -.288E+04   -.512E+02 -.119E+02 0.287E+04   -.704E+00 -.367E+00 0.271E+01   0.499E-02 -.269E-01 -.211E-01
   -.997E+02 -.198E+02 -.284E+04   0.993E+02 0.191E+02 0.283E+04   0.465E+00 0.675E+00 0.172E+01   -.891E-02 -.265E-01 -.160E-01
   -.599E+02 -.349E+02 -.279E+04   0.601E+02 0.349E+02 0.279E+04   -.253E+00 -.224E-01 0.184E+01   0.379E-02 0.405E-02 0.151E-01
   -.373E+02 -.537E+02 -.285E+04   0.373E+02 0.534E+02 0.285E+04   0.578E-02 0.369E+00 0.718E+00   -.460E-01 -.411E-01 -.169E-01
   0.105E+03 0.503E+02 -.275E+04   -.104E+03 -.505E+02 0.275E+04   -.560E+00 0.167E+00 0.246E+01   0.135E-01 0.350E-01 -.238E-02
   0.894E+02 0.423E+02 -.274E+04   -.887E+02 -.413E+02 0.274E+04   -.684E+00 -.981E+00 0.211E+01   -.251E-02 0.462E-01 -.217E-02
   -.279E+02 -.314E+02 -.269E+04   0.273E+02 0.312E+02 0.269E+04   0.507E+00 0.197E+00 0.167E+01   0.463E-01 0.258E-02 0.367E-02
   -.243E+02 -.276E+02 -.275E+04   0.253E+02 0.267E+02 0.275E+04   -.953E+00 0.840E+00 0.227E+01   0.120E-01 -.116E-01 -.234E-01
   0.480E+02 -.630E+02 -.133E+04   -.470E+02 0.620E+02 0.133E+04   -.980E+00 0.962E+00 0.200E+01   0.218E-01 0.157E-01 0.244E-02
   -.107E+03 -.847E+02 -.149E+04   0.105E+03 0.843E+02 0.148E+04   0.129E+01 0.375E+00 0.220E+01   -.280E-01 -.212E-01 0.126E-01
   0.596E+02 0.539E+02 0.278E+04   -.589E+02 -.536E+02 -.278E+04   -.648E+00 -.422E+00 -.194E+01   -.151E-01 0.623E-01 -.241E-01
   -.119E+03 -.144E+03 0.197E+04   0.119E+03 0.144E+03 -.197E+04   -.155E+00 -.359E+00 0.133E+01   -.254E-01 -.187E-01 -.384E-01
   0.749E+02 0.662E+02 -.154E+04   -.741E+02 -.657E+02 0.154E+04   -.895E+00 -.421E+00 0.170E+01   0.284E-01 -.237E-01 -.203E-01
   0.780E+01 0.188E+03 0.297E+04   -.749E+01 -.187E+03 -.297E+04   -.215E+00 -.164E+01 -.202E+01   0.140E-01 0.342E-01 0.563E-02
   0.158E+03 0.255E+02 0.147E+04   -.157E+03 -.264E+02 -.147E+04   -.774E+00 0.941E+00 -.372E+00   0.163E-02 -.122E-01 0.350E-02
   -.311E+02 -.420E+02 -.274E+04   0.309E+02 0.413E+02 0.274E+04   0.170E+00 0.668E+00 -.114E+00   0.239E-01 0.570E-01 -.319E-01
   0.109E+03 0.909E+02 -.233E+03   -.109E+03 -.906E+02 0.233E+03   0.635E-01 -.315E+00 0.162E+00   -.539E-02 0.236E-01 -.521E-02
   -.752E+01 0.423E+02 -.293E+04   0.757E+01 -.420E+02 0.292E+04   -.741E-01 -.389E+00 0.276E+01   -.126E-01 0.533E-02 -.755E-02
   -.447E+02 -.453E+02 0.333E+03   0.445E+02 0.441E+02 -.333E+03   0.166E+00 0.123E+01 -.117E+00   0.471E-01 -.199E-01 0.911E-02
   -.857E+02 -.513E+02 -.145E+04   0.861E+02 0.507E+02 0.145E+04   -.390E+00 0.615E+00 0.200E+01   -.156E-01 -.352E-02 0.722E-02
   0.100E+02 0.829E+01 -.133E+04   -.107E+02 -.803E+01 0.133E+04   0.645E+00 -.238E+00 0.177E+01   -.169E-02 0.369E-01 0.498E-03
   -.681E+02 -.103E+03 -.258E+02   0.678E+02 0.102E+03 0.255E+02   0.432E+00 0.572E+00 0.262E+00   -.183E-01 -.108E-01 0.273E-02
   -.222E+02 -.293E+02 0.126E+03   0.228E+02 0.293E+02 -.127E+03   -.507E+00 -.651E-01 0.839E+00   -.201E-01 -.217E-01 -.760E-02
   -.687E+02 -.123E+03 -.120E+04   0.687E+02 0.122E+03 0.120E+04   0.405E-01 0.880E+00 0.711E+00   0.819E-02 -.112E-02 -.619E-02
   -.197E+01 0.110E+03 0.236E+04   0.322E+01 -.110E+03 -.236E+04   -.114E+01 -.359E+00 -.152E+01   0.380E-01 -.773E-02 -.111E-01
   0.783E+01 0.138E+03 0.248E+04   -.904E+01 -.137E+03 -.248E+04   0.106E+01 -.749E+00 -.241E+01   0.774E-01 -.421E-02 -.813E-02
   -.735E+01 0.877E+02 0.223E+04   0.718E+01 -.860E+02 -.223E+04   0.735E-01 -.137E+01 -.214E+01   0.422E-01 -.431E-01 -.279E-02
   0.127E+03 0.694E+02 0.108E+04   -.127E+03 -.695E+02 -.108E+04   -.272E+00 0.126E-01 0.220E-01   0.317E-01 0.332E-01 -.101E-01
   0.489E+02 -.604E+02 0.143E+04   -.483E+02 0.603E+02 -.143E+04   -.518E+00 0.309E-01 -.346E+00   -.498E-01 0.410E-02 0.968E-02
   -.708E+02 0.116E+02 -.140E+04   0.707E+02 -.113E+02 0.140E+04   0.104E+00 -.302E+00 0.290E+00   0.139E-01 -.134E-01 0.205E-03
   -.256E+03 -.128E+03 0.278E+04   0.255E+03 0.126E+03 -.277E+04   0.152E+01 0.154E+01 -.398E+01   -.470E-02 -.311E-02 -.280E-02
   -.164E+02 0.986E+02 0.132E+04   0.160E+02 -.985E+02 -.132E+04   0.419E+00 -.258E+00 -.667E+00   0.252E-01 0.103E-01 -.248E-01
   -.970E+02 -.855E+02 0.137E+03   0.969E+02 0.857E+02 -.136E+03   0.206E-01 -.173E+00 -.334E+00   0.747E-02 -.146E-01 -.105E-01
   0.107E+02 -.133E+03 -.147E+04   -.109E+02 0.133E+03 0.147E+04   0.180E+00 0.537E+00 0.386E+00   -.157E-01 -.158E-01 0.109E-01
   0.835E+02 0.133E+03 -.142E+04   -.835E+02 -.133E+03 0.142E+04   -.303E-01 -.637E+00 -.681E+00   -.195E-01 0.167E-01 0.862E-02
   -.798E+02 -.139E+03 0.273E+04   0.781E+02 0.137E+03 -.272E+04   0.157E+01 0.162E+01 -.329E+01   -.406E-01 0.418E-01 0.639E-03
   0.167E+02 -.253E+02 0.276E+04   -.173E+02 0.253E+02 -.276E+04   0.395E+00 -.132E+00 -.332E+01   -.223E-01 -.182E-01 0.242E-02
   0.228E+03 -.396E+02 0.247E+04   -.226E+03 0.394E+02 -.247E+04   -.130E+01 0.241E+00 -.200E+01   -.114E-01 0.266E-01 -.130E-01
   -.186E+03 -.301E+02 0.146E+04   0.186E+03 0.302E+02 -.146E+04   0.264E+00 -.137E-01 0.200E+00   -.498E-01 0.146E-01 0.879E-02
   -.192E+03 0.590E+02 0.628E+01   0.191E+03 -.587E+02 -.589E+01   0.364E+00 -.389E+00 -.483E+00   -.130E-01 -.204E-01 0.288E-01
   -.188E+03 -.404E+02 0.139E+04   0.188E+03 0.409E+02 -.139E+04   -.962E-01 -.437E+00 0.488E+00   -.202E-02 -.709E-01 0.278E-02
   0.267E+02 -.682E+02 0.135E+04   -.267E+02 0.679E+02 -.135E+04   -.608E-01 0.513E+00 -.274E-01   0.426E-02 -.133E-04 -.121E-01
   0.192E+03 0.448E+02 -.147E+04   -.191E+03 -.449E+02 0.147E+04   -.694E+00 0.149E+00 -.279E-01   -.179E-02 -.307E-02 -.101E-02
   0.180E+03 0.564E+01 0.274E+04   -.178E+03 -.575E+01 -.273E+04   -.186E+01 0.106E+00 -.325E+01   -.304E-01 -.130E-01 0.943E-02
   -.976E+02 0.354E+02 0.159E+04   0.977E+02 -.350E+02 -.159E+04   -.171E+00 -.421E+00 0.297E+00   -.363E-01 -.372E-01 -.616E-02
   0.112E+03 -.576E+02 -.992E+02   -.112E+03 0.576E+02 0.992E+02   -.380E+00 0.829E-01 -.119E+00   -.178E-01 -.878E-02 0.905E-02
   0.134E+03 0.310E+02 0.297E+04   -.134E+03 -.306E+02 -.297E+04   -.161E+00 -.321E+00 -.152E+01   0.509E-02 0.291E-01 -.700E-02
   -.532E+02 -.163E+03 0.172E+04   0.533E+02 0.163E+03 -.172E+04   -.762E-01 0.325E+00 0.149E+00   -.404E-01 0.302E-01 -.162E-01
   0.192E+03 -.922E+01 0.134E+04   -.193E+03 0.930E+01 -.134E+04   0.410E+00 -.420E-01 0.456E+00   0.336E-01 0.921E-02 -.885E-02
   -.123E+03 0.261E+02 0.198E+03   0.122E+03 -.260E+02 -.198E+03   0.365E+00 -.710E-01 -.299E+00   0.227E-01 0.235E-01 0.319E-01
   0.562E+01 0.573E+02 -.127E+04   -.560E+01 -.574E+02 0.127E+04   -.391E-01 0.140E+00 0.553E+00   0.172E-01 0.178E-02 -.366E-02
   -.132E+03 0.134E+02 -.161E+04   0.131E+03 -.131E+02 0.161E+04   0.341E+00 -.250E+00 0.492E+00   -.398E-01 0.135E-02 0.381E-01
   0.829E+02 0.198E+03 0.290E+04   -.830E+02 -.199E+03 -.290E+04   -.342E-01 -.637E-01 -.120E+01   0.593E-01 0.429E-01 -.179E-01
   -.194E+03 -.246E+02 0.312E+04   0.192E+03 0.251E+02 -.312E+04   0.215E+01 -.413E+00 -.411E+01   -.432E-01 -.366E-02 -.164E-01
   -.495E+01 -.366E+02 0.204E+03   0.524E+01 0.366E+02 -.203E+03   -.387E+00 -.157E+00 -.272E+00   0.623E-02 0.173E-01 -.149E-01
   -.839E+02 -.119E+02 -.763E+02   0.836E+02 0.114E+02 0.762E+02   0.267E+00 0.443E+00 -.287E-01   0.342E-02 -.137E-01 -.221E-01
   0.321E+02 0.203E+03 0.111E+04   -.325E+02 -.203E+03 -.111E+04   0.275E+00 -.428E+00 0.296E-01   0.755E-01 0.204E-01 0.728E-02
   0.147E+03 0.151E+02 -.217E+03   -.147E+03 -.158E+02 0.217E+03   0.220E+00 0.730E+00 -.505E+00   0.364E-02 0.309E-03 -.123E-01
   -.101E+02 -.955E+02 0.167E+03   0.105E+02 0.954E+02 -.167E+03   -.487E+00 -.535E-02 -.305E+00   -.120E-01 0.242E-01 -.236E-02
   -.170E+03 -.110E+03 0.165E+04   0.170E+03 0.110E+03 -.165E+04   0.288E-01 -.186E+00 -.316E+00   0.125E-01 -.390E-01 -.522E-01
   -.706E+02 0.624E+01 0.148E+04   0.710E+02 -.618E+01 -.148E+04   -.241E+00 -.124E+00 -.701E+00   -.149E-01 0.139E-01 -.397E-01
   -.272E+03 -.156E+03 0.302E+04   0.270E+03 0.155E+03 -.302E+04   0.224E+01 0.136E+01 -.367E+01   -.227E-02 -.622E-01 -.516E-02
   0.296E+03 -.677E+02 0.296E+04   -.294E+03 0.669E+02 -.296E+04   -.219E+01 0.768E+00 -.282E+01   -.230E-02 0.590E-02 0.432E-02
   0.872E+02 0.283E+02 0.151E+04   -.872E+02 -.285E+02 -.151E+04   0.938E-01 0.192E+00 0.949E-02   -.357E-01 -.648E-02 0.150E-02
   0.141E+03 0.129E+02 0.120E+04   -.141E+03 -.128E+02 -.119E+04   0.112E+00 -.176E-01 -.315E+00   0.564E-03 0.406E-01 -.271E-01
   0.901E+02 0.208E+02 -.156E+04   -.900E+02 -.207E+02 0.156E+04   -.156E+00 -.899E-01 -.262E+00   -.353E-02 0.591E-02 -.455E-02
   -.799E+00 -.100E+02 0.308E+04   0.740E+00 0.105E+02 -.308E+04   -.652E-01 -.404E+00 -.174E+01   0.427E-01 -.128E-01 0.518E-02
   0.643E+02 0.175E+03 -.489E+02   -.648E+02 -.176E+03 0.496E+02   0.456E+00 0.260E+00 -.830E+00   0.175E-01 -.120E-01 -.493E-02
   0.597E+01 0.971E+02 -.277E+02   -.614E+01 -.965E+02 0.277E+02   0.263E+00 -.650E+00 -.149E+00   -.581E-01 -.720E-02 0.269E-01
   0.228E+03 0.545E+02 -.243E+03   -.229E+03 -.541E+02 0.244E+03   0.321E+00 -.419E+00 -.491E+00   -.485E-02 0.407E-02 -.913E-02
   -.642E+02 -.117E+03 -.894E+01   0.644E+02 0.117E+03 0.863E+01   -.124E+00 0.271E+00 0.192E+00   -.536E-01 0.116E-01 0.397E-01
   -.507E+01 -.367E+01 -.330E+03   0.510E+01 0.352E+01 0.332E+03   -.112E-01 0.137E+00 -.176E+01   -.507E-03 0.199E-03 0.333E-02
 -----------------------------------------------------------------------------------------------
   -.240E+01 -.189E+01 -.509E+01   0.529E-12 0.127E-12 -.146E-10   0.242E+01 0.187E+01 0.540E+01   -.430E-01 0.503E-01 -.329E+00
 
 
 POSITION                                       TOTAL-FORCE (eV/Angst)
 -----------------------------------------------------------------------------------
     13.78466      8.54608      6.62810        -0.002667     -0.001582     -0.001371
      5.29413      8.55809      6.41227         0.005922     -0.029112      0.027080
      5.12095      3.49088      6.86283         0.019137      0.026082      0.005570
     15.27532      9.36155      8.78451        -0.005720      0.006608     -0.008815
      3.86332      4.56295      9.01419        -0.015667      0.016798      0.011011
      6.79712      9.23909      8.74492         0.035675     -0.014235      0.018614
     12.34378      4.41104      9.07152        -0.024437      0.027109      0.003717
      9.56414      9.26583      9.12886        -0.000144      0.012531     -0.020791
     10.90000      2.07436      8.74944        -0.002906     -0.021765      0.004517
      2.62201      2.06452      9.08486         0.016702      0.001885      0.015400
     12.40006      9.23978      9.00874         0.007346     -0.002242      0.016733
     13.85031      6.95433      8.97547        -0.032024      0.000761      0.009026
      5.35169      1.90605      9.15627        -0.010700     -0.018127     -0.006569
      8.12060      6.79541      8.80517         0.006382     -0.009615     -0.004197
      9.52401      4.45827      8.79103         0.000443     -0.018224     -0.009913
      5.31646      6.92515      8.80452         0.002925      0.004150     -0.004410
      8.20987      1.91690      8.86332         0.016836      0.016412      0.028268
      7.98098      3.37181      6.61495        -0.008218     -0.000146     -0.002140
      6.54207      1.09981      6.79765         0.002490      0.009284     -0.026192
      6.83385      1.22925      1.47033        -0.002374      0.033504      0.001089
      3.61235      3.96468      2.61995        -0.004259      0.009903     -0.005129
      1.41991      1.42339      6.83297         0.001634      0.006073     -0.027777
      0.67127      0.98910      1.08188        -0.009429     -0.015305     -0.002526
      6.74807      9.00879      3.12342        -0.022766     -0.011335     -0.027303
      6.73772      4.42086      8.96743        -0.002853      0.010360      0.013090
      8.49330      5.38439      5.05378         0.017686      0.003517      0.018540
     11.00897      6.87183      9.09514        -0.020995      0.008042     -0.004230
     14.94884      7.37673      4.49249         0.011420     -0.017487     -0.014885
     12.47714      6.13386      6.83988         0.004549      0.003872     -0.014285
      6.46540      5.88245      6.63642         0.007368      0.003200      0.021471
      3.57422      2.54624      4.95878         0.012396      0.015029     -0.047013
     11.12614      5.45251      4.71025         0.014386     -0.001757      0.013466
      3.87355      5.89981      6.70038         0.025118     -0.012964      0.007689
     13.73438      8.58852      1.76277        -0.006249     -0.024598     -0.045326
      4.87663      8.41395      1.57788         0.001085      0.012349      0.022045
      3.75877      6.38414      2.06092         0.023125      0.004257      0.017392
      8.35850      2.27224      3.29405        -0.004625      0.001146     -0.003040
      9.33367      9.15886      2.96349         0.008045      0.003345      0.013915
      2.47404      3.83479      6.95497        -0.017743      0.008322     -0.004396
      1.94892      3.12368      0.97734        -0.006389      0.001737      0.009031
     10.75187      2.21221      3.05623        -0.006581      0.009630     -0.002811
     13.77799      5.05868      4.81470        -0.031490      0.011395     -0.021568
      3.94010      0.96189      7.01008         0.011515     -0.026827      0.016474
      9.82581      6.29408      6.97738         0.014533     -0.005548      0.003821
      3.32747      0.88717      1.07332        -0.004772     -0.001569     -0.013073
      9.37038      5.94444      1.03355         0.023778      0.007172     -0.040309
      5.77436      3.51120      1.58883         0.004256      0.006689      0.012796
     11.78080      9.10211      3.01275        -0.009189     -0.005803      0.025438
     12.14221      7.86485      4.90717        -0.000784     -0.007162     -0.008843
     12.89855      6.59993      3.08536        -0.001852     -0.008844      0.019796
      9.60902      4.40928      2.93166        -0.013735     -0.011259     -0.001244
      8.50055      8.47219      6.95943         0.017039      0.024946      0.002493
      8.12654      8.25967      1.10014        -0.017274      0.007198      0.000143
     10.59532      7.05732      2.72628        -0.000761      0.002580      0.011126
      2.64345      0.12582      5.05287         0.010994     -0.000769     -0.001574
      8.18206      3.50560      1.21995        -0.007066     -0.031789      0.008953
      4.79851      1.62222      2.89617        -0.004640     -0.001893      0.022172
      5.80940      6.64990      3.24762        -0.014065      0.001645     -0.023181
      7.65468      0.41297      4.68699        -0.042633      0.018048      0.043034
      9.46201      1.13938      6.52859        -0.002325     -0.000277      0.006274
     10.92647      8.48913      6.95177         0.010939      0.029271     -0.000771
      9.36237      1.19334      1.33066         0.024779      0.005195      0.005078
     10.65631      8.73216      0.98021        -0.001932     -0.004354     -0.010452
      5.03147      4.91039      4.71650        -0.031288     -0.076616      0.011110
     12.26834      3.06562      4.96160        -0.004801     -0.002661     -0.001239
      9.64277      0.01896      3.43463         0.015169      0.007090      0.019914
      9.85949      3.06130      5.05334         0.004488      0.008593     -0.009587
      6.31739      2.58312      4.70295        -0.023078     -0.020629      0.019784
     12.25313      4.17493      2.83324        -0.005372     -0.007725     -0.002261
      2.09525      1.75623      3.07324         0.013037      0.011901      0.022328
     11.83128      5.72145      1.13423         0.031159      0.003246      0.000733
      6.85743      5.74904      1.30355        -0.003080     -0.005805      0.012005
      8.21979      6.81570      3.00225        -0.000424      0.011620     -0.002819
      7.04013      4.41026      3.27464        -0.005619     -0.001655     -0.001173
     11.11789      3.89771      6.90099        -0.000236     -0.000916     -0.009998
     10.73608      3.41609      1.01158         0.006659     -0.009557      0.005925
     11.35396      0.81935      4.88330        -0.039511      0.020600     -0.088296
      9.67608      7.72321      4.95729         0.014840     -0.016092     -0.018014
      7.20385      7.63915      5.11888         0.025071      0.027265     -0.017192
      5.07803      0.26935      4.93904        -0.006685      0.003350     -0.017683
      6.13849      3.22515     10.04409         0.010427     -0.017466      0.025336
 -----------------------------------------------------------------------------------
    total drift:                               -0.028339      0.031181     -0.014998


--------------------------------------------------------------------------------------------------------



  FREE ENERGIE OF THE ION-ELECTRON SYSTEM (eV)
  ---------------------------------------------------
  free  energy   TOTEN  =      -503.52421428 eV

  energy  without entropy=     -503.55763523  energy(sigma->0) =     -503.53535460
 
 d Force = 0.4192421E-02[ 0.137E-02, 0.701E-02]  d Energy = 0.4125363E-02 0.671E-04
 d Force = 0.4689602E+02[ 0.468E+02, 0.470E+02]  d Ewald  = 0.4689609E+02-0.707E-04


--------------------------------------------------------------------------------------------------------


    POTLOK:  cpu time    0.4658: real time    0.4881


--------------------------------------------------------------------------------------------------------


 Conjugate gradient step on ions:
 trial-energy change:   -0.004125  1 .order   -0.004192   -0.007014   -0.001370
  (g-gl).g = 0.376E-02      g.g   = 0.369E-02  gl.gl    = 0.109E-01
 g(Force)  = 0.369E-02   g(Stress)= 0.000E+00 ortho     = 0.227E-03
 gamma     =   0.34441
 trial     =   1.85954
 opt step  =   2.35587  (harmonic =   2.31105) maximal distance =0.01760863
 next E    =  -503.524396   (d E  =  -0.00431)


--------------------------------------------------------------------------------------------------------


  
 reached required accuracy - stopping structural energy minimisation
     LOOP+:  cpu time  866.9416: real time  871.3348
    4ORBIT:  cpu time    0.0000: real time    0.0000

 total amount of memory used by VASP MPI-rank0   243557. kBytes
=======================================================================

   base      :      30000. kBytes
   nonlr-proj:      33158. kBytes
   fftplans  :      18297. kBytes
   grid      :      51226. kBytes
   one-center:        653. kBytes
   wavefun   :     110223. kBytes
 
  
  
 General timing and accounting informations for this job:
 ========================================================
  
                  Total CPU time used (sec):    16121.238
                            User time (sec):    15679.829
                          System time (sec):      441.409
                         Elapsed time (sec):    16208.305
  
                   Maximum memory used (kb):      424260.
                   Average memory used (kb):           0.
  
                          Minor page faults:      4620358
                          Major page faults:          240
                 Voluntary context switches:        10784
