 vasp.5.4.4.18Apr17-6-g9f103f2a35 (build Oct 25 2019 11:13:22) complex          
  
 executed on             LinuxIFC date 2021.10.16  12:33:26
 running on   48 total cores
 distrk:  each k-point on   48 cores,    1 groups
 distr:  one band on NCORES_PER_BAND=   4 cores,   12 groups


--------------------------------------------------------------------------------------------------------


 INCAR:
 POTCAR:    PAW_PBE Pt 04Feb2005                  
 POTCAR:    PAW_PBE Fe 06Sep2000                  
 POTCAR:    PAW_PBE Co 02Aug2007                  
 POTCAR:    PAW_PBE Cu 22Jun2005                  
 POTCAR:    PAW_PBE Ni 02Aug2007                  
 POTCAR:    PAW_PBE H 15Jun2001                   
 POTCAR:    PAW_PBE Pt 04Feb2005                  
   VRHFIN =Pt: s1d9                                                             
   LEXCH  = PE                                                                  
   EATOM  =   729.1176 eV,   53.5886 Ry                                         
                                                                                
   TITEL  = PAW_PBE Pt 04Feb2005                                                
   LULTRA =        F    use ultrasoft PP ?                                      
   IUNSCR =        1    unscreen: 0-lin 1-nonlin 2-no                           
   RPACOR =    2.330    partial core radius                                     
   POMASS =  195.080; ZVAL   =   10.000    mass and valenz                      
   RCORE  =    2.600    outmost cutoff radius                                   
   RWIGS  =    2.750; RWIGS  =    1.455    wigner-seitz radius (au A)           
   ENMAX  =  230.283; ENMIN  =  172.712 eV                                      
   ICORE  =        3    local potential                                         
   LCOR   =        T    correct aug charges                                     
   LPAW   =        T    paw PP                                                  
   EAUG   =  358.966                                                            
   DEXC   =    0.000                                                            
   RMAX   =    2.658    core radius for proj-oper                               
   RAUG   =    1.300    factor for augmentation sphere                          
   RDEP   =    2.761    radius for radial grids                                 
   RDEPT  =    2.203    core radius for aug-charge                              
                                                                                
   Atomic configuration                                                         
   16 entries                                                                   
     n  l   j            E        occ.                                          
     1  0  0.50    -78401.1885   2.0000                                         
     2  0  0.50    -13770.7750   2.0000                                         
     2  1  1.50    -11931.0468   6.0000                                         
     3  0  0.50     -3234.7234   2.0000                                         
     3  1  1.50     -2699.2216   6.0000                                         
     3  2  2.50     -2119.5714  10.0000                                         
     4  0  0.50      -695.1528   2.0000                                         
     4  1  1.50      -519.6034   6.0000                                         
     4  2  2.50      -306.6786  10.0000                                         
     4  3  3.50       -70.1041  14.0000                                         
     5  0  0.50      -101.7747   2.0000                                         
     5  1  1.50       -55.9873   6.0000                                         
     5  2  2.50        -6.1423   9.0000                                         
     6  0  0.50        -5.6573   1.0000                                         
     6  1  1.50        -6.8029   0.0000                                         
     5  3  2.50        -1.3606   0.0000                                         
   Description                                                                  
     l       E           TYP  RCUT    TYP  RCUT                                 
     2     -6.1423404     23  2.500                                             
     2     -7.5029230     23  2.500                                             
     0     -5.6573207     23  2.500                                             
     0      0.7416693     23  2.500                                             
     1     -2.7211652     23  2.600                                             
     1     20.4087390     23  2.600                                             
     3     -1.3605826     23  2.500                                             
  local pseudopotential read in
  partial core-charges read in
  partial kinetic energy density read in
  atomic valenz-charges read in
  non local Contribution for L=           2  read in
    real space projection operators read in
  non local Contribution for L=           2  read in
    real space projection operators read in
  non local Contribution for L=           0  read in
    real space projection operators read in
  non local Contribution for L=           0  read in
    real space projection operators read in
  non local Contribution for L=           1  read in
    real space projection operators read in
  non local Contribution for L=           1  read in
    real space projection operators read in
    PAW grid and wavefunctions read in
 
   number of l-projection  operators is LMAX  =           6
   number of lm-projection operators is LMMAX =          18
 
 POTCAR:    PAW_PBE Fe 06Sep2000                  
   VRHFIN =Fe:  d7 s1                                                           
   LEXCH  = PE                                                                  
   EATOM  =   594.3153 eV,   43.6809 Ry                                         
                                                                                
   TITEL  = PAW_PBE Fe 06Sep2000                                                
   LULTRA =        F    use ultrasoft PP ?                                      
   IUNSCR =        1    unscreen: 0-lin 1-nonlin 2-no                           
   RPACOR =    2.000    partial core radius                                     
   POMASS =   55.847; ZVAL   =    8.000    mass and valenz                      
   RCORE  =    2.300    outmost cutoff radius                                   
   RWIGS  =    2.460; RWIGS  =    1.302    wigner-seitz radius (au A)           
   ENMAX  =  267.882; ENMIN  =  200.911 eV                                      
   RCLOC  =    1.701    cutoff for local pot                                    
   LCOR   =        T    correct aug charges                                     
   LPAW   =        T    paw PP                                                  
   EAUG   =  511.368                                                            
   DEXC   =    0.000                                                            
   RMAX   =    2.356    core radius for proj-oper                               
   RAUG   =    1.300    factor for augmentation sphere                          
   RDEP   =    2.442    radius for radial grids                                 
   RDEPT  =    1.890    core radius for aug-charge                              
                                                                                
   Atomic configuration                                                         
    9 entries                                                                   
     n  l   j            E        occ.                                          
     1  0  0.50     -6993.8440   2.0000                                         
     2  0  0.50      -814.6047   2.0000                                         
     2  1  1.50      -693.3689   6.0000                                         
     3  0  0.50       -89.4732   2.0000                                         
     3  1  1.50       -55.6373   6.0000                                         
     3  2  2.50        -3.8151   7.0000                                         
     4  0  0.50        -4.2551   1.0000                                         
     4  1  1.50        -3.4015   0.0000                                         
     4  3  2.50        -1.3606   0.0000                                         
   Description                                                                  
     l       E           TYP  RCUT    TYP  RCUT                                 
     2     -3.8151135     23  2.300                                             
     2     -5.1756961     23  2.300                                             
     0     -4.2550963     23  2.300                                             
     0      7.2035603     23  2.300                                             
     1     -2.7211652     23  2.300                                             
     1     18.4316424     23  2.300                                             
  local pseudopotential read in
  partial core-charges read in
  partial kinetic energy density read in
  atomic valenz-charges read in
  non local Contribution for L=           2  read in
    real space projection operators read in
  non local Contribution for L=           2  read in
    real space projection operators read in
  non local Contribution for L=           0  read in
    real space projection operators read in
  non local Contribution for L=           0  read in
    real space projection operators read in
  non local Contribution for L=           1  read in
    real space projection operators read in
  non local Contribution for L=           1  read in
    real space projection operators read in
    PAW grid and wavefunctions read in
 
   number of l-projection  operators is LMAX  =           6
   number of lm-projection operators is LMMAX =          18
 
 POTCAR:    PAW_PBE Co 02Aug2007                  
   VRHFIN =Co: d8 s1                                                            
   LEXCH  = PE                                                                  
   EATOM  =   813.3670 eV,   59.7808 Ry                                         
                                                                                
   TITEL  = PAW_PBE Co 02Aug2007                                                
   LULTRA =        F    use ultrasoft PP ?                                      
   IUNSCR =        1    unscreen: 0-lin 1-nonlin 2-no                           
   RPACOR =    2.000    partial core radius                                     
   POMASS =   58.933; ZVAL   =    9.000    mass and valenz                      
   RCORE  =    2.300    outmost cutoff radius                                   
   RWIGS  =    2.460; RWIGS  =    1.302    wigner-seitz radius (au A)           
   ENMAX  =  267.968; ENMIN  =  200.976 eV                                      
   RCLOC  =    1.203    cutoff for local pot                                    
   LCOR   =        T    correct aug charges                                     
   LPAW   =        T    paw PP                                                  
   EAUG   =  477.818                                                            
   DEXC   =    0.000                                                            
   RMAX   =    2.360    core radius for proj-oper                               
   RAUG   =    1.300    factor for augmentation sphere                          
   RDEP   =    2.393    radius for radial grids                                 
   RDEPT  =    1.864    core radius for aug-charge                              
                                                                                
   Atomic configuration                                                         
    9 entries                                                                   
     n  l   j            E        occ.                                          
     1  0  0.50     -7587.6674   2.0000                                         
     2  0  0.50      -893.6084   2.0000                                         
     2  1  1.50      -764.5805   6.0000                                         
     3  0  0.50       -97.5973   2.0000                                         
     3  1  1.50       -60.9648   6.0000                                         
     3  2  2.50        -4.2382   8.0000                                         
     4  0  0.50        -4.3746   1.0000                                         
     4  1  1.50        -4.0817   0.0000                                         
     4  3  2.50        -1.3606   0.0000                                         
   Description                                                                  
     l       E           TYP  RCUT    TYP  RCUT                                 
     2     -4.2382362     23  2.300                                             
     2     -5.5988188     23  2.300                                             
     0     -4.3745797     23  2.300                                             
     0      5.7660125     23  2.300                                             
     1     -2.7211652     23  2.300                                             
     1     16.9860234     23  2.300                                             
  local pseudopotential read in
  partial core-charges read in
  partial kinetic energy density read in
  atomic valenz-charges read in
  non local Contribution for L=           2  read in
    real space projection operators read in
  non local Contribution for L=           2  read in
    real space projection operators read in
  non local Contribution for L=           0  read in
    real space projection operators read in
  non local Contribution for L=           0  read in
    real space projection operators read in
  non local Contribution for L=           1  read in
    real space projection operators read in
  non local Contribution for L=           1  read in
    real space projection operators read in
    PAW grid and wavefunctions read in
 
   number of l-projection  operators is LMAX  =           6
   number of lm-projection operators is LMMAX =          18
 
 POTCAR:    PAW_PBE Cu 22Jun2005                  
   VRHFIN =Cu: d10 p1                                                           
   LEXCH  = PE                                                                  
   EATOM  =  1390.9808 eV,  102.2342 Ry                                         
                                                                                
   TITEL  = PAW_PBE Cu 22Jun2005                                                
   LULTRA =        F    use ultrasoft PP ?                                      
   IUNSCR =        1    unscreen: 0-lin 1-nonlin 2-no                           
   RPACOR =    2.000    partial core radius                                     
   POMASS =   63.546; ZVAL   =   11.000    mass and valenz                      
   RCORE  =    2.300    outmost cutoff radius                                   
   RWIGS  =    2.200; RWIGS  =    1.164    wigner-seitz radius (au A)           
   ENMAX  =  295.446; ENMIN  =  221.585 eV                                      
   ICORE  =        3    local potential                                         
   LCOR   =        T    correct aug charges                                     
   LPAW   =        T    paw PP                                                  
   EAUG   =  586.980                                                            
   DEXC   =    0.000                                                            
   RMAX   =    2.344    core radius for proj-oper                               
   RAUG   =    1.300    factor for augmentation sphere                          
   RDEP   =    2.302    radius for radial grids                                 
   RDEPT  =    1.771    core radius for aug-charge                              
                                                                                
   Atomic configuration                                                         
    9 entries                                                                   
     n  l   j            E        occ.                                          
     1  0  0.50     -8850.2468   2.0000                                         
     2  0  0.50     -1062.3498   2.0000                                         
     2  1  1.50      -916.8226   6.0000                                         
     3  0  0.50      -114.6929   2.0000                                         
     3  1  1.50       -72.1325   6.0000                                         
     3  2  2.50        -5.0394  10.0000                                         
     4  0  0.50        -4.6097   1.0000                                         
     4  1  0.50        -4.0817   0.0000                                         
     4  3  2.50        -1.3606   0.0000                                         
   Description                                                                  
     l       E           TYP  RCUT    TYP  RCUT                                 
     2     -5.0393973     23  2.200                                             
     2     10.8846608     23  2.200                                             
     0     -4.6097109     23  2.200                                             
     0      8.2520465     23  2.200                                             
     1     -2.7211652     23  2.200                                             
     1     21.7055443     23  2.200                                             
     3      2.7211652     23  2.300                                             
  local pseudopotential read in
  partial core-charges read in
  partial kinetic energy density read in
  atomic valenz-charges read in
  non local Contribution for L=           2  read in
    real space projection operators read in
  non local Contribution for L=           2  read in
    real space projection operators read in
  non local Contribution for L=           0  read in
    real space projection operators read in
  non local Contribution for L=           0  read in
    real space projection operators read in
  non local Contribution for L=           1  read in
    real space projection operators read in
  non local Contribution for L=           1  read in
    real space projection operators read in
    PAW grid and wavefunctions read in
 
   number of l-projection  operators is LMAX  =           6
   number of lm-projection operators is LMMAX =          18
 
 POTCAR:    PAW_PBE Ni 02Aug2007                  
   VRHFIN =Ni:                                                                  
   LEXCH  = PE                                                                  
   EATOM  =  1077.6739 eV,   79.2068 Ry                                         
                                                                                
   TITEL  = PAW_PBE Ni 02Aug2007                                                
   LULTRA =        F    use ultrasoft PP ?                                      
   IUNSCR =        1    unscreen: 0-lin 1-nonlin 2-no                           
   RPACOR =    2.000    partial core radius                                     
   POMASS =   58.690; ZVAL   =   10.000    mass and valenz                      
   RCORE  =    2.300    outmost cutoff radius                                   
   RWIGS  =    2.430; RWIGS  =    1.286    wigner-seitz radius (au A)           
   ENMAX  =  269.532; ENMIN  =  202.149 eV                                      
   RCLOC  =    1.201    cutoff for local pot                                    
   LCOR   =        T    correct aug charges                                     
   LPAW   =        T    paw PP                                                  
   EAUG   =  544.565                                                            
   DEXC   =    0.000                                                            
   RMAX   =    2.357    core radius for proj-oper                               
   RAUG   =    1.300    factor for augmentation sphere                          
   RDEP   =    2.390    radius for radial grids                                 
   RDEPT  =    1.838    core radius for aug-charge                              
                                                                                
   Atomic configuration                                                         
    9 entries                                                                   
     n  l   j            E        occ.                                          
     1  0  0.50     -8206.4253   2.0000                                         
     2  0  0.50      -976.1748   2.0000                                         
     2  1  1.50      -839.0571   6.0000                                         
     3  0  0.50      -105.9991   2.0000                                         
     3  1  1.50       -66.4603   6.0000                                         
     3  2  2.50        -4.6458   9.0000                                         
     4  0  0.50        -4.4926   1.0000                                         
     4  1  1.50        -4.0817   0.0000                                         
     4  3  2.50        -1.3606   0.0000                                         
   Description                                                                  
     l       E           TYP  RCUT    TYP  RCUT                                 
     2     -4.6457903     23  2.300                                             
     2     -6.0063729     23  2.300                                             
     0     -4.4925590     23  2.300                                             
     0      5.0102601     23  2.300                                             
     1     -2.7211652     23  2.300                                             
     1     16.5183231     23  2.300                                             
  local pseudopotential read in
  partial core-charges read in
  partial kinetic energy density read in
  atomic valenz-charges read in
  non local Contribution for L=           2  read in
    real space projection operators read in
  non local Contribution for L=           2  read in
    real space projection operators read in
  non local Contribution for L=           0  read in
    real space projection operators read in
  non local Contribution for L=           0  read in
    real space projection operators read in
  non local Contribution for L=           1  read in
    real space projection operators read in
  non local Contribution for L=           1  read in
    real space projection operators read in
    PAW grid and wavefunctions read in
 
   number of l-projection  operators is LMAX  =           6
   number of lm-projection operators is LMMAX =          18
 
 POTCAR:    PAW_PBE H 15Jun2001                   
   VRHFIN =H: ultrasoft test                                                    
   LEXCH  = PE                                                                  
   EATOM  =    12.4884 eV,    0.9179 Ry                                         
                                                                                
   TITEL  = PAW_PBE H 15Jun2001                                                 
   LULTRA =        F    use ultrasoft PP ?                                      
   IUNSCR =        0    unscreen: 0-lin 1-nonlin 2-no                           
   RPACOR =    0.000    partial core radius                                     
   POMASS =    1.000; ZVAL   =    1.000    mass and valenz                      
   RCORE  =    1.100    outmost cutoff radius                                   
   RWIGS  =    0.700; RWIGS  =    0.370    wigner-seitz radius (au A)           
   ENMAX  =  250.000; ENMIN  =  200.000 eV                                      
   RCLOC  =    0.701    cutoff for local pot                                    
   LCOR   =        T    correct aug charges                                     
   LPAW   =        T    paw PP                                                  
   EAUG   =  400.000                                                            
   RMAX   =    1.123    core radius for proj-oper                               
   RAUG   =    1.200    factor for augmentation sphere                          
   RDEP   =    1.112    radius for radial grids                                 
   RDEPT  =    0.926    core radius for aug-charge                              
                                                                                
   Atomic configuration                                                         
    2 entries                                                                   
     n  l   j            E        occ.                                          
     1  0  0.50        -6.4927   1.0000                                         
     2  1  0.50        -3.4015   0.0000                                         
   Description                                                                  
     l       E           TYP  RCUT    TYP  RCUT                                 
     0     -6.4927494     23  1.100                                             
     0      6.8029130     23  1.100                                             
     1     -4.0817478     23  1.100                                             
  local pseudopotential read in
  atomic valenz-charges read in
  non local Contribution for L=           0  read in
    real space projection operators read in
  non local Contribution for L=           0  read in
    real space projection operators read in
  non local Contribution for L=           1  read in
    real space projection operators read in
    PAW grid and wavefunctions read in
 
   number of l-projection  operators is LMAX  =           3
   number of lm-projection operators is LMMAX =           5
 
 Optimization of the real space projectors (new method)

 maximal supplied QI-value         = 14.36
 optimisation between [QCUT,QGAM] = [ 11.92, 23.98] = [ 39.79,161.09] Ry 
 Optimized for a Real-space Cutoff    1.49 Angstroem

   l    n(q)    QCUT    max X(q) W(low)/X(q) W(high)/X(q)  e(spline) 
   2     10    11.920    66.195    0.79E-04    0.18E-03    0.24E-06
   2     10    11.920    64.643    0.81E-04    0.19E-03    0.24E-06
   0     11    11.920    95.520    0.28E-04    0.54E-04    0.18E-06
   0     11    11.920    63.403    0.27E-04    0.52E-04    0.17E-06
   1     10    11.920    19.961    0.18E-04    0.11E-03    0.23E-06
   1     10    11.920    13.289    0.25E-04    0.87E-04    0.19E-06
 Optimization of the real space projectors (new method)

 maximal supplied QI-value         = 16.25
 optimisation between [QCUT,QGAM] = [ 11.86, 23.89] = [ 39.41,159.82] Ry 
 Optimized for a Real-space Cutoff    1.49 Angstroem

   l    n(q)    QCUT    max X(q) W(low)/X(q) W(high)/X(q)  e(spline) 
   2     10    11.864    80.901    0.13E-03    0.23E-03    0.37E-06
   2     10    11.864    75.754    0.13E-03    0.23E-03    0.38E-06
   0     11    11.864    58.752    0.44E-04    0.11E-04    0.20E-06
   0     11    11.864    30.679    0.36E-04    0.10E-04    0.18E-06
   1     10    11.864    17.977    0.31E-04    0.45E-04    0.10E-06
   1     10    11.864    13.559    0.25E-04    0.37E-04    0.89E-07
 Optimization of the real space projectors (new method)

 maximal supplied QI-value         = 16.25
 optimisation between [QCUT,QGAM] = [ 11.86, 23.89] = [ 39.41,159.82] Ry 
 Optimized for a Real-space Cutoff    1.33 Angstroem

   l    n(q)    QCUT    max X(q) W(low)/X(q) W(high)/X(q)  e(spline) 
   2      9    11.864    65.824    0.22E-03    0.53E-03    0.26E-06
   2      9    11.864    61.429    0.22E-03    0.53E-03    0.26E-06
   0      9    11.864    56.174    0.21E-03    0.32E-04    0.15E-06
   0      9    11.864    31.263    0.19E-03    0.30E-04    0.14E-06
   1      9    11.864    19.828    0.63E-04    0.30E-03    0.16E-06
   1      9    11.864    15.139    0.49E-04    0.25E-03    0.13E-06
 Optimization of the real space projectors (new method)

 maximal supplied QI-value         = 16.25
 optimisation between [QCUT,QGAM] = [ 11.86, 23.89] = [ 39.41,159.82] Ry 
 Optimized for a Real-space Cutoff    1.49 Angstroem

   l    n(q)    QCUT    max X(q) W(low)/X(q) W(high)/X(q)  e(spline) 
   2     10    11.864     4.610    0.10E-03    0.20E-03    0.29E-06
   2     10    11.864     8.522    0.17E-03    0.33E-03    0.50E-06
   0     11    11.864    51.609    0.52E-04    0.55E-04    0.33E-06
   0     11    11.864    27.747    0.46E-04    0.52E-04    0.31E-06
   1     10    11.864    20.408    0.54E-04    0.25E-04    0.21E-06
   1     10    11.864    13.425    0.48E-04    0.22E-04    0.18E-06
 Optimization of the real space projectors (new method)

 maximal supplied QI-value         = 16.25
 optimisation between [QCUT,QGAM] = [ 11.86, 23.89] = [ 39.41,159.82] Ry 
 Optimized for a Real-space Cutoff    1.33 Angstroem

   l    n(q)    QCUT    max X(q) W(low)/X(q) W(high)/X(q)  e(spline) 
   2      9    11.864    60.317    0.21E-03    0.51E-03    0.25E-06
   2      9    11.864    55.921    0.21E-03    0.51E-03    0.26E-06
   0      9    11.864    51.690    0.22E-03    0.30E-04    0.17E-06
   0      9    11.864    30.015    0.20E-03    0.28E-04    0.15E-06
   1      9    11.864    18.849    0.76E-04    0.33E-03    0.17E-06
   1      9    11.864    14.624    0.60E-04    0.28E-03    0.15E-06
 Optimization of the real space projectors (new method)

 maximal supplied QI-value         = 34.20
 optimisation between [QCUT,QGAM] = [ 11.97, 23.94] = [ 40.13,160.53] Ry 
 Optimized for a Real-space Cutoff    1.18 Angstroem

   l    n(q)    QCUT    max X(q) W(low)/X(q) W(high)/X(q)  e(spline) 
   0      8    11.971    19.460    0.15E-03    0.31E-03    0.25E-06
   0      8    11.971    12.209    0.13E-03    0.29E-03    0.25E-06
   1      8    11.971     4.655    0.22E-03    0.24E-03    0.21E-06
  PAW_PBE Pt 04Feb2005                  :
 energy of atom  1       EATOM= -729.1176
 kinetic energy error for atom=    0.0021 (will be added to EATOM!!)
  PAW_PBE Fe 06Sep2000                  :
 energy of atom  2       EATOM= -594.3153
 kinetic energy error for atom=    0.0024 (will be added to EATOM!!)
  PAW_PBE Co 02Aug2007                  :
 energy of atom  3       EATOM= -813.3670
 kinetic energy error for atom=    0.0026 (will be added to EATOM!!)
  PAW_PBE Cu 22Jun2005                  :
 energy of atom  4       EATOM=-1390.9808
 kinetic energy error for atom=    0.0036 (will be added to EATOM!!)
  PAW_PBE Ni 02Aug2007                  :
 energy of atom  5       EATOM=-1077.6739
 kinetic energy error for atom=    0.0027 (will be added to EATOM!!)
  PAW_PBE H 15Jun2001                   :
 energy of atom  6       EATOM=  -12.4884
 kinetic energy error for atom=    0.0008 (will be added to EATOM!!)
 
 
 POSCAR: 10.96                                   
  positions in direct lattice
  velocities in cartesian coordinates
 exchange correlation table for  LEXCH =        8
   RHO(1)=    0.500       N(1)  =     2000
   RHO(2)=  100.500       N(2)  =     4000
 


--------------------------------------------------------------------------------------------------------


 ion  position               nearest neighbor table
   1  0.787  0.880  0.313-  49 2.59  59 2.62  28 2.64  19 2.73  33 2.75  61 2.75  11 2.75  29 2.75
                            60 2.76   4 2.80   2 2.81  12 2.84
   2  0.043  0.881  0.311-  79 2.55  77 2.60  28 2.70  30 2.72  60 2.72  33 2.74  52 2.75   6 2.79
                            22 2.80   1 2.81   4 2.86  16 2.93
   3  0.279  0.379  0.316-  64 2.55  31 2.65  39 2.66  68 2.66  33 2.71   5 2.74  13 2.77  19 2.79
                            43 2.80  25 2.81  30 2.81  18 2.93
   4  0.870  0.965  0.418-  17 2.69  11 2.72   9 2.73  60 2.75  12 2.78   1 2.80   6 2.80  16 2.83
                             2 2.86
   5  0.118  0.465  0.420-  39 2.67  12 2.69   7 2.69  33 2.70  16 2.70  10 2.72   3 2.74  25 2.78
                            13 2.82
   6  0.127  0.963  0.416-   8 2.69  52 2.72  10 2.73  14 2.76   9 2.77   2 2.79   4 2.80  22 2.81
                            16 2.82
   7  0.876  0.457  0.420-  81 1.72  39 2.65  75 2.68   5 2.69   9 2.70  15 2.70  10 2.72  12 2.75
                            29 2.76  27 2.79
   8  0.374  0.960  0.415-  43 2.58  52 2.65  61 2.69   6 2.69  14 2.70  27 2.71  13 2.72  10 2.74
                            11 2.74
   9  0.872  0.214  0.414-  81 1.89  75 2.63  60 2.68   7 2.70  15 2.70  17 2.73   4 2.73   6 2.77
                            22 2.79  10 2.79
  10  0.127  0.213  0.416-  39 2.65  43 2.69  13 2.70   5 2.72   7 2.72   6 2.73   8 2.74  22 2.74
                             9 2.79
  11  0.625  0.959  0.417-  12 2.72  27 2.72   4 2.72  13 2.73   8 2.74   1 2.75  61 2.75  17 2.75
                            19 2.79
  12  0.873  0.710  0.420-  33 2.69   5 2.69  11 2.72  29 2.73  27 2.74   7 2.75  16 2.76   4 2.78
                             1 2.84
  13  0.376  0.208  0.418-  10 2.70  43 2.71   8 2.72  11 2.73  17 2.75  25 2.76  19 2.77   3 2.77
                             5 2.82
  14  0.379  0.711  0.417-  44 2.63  27 2.67  52 2.68   8 2.70  15 2.72  30 2.75   6 2.76  25 2.77
                            16 2.79
  15  0.627  0.462  0.417-  81 1.83  44 2.64  75 2.66   7 2.70   9 2.70  27 2.71  14 2.72  18 2.73
                            17 2.78  25 2.79
  16  0.127  0.706  0.421-  33 2.66   5 2.70  25 2.70  12 2.76  30 2.78  14 2.79   6 2.82   4 2.83
                             2 2.93
  17  0.625  0.210  0.416-   4 2.69  18 2.72   9 2.73  60 2.74  25 2.74  13 2.75  11 2.75  15 2.78
                            19 2.82
  18  0.547  0.377  0.315-  67 2.55  68 2.61  26 2.67  44 2.71  60 2.71  17 2.72  75 2.73  15 2.73
                            25 2.81  30 2.81  19 2.84   3 2.93
  19  0.534  0.125  0.312-  80 2.54  68 2.56  59 2.58  43 2.64   1 2.73  61 2.74  13 2.77  11 2.79
                             3 2.79  17 2.82  18 2.84  60 2.86
  20  0.552  0.123  0.049-  37 2.55  57 2.55  48 2.56  62 2.66  34 2.75  63 2.75  56 2.76  47 2.76
                            45 2.89
  21  0.118  0.455  0.128-  47 2.53  36 2.53  40 2.54  42 2.61  64 2.66  69 2.68  70 2.73  31 2.73
                            50 2.74  57 2.80  58 2.90  74 2.90
  22  0.046  0.135  0.312-  65 2.53  77 2.56  55 2.56  43 2.67  39 2.68  10 2.74  75 2.76   9 2.79
                             2 2.80  60 2.80   6 2.81  52 2.82  31 3.38
  23  0.033  0.135  0.038-  70 2.57  41 2.58  40 2.62  76 2.65  62 2.69  24 2.71  45 2.75  35 2.89
                            53 2.94
  24  0.132  0.957  0.134-  79 2.51  77 2.56  35 2.57  53 2.57  55 2.60  70 2.65  58 2.70  23 2.71
                            73 2.72  38 2.73  66 2.80  41 2.85
  25  0.374  0.460  0.419-  16 2.70  17 2.74  13 2.76  14 2.77   5 2.78  15 2.79  30 2.79   3 2.81
                            18 2.81
  26  0.457  0.549  0.219-  73 2.51  74 2.53  51 2.55  30 2.65  79 2.65  18 2.67  44 2.70  78 2.73
                            32 2.73  68 2.78  64 2.78  67 2.84
  27  0.622  0.712  0.418-  44 2.66  14 2.67  61 2.70  15 2.71   8 2.71  11 2.72  12 2.74  29 2.77
                             7 2.79
  28  0.956  0.783  0.218-  58 2.56  50 2.56  66 2.59   1 2.64  42 2.65  49 2.67  33 2.67   2 2.70
                            64 2.72  59 2.87  79 3.01  77 3.01
  29  0.798  0.623  0.317-  42 2.55  39 2.61  32 2.63  49 2.65  75 2.66  33 2.72  12 2.73   1 2.75
                             7 2.76  27 2.77  61 2.77  44 2.79
  30  0.288  0.631  0.315-  79 2.55  64 2.61  26 2.65  33 2.71  52 2.71   2 2.72  14 2.75  44 2.76
                            16 2.78  25 2.79   3 2.81  18 2.81
  31  0.199  0.277  0.225-  70 2.49  43 2.57  57 2.58  55 2.62  65 2.62  39 2.63   3 2.65  21 2.73
                            42 2.78  80 2.81  64 2.93  68 2.93  22 3.38
  32  0.705  0.552  0.221-  54 2.54  69 2.56  51 2.58  29 2.63  49 2.63  44 2.66  78 2.67  75 2.68
                            42 2.70  65 2.70  26 2.73  67 2.77
  33  0.041  0.633  0.321-  16 2.66  28 2.67  64 2.69  12 2.69   5 2.70   3 2.71  30 2.71  42 2.72
                            29 2.72   2 2.74   1 2.75  39 2.76
  34  0.792  0.862  0.051-  50 2.38  48 2.46  66 2.53  63 2.62  36 2.62  71 2.63  20 2.75  35 2.86
                            62 2.92
  35  0.053  0.862  0.044-  36 2.47  58 2.55  24 2.57  66 2.62  72 2.68  53 2.84  34 2.86  62 2.89
                            23 2.89
  36  0.046  0.641  0.046-  35 2.47  21 2.53  58 2.56  50 2.62  34 2.62  72 2.68  47 2.85  71 2.92
                            40 3.01
  37  0.628  0.229  0.134-  67 2.50  56 2.50  51 2.50  59 2.55  20 2.55  68 2.55  74 2.56  62 2.58
                            41 2.59  66 2.75  57 2.89
  38  0.383  0.953  0.133-  53 2.44  45 2.46  80 2.47  78 2.53  55 2.54  63 2.56  73 2.59  48 2.60
                            54 2.61  24 2.73  57 2.74  70 2.78
  39  0.035  0.384  0.321-  29 2.61  42 2.62  31 2.63  10 2.65   7 2.65   3 2.66  75 2.66   5 2.67
                            22 2.68  65 2.69  33 2.76  43 2.92
  40  0.016  0.382  0.041-  69 2.39  76 2.54  21 2.54  71 2.59  23 2.62  70 2.63  45 2.98  36 3.01

  41  0.870  0.217  0.132-  76 2.44  77 2.48  67 2.52  65 2.53  62 2.56  23 2.58  37 2.59  69 2.64
                            51 2.65  66 2.70  70 2.71  24 2.85
  42  0.956  0.541  0.224-  50 2.51  29 2.55  69 2.60  21 2.61  39 2.62  28 2.65  65 2.67  32 2.70
                            33 2.72  49 2.72  64 2.75  31 2.78
  43  0.299  0.115  0.319-  55 2.51  31 2.57   8 2.58  80 2.59  19 2.64  52 2.66  61 2.66  22 2.67
                            10 2.69  13 2.71   3 2.80  39 2.92
  44  0.542  0.627  0.320-  78 2.62  14 2.63  15 2.64  27 2.66  32 2.66  61 2.68  52 2.68  26 2.70
                            18 2.71  75 2.71  30 2.76  29 2.79
  45  0.293  0.115  0.045-  38 2.46  70 2.49  53 2.58  57 2.62  63 2.72  23 2.75  20 2.89  47 2.98
                            40 2.98
  46  0.552  0.623  0.048-  51 2.40  54 2.41  73 2.41  71 2.59  76 2.68  53 2.72  63 2.73  56 2.74
                            72 2.78
  47  0.306  0.380  0.047-  74 2.34  21 2.53  56 2.59  57 2.60  72 2.61  20 2.76  36 2.85  45 2.98

  48  0.624  0.945  0.136-  49 2.37  34 2.46  80 2.47  54 2.50  63 2.53  20 2.56  59 2.58  38 2.60
                            50 2.66  57 2.78  66 2.84
  49  0.708  0.790  0.221-  48 2.37  50 2.44  54 2.49   1 2.59  61 2.63  32 2.63  29 2.65  80 2.65
                            28 2.67  78 2.69  42 2.72  59 2.86
  50  0.861  0.697  0.132-  34 2.38  71 2.38  49 2.44  54 2.50  42 2.51  28 2.56  69 2.57  36 2.62
                            48 2.66  21 2.74
  51  0.628  0.458  0.130-  46 2.40  76 2.44  37 2.50  56 2.52  26 2.55  32 2.58  67 2.62  41 2.65
                            69 2.67  74 2.70  73 2.75  54 2.83
  52  0.298  0.873  0.317-  55 2.44  79 2.49  78 2.54   8 2.65  61 2.65  43 2.66  14 2.68  44 2.68
                            30 2.71   6 2.72   2 2.75  22 2.82
  53  0.306  0.873  0.045-  73 2.41  38 2.44  24 2.57  45 2.58  63 2.66  46 2.72  72 2.80  35 2.84
                            23 2.94
  54  0.623  0.718  0.131-  46 2.41  71 2.47  63 2.47  49 2.49  48 2.50  50 2.50  32 2.54  78 2.59
                            38 2.61  73 2.61  69 2.80  51 2.83
  55  0.230  0.024  0.228-  52 2.44  78 2.51  43 2.51  79 2.53  80 2.54  38 2.54  22 2.56  24 2.60
                            31 2.62  70 2.71  77 2.87
  56  0.543  0.378  0.040-  37 2.50  74 2.50  51 2.52  47 2.59  72 2.67  76 2.68  62 2.74  46 2.74
                            20 2.76
  57  0.377  0.206  0.137-  68 2.47  20 2.55  80 2.56  31 2.58  47 2.60  45 2.62  38 2.74  74 2.74
                            48 2.78  70 2.79  21 2.80  37 2.89
  58  0.148  0.703  0.137-  72 2.43  64 2.46  79 2.51  35 2.55  36 2.56  28 2.56  73 2.68  74 2.68
                            24 2.70  21 2.90
  59  0.704  0.053  0.221-  66 2.49  37 2.55  48 2.58  19 2.58  60 2.60   1 2.62  68 2.68  67 2.72
                            77 2.77  80 2.82  49 2.86  28 2.87
  60  0.794  0.128  0.315-  67 2.51  77 2.55  59 2.60   9 2.68  18 2.71   2 2.72  17 2.74   4 2.75
                             1 2.76  75 2.79  22 2.80  19 2.86
  61  0.541  0.872  0.316-  78 2.48  80 2.50  49 2.63  52 2.65  43 2.66  44 2.68   8 2.69  27 2.70
                            19 2.74   1 2.75  11 2.75  29 2.77
  62  0.792  0.128  0.041-  66 2.52  41 2.56  37 2.58  20 2.66  76 2.68  23 2.69  56 2.74  35 2.89
                            34 2.92
  63  0.548  0.875  0.041-  54 2.47  48 2.53  38 2.56  34 2.62  53 2.66  71 2.68  45 2.72  46 2.73
                            20 2.75
  64  0.208  0.539  0.223-  58 2.46   3 2.55  30 2.61  74 2.62  21 2.66  33 2.69  68 2.70  28 2.72
                            42 2.75  26 2.78  79 2.91  31 2.93
  65  0.948  0.303  0.223-  69 2.51  22 2.53  41 2.53  67 2.57  75 2.58  70 2.61  31 2.62  77 2.64
                            42 2.67  39 2.69  32 2.70
  66  0.870  0.971  0.133-  59 2.49  62 2.52  34 2.53  77 2.54  28 2.59  35 2.62  41 2.70  37 2.75
                            24 2.80  48 2.84
  67  0.718  0.294  0.226-  37 2.50  60 2.51  41 2.52  18 2.55  65 2.57  77 2.58  75 2.58  51 2.62
                            59 2.72  32 2.77  26 2.84
  68  0.457  0.296  0.222-  57 2.47  74 2.49  37 2.55  19 2.56  18 2.61   3 2.66  59 2.68  64 2.70
                            26 2.78  80 2.93  31 2.93
  69  0.872  0.457  0.130-  40 2.39  76 2.47  71 2.48  65 2.51  32 2.56  50 2.57  42 2.60  41 2.64
                            51 2.67  21 2.68  70 2.77  54 2.80
  70  0.124  0.203  0.132-  45 2.49  31 2.49  23 2.57  65 2.61  40 2.63  24 2.65  55 2.71  41 2.71
                            21 2.73  69 2.77  38 2.78  57 2.79
  71  0.787  0.625  0.044-  50 2.38  54 2.47  69 2.48  46 2.59  40 2.59  34 2.63  63 2.68  76 2.75
                            36 2.92
  72  0.299  0.621  0.048-  58 2.43  74 2.44  73 2.50  47 2.61  56 2.67  35 2.68  36 2.68  46 2.78
                            53 2.80
  73  0.386  0.716  0.131-  53 2.41  46 2.41  72 2.50  26 2.51  78 2.55  38 2.59  79 2.59  54 2.61
                            58 2.68  24 2.72  51 2.75  74 2.90
  74  0.385  0.452  0.131-  47 2.34  72 2.44  68 2.49  56 2.50  26 2.53  37 2.56  64 2.62  58 2.68
                            51 2.70  57 2.74  73 2.90  21 2.90
  75  0.793  0.383  0.319-  65 2.58  67 2.58   9 2.63  39 2.66  29 2.66  15 2.66   7 2.68  32 2.68
                            44 2.71  18 2.73  22 2.76  60 2.79
  76  0.789  0.373  0.044-  51 2.44  41 2.44  69 2.47  40 2.54  23 2.65  46 2.68  56 2.68  62 2.68
                            71 2.75
  77  0.954  0.059  0.221-  41 2.48  66 2.54  60 2.55  22 2.56  24 2.56  67 2.58   2 2.60  65 2.64
                            59 2.77  55 2.87  79 2.91  28 3.01
  78  0.461  0.796  0.226-  61 2.48  55 2.51  80 2.52  38 2.53  52 2.54  73 2.55  54 2.59  79 2.60
                            44 2.62  32 2.67  49 2.69  26 2.73
  79  0.222  0.797  0.225-  52 2.49  58 2.51  24 2.51  55 2.53  30 2.55   2 2.55  73 2.59  78 2.60
                            26 2.65  77 2.91  64 2.91  28 3.01
  80  0.461  0.026  0.224-  38 2.47  48 2.47  61 2.50  78 2.52  55 2.54  19 2.54  57 2.56  43 2.59
                            49 2.65  31 2.81  59 2.82  68 2.93
  81  0.793  0.383  0.459-   7 1.72  15 1.83   9 1.89
 
  LATTYP: Found a hexagonal cell.
 ALAT       =    10.9600000381
 C/A-ratio  =     2.0072992631
  
  Lattice vectors:
  
 A1 = (   5.4800000190,  -9.4916384585,   0.0000000000)
 A2 = ( -10.9600000381,   0.0000000000,   0.0000000000)
 A3 = (   0.0000000000,   0.0000000000, -22.0000000000)


Analysis of symmetry for initial positions (statically):
=====================================================================
 Subroutine PRICEL returns:
 Original cell was already a primitive cell.
 

 Routine SETGRP: Setting up the symmetry group for a 
 hexagonal supercell.


 Subroutine GETGRP returns: Found  1 space group operations
 (whereof  1 operations were pure point group operations)
 out of a pool of 24 trial point group operations.


The static configuration has the point symmetry C_1 .


Analysis of symmetry for dynamics (positions and initial velocities):
=====================================================================
 Subroutine PRICEL returns:
 Original cell was already a primitive cell.
 

 Routine SETGRP: Setting up the symmetry group for a 
 hexagonal supercell.


 Subroutine GETGRP returns: Found  1 space group operations
 (whereof  1 operations were pure point group operations)
 out of a pool of 24 trial point group operations.


The dynamic configuration has the point symmetry C_1 .


Analysis of constrained symmetry for selective dynamics:
=====================================================================
 Subroutine PRICEL returns:
 Original cell was already a primitive cell.
 

 Routine SETGRP: Setting up the symmetry group for a 
 hexagonal supercell.


 Subroutine GETGRP returns: Found  1 space group operations
 (whereof  1 operations were pure point group operations)
 out of a pool of 24 trial point group operations.


The constrained configuration has the point symmetry C_1 .


Analysis of structural, dynamic, and magnetic symmetry:
=====================================================================
 Subroutine PRICEL returns:
 Original cell was already a primitive cell.
 

 Routine SETGRP: Setting up the symmetry group for a 
 hexagonal supercell.


 Subroutine GETGRP returns: Found  1 space group operations
 (whereof  1 operations were pure point group operations)
 out of a pool of 24 trial point group operations.


The magnetic configuration has the point symmetry C_1 .


 Subroutine INISYM returns: Found  1 space group operations
 (whereof  1 operations are pure point group operations),
 and found     1 'primitive' translations

 
 
 KPOINTS: mesh auto                               

Automatic generation of k-mesh.
Space group operators:
 irot       det(A)        alpha          n_x          n_y          n_z        tau_x        tau_y        tau_z
    1     1.000000     0.000000     1.000000     0.000000     0.000000     0.000000     0.000000     0.000000
 
 Subroutine IBZKPT returns following result:
 ===========================================
 
 Found      4 irreducible k-points:
 
 Following reciprocal coordinates:
            Coordinates               Weight
  0.000000  0.000000  0.000000      1.000000
  0.500000 -0.000000  0.000000      1.000000
  0.000000  0.500000  0.000000      1.000000
  0.500000  0.500000  0.000000      1.000000
 
 Following cartesian coordinates:
            Coordinates               Weight
  0.000000  0.000000  0.000000      1.000000
  0.045620 -0.026339  0.000000      1.000000
  0.000000  0.052678  0.000000      1.000000
  0.045620  0.026339  0.000000      1.000000
 


--------------------------------------------------------------------------------------------------------




 Dimension of arrays:
   k-points           NKPTS =      4   k-points in BZ     NKDIM =      4   number of bands    NBANDS=    588
   number of dos      NEDOS =    301   number of ions     NIONS =     81
   non local maximal  LDIM  =      6   non local SUM 2l+1 LMDIM =     18
   total plane-waves  NPLWV = ******
   max r-space proj   IRMAX =   7247   max aug-charges    IRDMAX=  31567
   dimension x,y,z NGX =    84 NGY =   84 NGZ =  168
   dimension x,y,z NGXF=   168 NGYF=  168 NGZF=  336
   support grid    NGXF=   168 NGYF=  168 NGZF=  336
   ions per type =              32  13  10  13  12   1
   NGX,Y,Z   is equivalent  to a cutoff of  12.74, 12.74, 12.70 a.u.
   NGXF,Y,Z  is equivalent  to a cutoff of  25.48, 25.48, 25.39 a.u.

 SYSTEM =  Pt111                                   
 POSCAR =  10.96                                   

 Startparameter for this run:
   NWRITE =      2    write-flag & timer
   PREC   = accura    normal or accurate (medium, high low for compatibility)
   ISTART =      0    job   : 0-new  1-cont  2-samecut
   ICHARG =      2    charge: 1-file 2-atom 10-const
   ISPIN  =      2    spin polarized calculation?
   LNONCOLLINEAR =      F non collinear calculations
   LSORBIT =      F    spin-orbit coupling
   INIWAV =      1    electr: 0-lowe 1-rand  2-diag
   LASPH  =      F    aspherical Exc in radial PAW
   METAGGA=      F    non-selfconsistent MetaGGA calc.

 Electronic Relaxation 1
   ENCUT  =  550.0 eV  40.42 Ry    6.36 a.u.  20.96 20.96 42.07*2*pi/ulx,y,z
   ENINI  =  550.0     initial cutoff
   ENAUG  =  587.0 eV  augmentation charge cutoff
   NELM   =    200;   NELMIN=  2; NELMDL= -5     # of ELM steps 
   EDIFF  = 0.1E-04   stopping-criterion for ELM
   LREAL  =      T    real-space projection
   NLSPLINE    = F    spline interpolate recip. space projectors
   LCOMPAT=      F    compatible to vasp.4.4
   GGA_COMPAT  = T    GGA compatible to vasp.4.4-vasp.4.6
   LMAXPAW     = -100 max onsite density
   LMAXMIX     =    2 max onsite mixed and CHGCAR
   VOSKOWN=      0    Vosko Wilk Nusair interpolation
   ROPT   =   -0.00025  -0.00025  -0.00025  -0.00025
   ROPT   =   -0.00025  -0.00025
 Ionic relaxation
   EDIFFG = -.5E-01   stopping-criterion for IOM
   NSW    =    300    number of steps for IOM
   NBLOCK =      1;   KBLOCK =    300    inner block; outer block 
   IBRION =      2    ionic relax: 0-MD 1-quasi-New 2-CG
   NFREE  =      1    steps in history (QN), initial steepest desc. (CG)
   ISIF   =      2    stress and relaxation
   IWAVPR =     11    prediction:  0-non 1-charg 2-wave 3-comb
   ISYM   =      2    0-nonsym 1-usesym 2-fastsym
   LCORR  =      T    Harris-Foulkes like correction to forces

   POTIM  = 0.5000    time-step for ionic-motion
   TEIN   =    0.0    initial temperature
   TEBEG  =    0.0;   TEEND  =   0.0 temperature during run
   SMASS  =  -3.00    Nose mass-parameter (am)
   estimated Nose-frequenzy (Omega)   =  0.10E-29 period in steps =****** mass=  -0.275E-26a.u.
   SCALEE = 1.0000    scale energy and forces
   NPACO  =    256;   APACO  = 16.0  distance and # of slots for P.C.
   PSTRESS=    0.0 pullay stress

  Mass of Ions in am
   POMASS = 195.08 55.85 58.93 63.55 58.69  1.00
  Ionic Valenz
   ZVAL   =  10.00  8.00  9.00 11.00 10.00  1.00
  Atomic Wigner-Seitz radii
   RWIGS  =  -1.00 -1.00 -1.00 -1.00 -1.00 -1.00
  virtual crystal weights 
   VCA    =   1.00  1.00  1.00  1.00  1.00  1.00
   NELECT =     778.0000    total number of electrons
   NUPDOWN=      -1.0000    fix difference up-down

 DOS related values:
   EMIN   =  10.00;   EMAX   =-10.00  energy-range for DOS
   EFERMI =   0.00
   ISMEAR =     1;   SIGMA  =   0.10  broadening in eV -4-tet -1-fermi 0-gaus

 Electronic relaxation 2 (details)
   IALGO  =     68    algorithm
   LDIAG  =      T    sub-space diagonalisation (order eigenvalues)
   LSUBROT=      F    optimize rotation matrix (better conditioning)
   TURBO    =      0    0=normal 1=particle mesh
   IRESTART =      0    0=no restart 2=restart with 2 vectors
   NREBOOT  =      0    no. of reboots
   NMIN     =      0    reboot dimension
   EREF     =   0.00    reference energy to select bands
   IMIX   =      4    mixing-type and parameters
     AMIX     =   0.40;   BMIX     =  1.00
     AMIX_MAG =   1.60;   BMIX_MAG =  1.00
     AMIN     =   0.10
     WC   =   100.;   INIMIX=   1;  MIXPRE=   1;  MAXMIX= -45

 Intra band minimization:
   WEIMIN = 0.0010     energy-eigenvalue tresh-hold
   EBREAK =  0.43E-08  absolut break condition
   DEPER  =   0.30     relativ break condition  

   TIME   =   0.40     timestep for ELM

  volume/ion in A,a.u.               =      28.25       190.67
  Fermi-wavevector in a.u.,A,eV,Ry     =   1.142554  2.159113 17.761434  1.305429
  Thomas-Fermi vector in A             =   2.279251
 
 Write flags
   LWAVE        =      F    write WAVECAR
   LDOWNSAMPLE  =      F    k-point downsampling of WAVECAR
   LCHARG       =      F    write CHGCAR
   LVTOT        =      F    write LOCPOT, total local potential
   LVHAR        =      F    write LOCPOT, Hartree potential only
   LELF         =      F    write electronic localiz. function (ELF)
   LORBIT       =      0    0 simple, 1 ext, 2 COOP (PROOUT), +10 PAW based schemes


 Dipole corrections
   LMONO  =      F    monopole corrections only (constant potential shift)
   LDIPOL =      F    correct potential (dipole corrections)
   IDIPOL =      0    1-x, 2-y, 3-z, 4-all directions 
   EPSILON=  1.0000000 bulk dielectric constant

 Exchange correlation treatment:
   GGA     =    --    GGA type
   LEXCH   =     8    internal setting for exchange type
   VOSKOWN=      0    Vosko Wilk Nusair interpolation
   LHFCALC =     F    Hartree Fock is set to
   LHFONE  =     F    Hartree Fock one center treatment
   AEXX    =    0.0000 exact exchange contribution

 Linear response parameters
   LEPSILON=     F    determine dielectric tensor
   LRPA    =     F    only Hartree local field effects (RPA)
   LNABLA  =     F    use nabla operator in PAW spheres
   LVEL    =     F    velocity operator in full k-point grid
   LINTERFAST=   F  fast interpolation
   KINTER  =     0    interpolate to denser k-point grid
   CSHIFT  =0.1000    complex shift for real part using Kramers Kronig
   OMEGAMAX=  -1.0    maximum frequency
   DEG_THRESHOLD= 0.2000000E-02 threshold for treating states as degnerate
   RTIME   =   -0.100 relaxation time in fs
  (WPLASMAI=    0.000 imaginary part of plasma frequency in eV, 0.658/RTIME)
   DFIELD  = 0.0000000 0.0000000 0.0000000 field for delta impulse in time
 
 Orbital magnetization related:
   ORBITALMAG=     F  switch on orbital magnetization
   LCHIMAG   =     F  perturbation theory with respect to B field
   DQ        =  0.001000  dq finite difference perturbation B field
   LLRAUG    =     F  two centre corrections for induced B field



--------------------------------------------------------------------------------------------------------


 conjugate gradient relaxation of ions
   using selective dynamics as specified on POSCAR
 charge density and potential will be updated during run
 spin polarized calculation
 RMM-DIIS sequential band-by-band and
  variant of blocked Davidson during initial phase
 perform sub-space diagonalisation
    before iterative eigenvector-optimisation
 modified Broyden-mixing scheme, WC =      100.0
 initial mixing is a Kerker type mixing with AMIX =  0.4000 and BMIX =      1.0000
 Hartree-type preconditioning will be used
 using additional bands          199
 real space projection scheme for non local part
 use partial core corrections
 calculate Harris-corrections to forces 
   (improved forces if not selfconsistent)
 use gradient corrections 
 use of overlap-Matrix (Vanderbilt PP)
 Methfessel and Paxton  Order N= 1 SIGMA  =   0.10


--------------------------------------------------------------------------------------------------------


  energy-cutoff  :      550.00
  volume of cell :     2288.62
      direct lattice vectors                 reciprocal lattice vectors
    10.960000038  0.000000000  0.000000000     0.091240876 -0.052677944  0.000000000
     5.480000019  9.491638459  0.000000000     0.000000000  0.105355888  0.000000000
     0.000000000  0.000000000 22.000000000     0.000000000  0.000000000  0.045454545

  length of vectors
    10.960000038 10.960000038 22.000000000     0.105355888  0.105355888  0.045454545


 
 k-points in units of 2pi/SCALE and weight: mesh auto                               
   0.00000000  0.00000000  0.00000000       0.250
   0.04562044 -0.02633897  0.00000000       0.250
   0.00000000  0.05267794  0.00000000       0.250
   0.04562044  0.02633897  0.00000000       0.250
 
 k-points in reciprocal lattice and weights: mesh auto                               
   0.00000000  0.00000000  0.00000000       0.250
   0.50000000 -0.00000000  0.00000000       0.250
   0.00000000  0.50000000  0.00000000       0.250
   0.50000000  0.50000000  0.00000000       0.250
 
 position of ions in fractional coordinates (direct lattice) 
   0.78716449  0.87970585  0.31344225
   0.04319662  0.88111032  0.31121756
   0.27937409  0.37942210  0.31615760
   0.87038591  0.96519178  0.41779086
   0.11841422  0.46450531  0.41972217
   0.12704862  0.96312024  0.41612172
   0.87619266  0.45738127  0.42012405
   0.37433097  0.95980067  0.41476627
   0.87178949  0.21381248  0.41377741
   0.12696038  0.21253126  0.41607024
   0.62492667  0.95899808  0.41686898
   0.87286637  0.71014246  0.41962858
   0.37573352  0.20751009  0.41776323
   0.37876822  0.71085574  0.41662699
   0.62732869  0.46249768  0.41671967
   0.12713310  0.70603496  0.42099364
   0.62490615  0.21035146  0.41556533
   0.54747838  0.37696852  0.31506562
   0.53437436  0.12489005  0.31235717
   0.55221254  0.12299804  0.04920078
   0.11794475  0.45537765  0.12792996
   0.04637075  0.13453050  0.31192522
   0.03315463  0.13494865  0.03774463
   0.13163928  0.95747593  0.13402787
   0.37418077  0.46029497  0.41863696
   0.45666635  0.54926488  0.21932677
   0.62180385  0.71202303  0.41764148
   0.95580826  0.78314309  0.21838922
   0.79763967  0.62339900  0.31729172
   0.28848525  0.63107281  0.31539353
   0.19867921  0.27716880  0.22548113
   0.70458275  0.55232899  0.22136195
   0.04069391  0.63336152  0.32125108
   0.79203979  0.86196241  0.05119480
   0.05269812  0.86242103  0.04447354
   0.04570358  0.64080367  0.04585962
   0.62802628  0.22947321  0.13379689
   0.38250601  0.95344831  0.13273420
   0.03504671  0.38399698  0.32130802
   0.01619296  0.38187648  0.04120256
   0.87042992  0.21689071  0.13178577
   0.95634044  0.54143896  0.22370788
   0.29860935  0.11526463  0.31880519
   0.54166155  0.62711165  0.31984649
   0.29293662  0.11522657  0.04538329
   0.55201031  0.62334596  0.04788006
   0.30575695  0.38026450  0.04684287
   0.62395646  0.94531321  0.13639314
   0.70835970  0.79024108  0.22101343
   0.86054327  0.69699979  0.13214075
   0.62808223  0.45768459  0.13007643
   0.29803820  0.87315112  0.31715338
   0.30626685  0.87310724  0.04455942
   0.62261259  0.71817459  0.13071675
   0.23046238  0.02423308  0.22760230
   0.54282134  0.37838567  0.04018734
   0.37726985  0.20560459  0.13740413
   0.14805913  0.70314840  0.13720855
   0.70359996  0.05311632  0.22072131
   0.79392109  0.12835127  0.31461420
   0.54073425  0.87175520  0.31606711
   0.79165663  0.12783172  0.04067172
   0.54773916  0.87450772  0.04071654
   0.20818644  0.53936397  0.22290589
   0.94795453  0.30258048  0.22287095
   0.86952847  0.97069320  0.13305323
   0.71787264  0.29369263  0.22560096
   0.45652573  0.29586544  0.22240538
   0.87248998  0.45670095  0.13030569
   0.12436401  0.20322203  0.13195506
   0.78737920  0.62472875  0.04403860
   0.29932384  0.62113320  0.04802460
   0.38565111  0.71595064  0.13079951
   0.38471564  0.45153870  0.13110399
   0.79298767  0.38323269  0.31895592
   0.78933583  0.37328592  0.04383272
   0.95366904  0.05900888  0.22133645
   0.46069234  0.79603599  0.22564734
   0.22235697  0.79746984  0.22493899
   0.46083026  0.02618123  0.22414879
   0.79299982  0.38326464  0.45881112
 
 position of ions in cartesian coordinates  (Angst):
  13.44811096  8.34984988  6.89572954
   5.30191957  8.36318061  6.84678641
   5.14117321  3.60133740  6.95546711
  14.82868056  9.16125145  9.19139899
   3.84330900  4.40891644  9.23388780
   6.67035186  9.14158915  9.15467785
  12.10952093  4.34129761  9.24272919
   9.36237514  9.11008095  9.12485788
  10.72650525  2.02943079  9.10310296
   2.55615710  2.01726988  9.15354523
  12.10450585  9.10246305  9.17111752
  13.45819613  6.74041551  9.23182884
   5.25519469  1.96961077  9.19079099
   8.04678914  6.74718569  9.16579376
   9.41000971  4.38986078  9.16783266
   5.26245034  6.70142861  9.26186011
   8.00169741  1.99658005  9.14243719
   8.06615053  3.57804893  6.93144356
   6.54114050  1.18541117  6.87185763
   6.72627875  1.16745296  1.08241724
   3.78814394  4.32227997  2.81445913
   1.24545052  1.27691486  6.86235494
   1.10289336  1.28088383  0.83038189
   6.68973465  9.08801532  2.94861321
   6.62343770  4.36895340  9.21001319
   8.01503470  5.21342362  4.82518885
  10.71685646  6.75826521  9.18811253
  14.76728267  7.43331103  4.80456282
  12.15835732  5.91707794  6.98041784
   6.62007737  5.98991496  6.93865760
   3.69640915  2.63078603  4.96058484
  10.74898984  5.24250712  4.86996286
   3.91682634  6.01163853  7.06752370
  13.40431018  8.18143554  1.12628553
   5.30363869  8.18578859  0.97841786
   4.01251535  6.08227672  1.00891159
   8.14068118  2.17807670  2.94353159
   9.41716268  9.04978665  2.92015232
   2.48841543  3.64476049  7.06877639
   2.27015798  3.62463351  0.90645624
  10.72847306  2.05864821  2.89928695
  13.44857675  5.13914286  4.92157340
   3.90440865  1.09405020  7.01371425
   9.37318249  5.95231704  7.03662277
   3.84202698  1.09368897  0.99843245
   9.46596888  5.91657450  1.05336135
   5.43494565  3.60933318  1.03054316
  12.01887918  8.97257121  3.00064916
  12.09414346  7.50068258  4.86229550
  13.25111312  6.61567006  2.90709642
   9.39189277  4.34417664  2.86168140
   8.05136686  8.28763475  6.97737438
   8.14131234  8.28721821  0.98030720
  10.75943073  6.81665356  2.87576846
   2.65866499  0.23001167  5.00725050
   8.02287536  3.59149993  0.88412147
   5.26159074  1.95152445  3.02289083
   5.47598127  6.67403038  3.01858800
   8.00253296  0.50416089  4.85586878
   9.40474020  1.21826387  6.92151242
  10.70366591  8.27438522  6.95347636
   9.37707450  1.21333249  0.89477773
  10.79552355  8.30051111  0.89576394
   5.23743796  5.11944775  4.90392949
  12.04772275  2.87198450  4.90316101
  14.84943082  9.21346889  2.92717099
   9.47731985  2.78762430  4.96322106
   6.62486460  2.80824781  4.89291845
  12.06521145  4.33484034  2.86672527
   2.47668628  1.92891008  2.90301128
  12.05318968  5.92969947  0.96884915
   6.68439923  5.89557174  1.05654112
   8.15014567  6.79554461  2.87758921
   6.69091550  4.28584207  2.88428777
  10.79126002  3.63750618  7.01703021
  10.69672757  3.54309501  0.96431976
  10.77558135  0.56009099  4.86940190
   9.41146532  7.55568579  4.96424156
   6.80716718  7.56929543  4.94865781
   5.19417280  0.24850280  4.93127340
  10.79156829  3.63780940 10.09384469
 


--------------------------------------------------------------------------------------------------------


 k-point  1 :   0.0000 0.0000 0.0000  plane waves:   66973
 k-point  2 :   0.5000-0.0000 0.0000  plane waves:   67000
 k-point  3 :   0.0000 0.5000 0.0000  plane waves:   67000
 k-point  4 :   0.5000 0.5000 0.0000  plane waves:   67000

 maximum and minimum number of plane-waves per node :     16772    16723

 maximum number of plane-waves:     67000
 maximum index in each direction: 
   IXMAX=   20   IYMAX=   20   IZMAX=   42
   IXMIN=  -21   IYMIN=  -21   IZMIN=  -42


 real space projection operators:
  total allocation   :      72240.02 KBytes
  max/ min on nodes  :      18064.13      18052.19


 parallel 3D FFT for wavefunctions:
    minimum data exchange during FFTs selected (reduces bandwidth)
 parallel 3D FFT for charge:
    minimum data exchange during FFTs selected (reduces bandwidth)


 total amount of memory used by VASP MPI-rank0   235710. kBytes
=======================================================================

   base      :      30000. kBytes
   nonlr-proj:      32179. kBytes
   fftplans  :      16144. kBytes
   grid      :      49182. kBytes
   one-center:        653. kBytes
   wavefun   :     107552. kBytes
 
     INWAV:  cpu time    0.0000: real time    0.0000
 Broyden mixing: mesh for mixing (old mesh)
   NGX = 41   NGY = 41   NGZ = 85
  (NGX  =168   NGY  =168   NGZ  =336)
  gives a total of 142885 points

 initial charge density was supplied:
 charge density of overlapping atoms calculated
 number of electron     778.0000000 magnetization     231.0000000
 keeping initial charge density in first step


--------------------------------------------------------------------------------------------------------


 Maximum index for non-local projection operator         1758
 Maximum index for augmentation-charges         1359 (set IRDMAX)


--------------------------------------------------------------------------------------------------------


 First call to EWALD:  gamma=   0.134
 Maximum number of real-space cells 4x 4x 2
 Maximum number of reciprocal cells 2x 2x 4

    FEWALD:  cpu time    0.0070: real time    0.0070


--------------------------------------- Iteration      1(   1)  ---------------------------------------


    POTLOK:  cpu time    0.4078: real time    0.4205
    SETDIJ:  cpu time    0.0353: real time    0.0354
     EDDAV:  cpu time   62.7831: real time   63.0669
       DOS:  cpu time    0.0037: real time    0.1073
    --------------------------------------------
      LOOP:  cpu time   63.2300: real time   63.6302

 eigenvalue-minimisations  :  9408
 total energy-change (2. order) : 0.7656497E+04  (-0.3284577E+05)
 number of electron     778.0000000 magnetization     231.0000000
 augmentation part      778.0000000 magnetization     231.0000000

 Free energy of the ion-electron system (eV)
  ---------------------------------------------------
  alpha Z        PSCENC =      2078.51929011
  Ewald energy   TEWEN  =    220279.31002373
  -Hartree energ DENC   =   -292075.96257573
  -exchange      EXHF   =         0.00000000
  -V(xc)+E(xc)   XCENC  =      1376.19220032
  PAW double counting   =     64136.80006862   -66038.70876209
  entropy T*S    EENTRO =        -0.00441852
  eigenvalues    EBANDS =      7681.69612679
  atomic energy  EATOM  =     70218.65458108
  Solvation  Ediel_sol  =         0.00000000
  ---------------------------------------------------
  free energy    TOTEN  =      7656.49653431 eV

  energy without entropy =     7656.50095283  energy(sigma->0) =     7656.49800715


--------------------------------------------------------------------------------------------------------




--------------------------------------- Iteration      1(   2)  ---------------------------------------


     EDDAV:  cpu time   62.7623: real time   62.9986
       DOS:  cpu time    0.0027: real time    0.0029
    --------------------------------------------
      LOOP:  cpu time   62.7650: real time   63.0014

 eigenvalue-minimisations  :  9408
 total energy-change (2. order) :-0.6883677E+04  (-0.6172532E+04)
 number of electron     778.0000000 magnetization     231.0000000
 augmentation part      778.0000000 magnetization     231.0000000

 Free energy of the ion-electron system (eV)
  ---------------------------------------------------
  alpha Z        PSCENC =      2078.51929011
  Ewald energy   TEWEN  =    220279.31002373
  -Hartree energ DENC   =   -292075.96257573
  -exchange      EXHF   =         0.00000000
  -V(xc)+E(xc)   XCENC  =      1376.19220032
  PAW double counting   =     64136.80006862   -66038.70876209
  entropy T*S    EENTRO =         0.00282854
  eigenvalues    EBANDS =       798.01170698
  atomic energy  EATOM  =     70218.65458108
  Solvation  Ediel_sol  =         0.00000000
  ---------------------------------------------------
  free energy    TOTEN  =       772.81936155 eV

  energy without entropy =      772.81653301  energy(sigma->0) =      772.81841871


--------------------------------------------------------------------------------------------------------




--------------------------------------- Iteration      1(   3)  ---------------------------------------


     EDDAV:  cpu time   62.6442: real time   62.8376
       DOS:  cpu time    0.0029: real time    0.0031
    --------------------------------------------
      LOOP:  cpu time   62.6471: real time   62.8407

 eigenvalue-minimisations  :  9408
 total energy-change (2. order) :-0.1150841E+04  (-0.9325474E+03)
 number of electron     778.0000000 magnetization     231.0000000
 augmentation part      778.0000000 magnetization     231.0000000

 Free energy of the ion-electron system (eV)
  ---------------------------------------------------
  alpha Z        PSCENC =      2078.51929011
  Ewald energy   TEWEN  =    220279.31002373
  -Hartree energ DENC   =   -292075.96257573
  -exchange      EXHF   =         0.00000000
  -V(xc)+E(xc)   XCENC  =      1376.19220032
  PAW double counting   =     64136.80006862   -66038.70876209
  entropy T*S    EENTRO =         0.01091188
  eigenvalues    EBANDS =      -352.83737776
  atomic energy  EATOM  =     70218.65458108
  Solvation  Ediel_sol  =         0.00000000
  ---------------------------------------------------
  free energy    TOTEN  =      -378.02163984 eV

  energy without entropy =     -378.03255172  energy(sigma->0) =     -378.02527713


--------------------------------------------------------------------------------------------------------




--------------------------------------- Iteration      1(   4)  ---------------------------------------


     EDDAV:  cpu time   75.2992: real time   75.5676
       DOS:  cpu time    0.0049: real time    0.0353
    --------------------------------------------
      LOOP:  cpu time   75.3041: real time   75.6028

 eigenvalue-minimisations  : 11916
 total energy-change (2. order) :-0.1137789E+03  (-0.1036529E+03)
 number of electron     778.0000000 magnetization     231.0000000
 augmentation part      778.0000000 magnetization     231.0000000

 Free energy of the ion-electron system (eV)
  ---------------------------------------------------
  alpha Z        PSCENC =      2078.51929011
  Ewald energy   TEWEN  =    220279.31002373
  -Hartree energ DENC   =   -292075.96257573
  -exchange      EXHF   =         0.00000000
  -V(xc)+E(xc)   XCENC  =      1376.19220032
  PAW double counting   =     64136.80006862   -66038.70876209
  entropy T*S    EENTRO =         0.00298527
  eigenvalues    EBANDS =      -466.60835242
  atomic energy  EATOM  =     70218.65458108
  Solvation  Ediel_sol  =         0.00000000
  ---------------------------------------------------
  free energy    TOTEN  =      -491.80054112 eV

  energy without entropy =     -491.80352638  energy(sigma->0) =     -491.80153620


--------------------------------------------------------------------------------------------------------




--------------------------------------- Iteration      1(   5)  ---------------------------------------


     EDDAV:  cpu time   71.4784: real time   71.7237
       DOS:  cpu time    0.0034: real time    0.0621
    CHARGE:  cpu time    3.9204: real time    3.9337
    MIXING:  cpu time    0.0122: real time    0.0124
    --------------------------------------------
      LOOP:  cpu time   75.4143: real time   75.7318

 eigenvalue-minimisations  : 11160
 total energy-change (2. order) :-0.4374172E+01  (-0.4335941E+01)
 number of electron     778.0000018 magnetization     216.7941648
 augmentation part      335.2078667 magnetization     183.3788928

 Broyden mixing:
  rms(total) = 0.11341E+02    rms(broyden)= 0.11341E+02
  rms(prec ) = 0.11723E+02
  weight for this iteration     100.00

 Free energy of the ion-electron system (eV)
  ---------------------------------------------------
  alpha Z        PSCENC =      2078.51929011
  Ewald energy   TEWEN  =    220279.31002373
  -Hartree energ DENC   =   -292075.96257573
  -exchange      EXHF   =         0.00000000
  -V(xc)+E(xc)   XCENC  =      1376.19220032
  PAW double counting   =     64136.80006862   -66038.70876209
  entropy T*S    EENTRO =         0.00451835
  eigenvalues    EBANDS =      -470.98405734
  atomic energy  EATOM  =     70218.65458108
  Solvation  Ediel_sol  =         0.00000000
  ---------------------------------------------------
  free energy    TOTEN  =      -496.17471295 eV

  energy without entropy =     -496.17923130  energy(sigma->0) =     -496.17621907


--------------------------------------------------------------------------------------------------------




--------------------------------------- Iteration      1(   6)  ---------------------------------------


    POTLOK:  cpu time    0.3817: real time    0.4183
    SETDIJ:  cpu time    0.0332: real time    0.0334
    EDDIAG:  cpu time   11.3502: real time   11.3863
  RMM-DIIS:  cpu time   38.1198: real time   38.2454
    ORTHCH:  cpu time    1.3089: real time    1.3569
       DOS:  cpu time    0.0024: real time    0.0024
    CHARGE:  cpu time    3.8026: real time    3.8168
    MIXING:  cpu time    0.0111: real time    0.0117
    --------------------------------------------
      LOOP:  cpu time   55.0099: real time   55.2712

 eigenvalue-minimisations  :  9649
 total energy-change (2. order) :-0.2611100E+03  (-0.1014670E+03)
 number of electron     778.0000021 magnetization     213.2222009
 augmentation part      407.5261751 magnetization     178.7313741

 Broyden mixing:
  rms(total) = 0.21406E+02    rms(broyden)= 0.21406E+02
  rms(prec ) = 0.28324E+02
  weight for this iteration     100.00

 eigenvalues of (default mixing * dielectric matrix)
  average eigenvalue GAMMA=   0.1920
  0.1920

 Free energy of the ion-electron system (eV)
  ---------------------------------------------------
  alpha Z        PSCENC =      2078.51929011
  Ewald energy   TEWEN  =    220279.31002373
  -Hartree energ DENC   =   -290468.07008697
  -exchange      EXHF   =         0.00000000
  -V(xc)+E(xc)   XCENC  =      1331.35066093
  PAW double counting   =     68497.12651651   -70174.53250360
  entropy T*S    EENTRO =         0.00753987
  eigenvalues    EBANDS =     -2519.65070826
  atomic energy  EATOM  =     70218.65458108
  Solvation  Ediel_sol  =         0.00000000
  ---------------------------------------------------
  free energy    TOTEN  =      -757.28468660 eV

  energy without entropy =     -757.29222647  energy(sigma->0) =     -757.28719989


--------------------------------------------------------------------------------------------------------




--------------------------------------- Iteration      1(   7)  ---------------------------------------


    POTLOK:  cpu time    0.3886: real time    0.3907
    SETDIJ:  cpu time    0.0333: real time    0.0334
    EDDIAG:  cpu time   11.2787: real time   11.3553
  RMM-DIIS:  cpu time   37.1939: real time   37.3576
    ORTHCH:  cpu time    1.3298: real time    1.3335
       DOS:  cpu time    0.0026: real time    0.0026
    CHARGE:  cpu time    3.7640: real time    3.7772
    MIXING:  cpu time    0.0116: real time    0.0117
    --------------------------------------------
      LOOP:  cpu time   54.0026: real time   54.2620

 eigenvalue-minimisations  :  9422
 total energy-change (2. order) : 0.2596346E+03  (-0.1582974E+02)
 number of electron     778.0000025 magnetization     208.5278880
 augmentation part      374.1739925 magnetization     165.2101630

 Broyden mixing:
  rms(total) = 0.14264E+02    rms(broyden)= 0.14264E+02
  rms(prec ) = 0.18320E+02
  weight for this iteration     100.00

 eigenvalues of (default mixing * dielectric matrix)
  average eigenvalue GAMMA=   0.2545
  0.3354  0.1736

 Free energy of the ion-electron system (eV)
  ---------------------------------------------------
  alpha Z        PSCENC =      2078.51929011
  Ewald energy   TEWEN  =    220279.31002373
  -Hartree energ DENC   =   -291112.35688423
  -exchange      EXHF   =         0.00000000
  -V(xc)+E(xc)   XCENC  =      1349.24184945
  PAW double counting   =     69412.54526148   -71238.59079907
  entropy T*S    EENTRO =         0.00414278
  eigenvalues    EBANDS =     -1484.97759481
  atomic energy  EATOM  =     70218.65458108
  Solvation  Ediel_sol  =         0.00000000
  ---------------------------------------------------
  free energy    TOTEN  =      -497.65012948 eV

  energy without entropy =     -497.65427227  energy(sigma->0) =     -497.65151041


--------------------------------------------------------------------------------------------------------




--------------------------------------- Iteration      1(   8)  ---------------------------------------


    POTLOK:  cpu time    0.3878: real time    0.4440
    SETDIJ:  cpu time    0.0335: real time    0.0336
    EDDIAG:  cpu time   11.3104: real time   11.3633
  RMM-DIIS:  cpu time   37.2989: real time   37.4607
    ORTHCH:  cpu time    1.3406: real time    1.3442
       DOS:  cpu time    0.0027: real time    0.0027
    CHARGE:  cpu time    3.7043: real time    3.7143
    MIXING:  cpu time    0.0130: real time    0.0134
    --------------------------------------------
      LOOP:  cpu time   54.0911: real time   54.3762

 eigenvalue-minimisations  :  9440
 total energy-change (2. order) : 0.2655657E+02  (-0.1395984E+02)
 number of electron     778.0000014 magnetization     201.2649951
 augmentation part      375.0721881 magnetization     163.6800734

 Broyden mixing:
  rms(total) = 0.15832E+02    rms(broyden)= 0.15831E+02
  rms(prec ) = 0.18445E+02
  weight for this iteration     100.00

 eigenvalues of (default mixing * dielectric matrix)
  average eigenvalue GAMMA=   0.3118
  0.5829  0.2672  0.0853

 Free energy of the ion-electron system (eV)
  ---------------------------------------------------
  alpha Z        PSCENC =      2078.51929011
  Ewald energy   TEWEN  =    220279.31002373
  -Hartree energ DENC   =   -291323.81895593
  -exchange      EXHF   =         0.00000000
  -V(xc)+E(xc)   XCENC  =      1356.58394150
  PAW double counting   =     70555.97169934   -72460.23747067
  entropy T*S    EENTRO =        -0.00201728
  eigenvalues    EBANDS =     -1176.07464638
  atomic energy  EATOM  =     70218.65458108
  Solvation  Ediel_sol  =         0.00000000
  ---------------------------------------------------
  free energy    TOTEN  =      -471.09355451 eV

  energy without entropy =     -471.09153724  energy(sigma->0) =     -471.09288209


--------------------------------------------------------------------------------------------------------




--------------------------------------- Iteration      1(   9)  ---------------------------------------


    POTLOK:  cpu time    0.3882: real time    0.3907
    SETDIJ:  cpu time    0.0334: real time    0.0335
    EDDIAG:  cpu time   11.3504: real time   11.3845
  RMM-DIIS:  cpu time   37.3555: real time   37.5220
    ORTHCH:  cpu time    1.3304: real time    1.3340
       DOS:  cpu time    0.0026: real time    0.0026
    CHARGE:  cpu time    3.7602: real time    3.7733
    MIXING:  cpu time    0.0121: real time    0.0121
    --------------------------------------------
      LOOP:  cpu time   54.2328: real time   54.4528

 eigenvalue-minimisations  :  9450
 total energy-change (2. order) : 0.6147767E+02  (-0.1615572E+02)
 number of electron     778.0000026 magnetization     193.5695290
 augmentation part      378.3497871 magnetization     146.7824884

 Broyden mixing:
  rms(total) = 0.13124E+02    rms(broyden)= 0.13124E+02
  rms(prec ) = 0.14837E+02
  weight for this iteration     100.00

 eigenvalues of (default mixing * dielectric matrix)
  average eigenvalue GAMMA=   0.3506
  0.8227  0.3561  0.1118  0.1118

 Free energy of the ion-electron system (eV)
  ---------------------------------------------------
  alpha Z        PSCENC =      2078.51929011
  Ewald energy   TEWEN  =    220279.31002373
  -Hartree energ DENC   =   -291118.18832560
  -exchange      EXHF   =         0.00000000
  -V(xc)+E(xc)   XCENC  =      1373.96694373
  PAW double counting   =     71893.79351347   -73854.39249459
  entropy T*S    EENTRO =         0.00702016
  eigenvalues    EBANDS =     -1281.28643273
  atomic energy  EATOM  =     70218.65458108
  Solvation  Ediel_sol  =         0.00000000
  ---------------------------------------------------
  free energy    TOTEN  =      -409.61588065 eV

  energy without entropy =     -409.62290081  energy(sigma->0) =     -409.61822070


--------------------------------------------------------------------------------------------------------




[...]
   -.409E+01 0.415E+02 -.279E+04   0.452E+01 -.410E+02 0.279E+04   -.337E+00 -.323E+00 0.134E+01   -.986E-01 -.737E-01 -.439E-01
   -.253E+02 0.870E+01 -.279E+04   0.246E+02 -.818E+01 0.279E+04   0.713E+00 -.628E+00 0.197E+01   -.124E-01 0.963E-01 -.704E-01
   0.122E+02 0.442E+01 -.278E+04   -.122E+02 -.468E+01 0.278E+04   -.829E-01 0.300E+00 0.163E+01   0.540E-01 -.829E-01 -.995E-01
   -.329E+02 -.897E+01 -.283E+04   0.336E+02 0.861E+01 0.283E+04   -.812E+00 0.201E+00 0.145E+01   0.444E-02 0.111E+00 -.414E-01
   0.135E+02 -.265E+02 -.283E+04   -.141E+02 0.267E+02 0.283E+04   0.577E+00 -.109E+00 0.232E+01   0.359E-01 -.102E+00 -.107E+00
   -.258E+02 0.317E+02 -.281E+04   0.254E+02 -.323E+02 0.281E+04   0.315E+00 0.568E+00 0.120E+01   -.380E-01 0.930E-01 -.274E-01
   -.485E+01 -.230E+01 -.278E+04   0.570E+01 0.240E+01 0.278E+04   -.842E+00 -.125E+00 0.237E+01   0.238E-01 0.616E-01 -.430E-01
   -.189E+02 -.102E+02 -.283E+04   0.192E+02 0.992E+01 0.283E+04   -.363E+00 0.350E+00 0.136E+01   0.109E-01 -.891E-01 -.503E-01
   -.249E+02 -.963E+01 -.280E+04   0.250E+02 0.935E+01 0.280E+04   -.794E-01 0.335E+00 0.169E+01   -.284E-01 -.358E-01 -.678E-01
   0.265E+01 -.315E+02 -.280E+04   -.298E+01 0.309E+02 0.280E+04   0.305E+00 0.572E+00 0.157E+01   0.312E-01 0.247E-01 -.489E-01
   0.414E+02 0.137E+02 -.281E+04   -.406E+02 -.134E+02 0.281E+04   -.849E+00 -.278E+00 0.203E+01   0.522E-01 -.339E-01 -.135E+00
   0.385E+02 -.123E+02 -.282E+04   -.388E+02 0.130E+02 0.282E+04   0.291E+00 -.746E+00 0.144E+01   0.137E-01 0.643E-01 -.693E-01
   -.150E+01 -.608E+01 -.279E+04   0.123E+01 0.556E+01 0.279E+04   0.330E+00 0.615E+00 0.175E+01   -.519E-01 -.881E-01 -.891E-01
   0.274E+02 -.889E+01 -.281E+04   -.276E+02 0.884E+01 0.281E+04   0.254E+00 -.457E-02 0.183E+01   -.165E-01 0.222E-01 -.431E-01
   0.666E+02 -.587E+02 -.147E+04   -.652E+02 0.589E+02 0.147E+04   -.139E+01 -.325E+00 0.151E+01   -.814E-02 0.738E-01 -.855E-01
   0.211E+02 -.399E+02 -.144E+04   -.222E+02 0.396E+02 0.144E+04   0.112E+01 0.372E+00 0.241E+01   -.693E-02 -.196E-01 -.995E-01
   0.584E+02 0.328E+02 0.285E+04   -.582E+02 -.329E+02 -.285E+04   -.374E+00 0.123E+00 -.258E+01   -.891E-02 -.390E-01 0.249E-01
   0.145E+02 -.105E+02 0.161E+04   -.155E+02 0.111E+02 -.161E+04   0.108E+01 -.599E+00 0.995E+00   -.169E-01 0.125E-01 0.711E-02
   -.565E+02 0.125E+02 -.141E+04   0.573E+02 -.118E+02 0.141E+04   -.769E+00 -.640E+00 0.237E+01   0.678E-01 -.473E-01 -.121E+00
   -.737E+02 0.861E+02 0.295E+04   0.742E+02 -.846E+02 -.295E+04   -.382E+00 -.160E+01 -.261E+01   0.201E-01 0.119E-01 0.242E-01
   0.230E+02 -.484E+02 0.154E+04   -.228E+02 0.478E+02 -.154E+04   -.356E+00 0.551E+00 -.794E+00   0.445E-01 -.553E-01 0.279E-01
   0.181E+02 -.425E+00 -.280E+04   -.183E+02 0.414E+00 0.280E+04   0.229E+00 -.200E-01 0.146E+01   -.470E-02 0.419E-01 -.640E-01
   -.705E+01 0.316E+01 0.970E+01   0.714E+01 -.294E+01 -.107E+02   -.138E+00 -.381E+00 0.985E+00   -.590E-02 0.104E+00 -.183E-02
   -.160E+02 0.167E+02 -.282E+04   0.154E+02 -.163E+02 0.282E+04   0.633E+00 -.302E+00 0.206E+01   0.275E-01 -.244E-01 -.936E-01
   -.310E+00 0.399E+02 0.844E+02   -.798E+00 -.412E+02 -.844E+02   0.120E+01 0.144E+01 -.425E-01   0.226E-01 -.734E-01 -.118E-01
   -.643E+02 0.574E+01 -.143E+04   0.649E+02 -.713E+01 0.143E+04   -.544E+00 0.142E+01 0.263E+01   0.125E-01 0.379E-01 -.269E-01
   0.332E+02 0.272E+02 -.146E+04   -.332E+02 -.264E+02 0.146E+04   -.969E-01 -.767E+00 0.215E+01   0.332E-01 0.499E-01 -.133E+00
   -.312E+01 -.676E+02 -.479E+02   0.208E+01 0.671E+02 0.483E+02   0.108E+01 0.477E+00 -.272E+00   0.101E-01 -.110E-01 -.718E-01
   -.239E+02 -.166E+02 0.400E+01   0.246E+02 0.173E+02 -.456E+01   -.646E+00 -.847E+00 0.618E+00   -.487E-01 0.523E-01 0.113E-01
   0.174E+02 0.109E+02 -.116E+04   -.174E+02 -.111E+02 0.116E+04   -.112E-02 0.325E+00 0.225E+00   -.121E-01 -.718E-02 -.609E-01
   -.880E+02 -.944E+00 0.229E+04   0.881E+02 -.309E+00 -.229E+04   -.141E+00 0.126E+01 -.275E+01   0.133E-01 -.691E-02 0.154E-01
   0.250E+02 -.199E+02 0.234E+04   -.252E+02 0.180E+02 -.234E+04   0.369E+00 0.196E+01 -.294E+01   -.238E-01 -.185E-01 0.185E-01
   0.432E+02 0.234E+02 0.232E+04   -.428E+02 -.221E+02 -.232E+04   -.430E+00 -.140E+01 -.316E+01   -.167E-02 0.267E-01 0.160E-01
   0.310E+02 0.683E+02 0.120E+04   -.300E+02 -.675E+02 -.120E+04   -.965E+00 -.843E+00 -.963E-01   -.840E-02 -.401E-02 -.408E-02
   0.300E+02 -.767E+02 0.124E+04   -.300E+02 0.763E+02 -.124E+04   -.100E+00 0.351E+00 -.497E+00   -.588E-02 0.307E-02 0.525E-01
   -.568E+02 -.211E+02 -.118E+04   0.568E+02 0.212E+02 0.118E+04   -.998E-01 -.179E+00 0.413E+00   0.272E-01 0.895E-01 -.613E-01
   -.159E+03 0.112E+02 0.238E+04   0.157E+03 -.113E+02 -.237E+04   0.153E+01 0.536E-01 -.360E+01   0.158E-01 -.122E-01 0.792E-02
   -.463E+02 0.584E+02 0.123E+04   0.454E+02 -.579E+02 -.123E+04   0.896E+00 -.546E+00 -.515E+00   0.126E-01 0.577E-02 -.362E-01
   -.652E+02 0.356E+00 -.228E+02   0.649E+02 -.247E-01 0.228E+02   0.213E+00 -.412E+00 -.147E+00   0.309E-01 0.271E-01 0.665E-02
   0.161E+02 -.817E+02 -.119E+04   -.163E+02 0.816E+02 0.119E+04   0.171E+00 0.192E+00 0.716E+00   0.328E-02 -.640E-01 -.121E+00
   0.132E+02 0.266E+02 -.119E+04   -.133E+02 -.268E+02 0.119E+04   0.128E+00 0.111E+00 -.210E-01   -.192E-01 0.584E-01 -.740E-01
   -.404E+01 -.820E+02 0.233E+04   0.297E+01 0.803E+02 -.233E+04   0.107E+01 0.157E+01 -.329E+01   -.307E-02 0.179E-01 0.338E-01
   0.240E+02 -.280E+02 0.264E+04   -.238E+02 0.283E+02 -.264E+04   -.110E+00 -.150E+00 -.294E+01   -.172E-01 -.440E-02 0.319E-01
   0.179E+03 0.392E+02 0.265E+04   -.179E+03 -.384E+02 -.265E+04   -.438E+00 -.843E+00 -.300E+01   -.252E-01 0.381E-02 0.148E-01
   -.581E+02 -.523E+02 0.133E+04   0.575E+02 0.512E+02 -.133E+04   0.583E+00 0.115E+01 -.247E+00   -.173E-01 0.970E-02 -.777E-02
   -.766E+02 0.435E+02 0.170E+02   0.767E+02 -.434E+02 -.174E+02   -.466E-01 -.107E+00 0.436E+00   -.236E-01 -.508E-03 -.682E-02
   -.143E+03 0.878E+01 0.135E+04   0.142E+03 -.835E+01 -.135E+04   0.321E+00 -.520E+00 -.230E+00   0.303E-01 0.975E-02 -.145E-01
   -.132E+02 -.162E+02 0.133E+04   0.135E+02 0.158E+02 -.133E+04   -.191E+00 0.444E+00 -.250E+00   -.273E-01 0.538E-01 0.557E-03
   0.476E+02 0.206E+01 -.135E+04   -.476E+02 -.206E+01 0.135E+04   -.140E+00 0.133E+00 0.953E+00   0.437E-01 -.955E-01 -.166E+00
   0.708E+02 -.638E+02 0.266E+04   -.701E+02 0.640E+02 -.265E+04   -.709E+00 -.140E+00 -.328E+01   0.422E-02 -.138E-01 0.636E-01
   -.793E+01 0.956E+01 0.134E+04   0.804E+01 -.930E+01 -.134E+04   -.129E+00 -.320E+00 -.536E+00   -.511E-01 0.171E-01 0.350E-02
   0.402E+02 -.817E+02 -.755E+01   -.394E+02 0.814E+02 0.790E+01   -.878E+00 0.547E+00 -.434E+00   0.406E-01 -.114E+00 -.300E-01
   0.410E+02 0.179E+02 0.329E+04   -.413E+02 -.172E+02 -.329E+04   0.332E+00 -.657E+00 -.400E+01   0.286E-01 0.326E-01 0.171E-01
   0.783E+02 0.255E+01 0.165E+04   -.785E+02 -.303E+01 -.165E+04   0.137E+00 0.534E+00 -.154E+00   -.381E-01 -.537E-01 0.105E-01
   0.147E+03 -.473E+02 0.161E+04   -.146E+03 0.476E+02 -.161E+04   -.327E+00 -.284E+00 -.150E+00   0.423E-01 0.169E-01 0.259E-01
   0.237E+02 0.731E+02 0.101E+03   -.243E+02 -.728E+02 -.101E+03   0.635E+00 -.341E+00 0.815E-01   -.628E-01 -.140E-01 -.551E-01
   0.967E+01 0.568E+02 -.162E+04   -.902E+01 -.566E+02 0.162E+04   -.596E+00 -.279E+00 0.889E+00   -.748E-01 0.264E-01 -.839E-01
   -.435E+02 0.267E+02 -.162E+04   0.428E+02 -.264E+02 0.162E+04   0.947E+00 -.208E+00 0.180E+01   -.776E-01 -.812E-01 -.946E-01
   -.662E+00 0.139E+03 0.324E+04   0.742E+00 -.139E+03 -.323E+04   -.806E-01 0.149E-01 -.340E+01   0.324E-02 -.333E-01 0.127E-01
   -.534E+01 -.883E+02 0.328E+04   0.463E+01 0.881E+02 -.327E+04   0.517E+00 0.238E+00 -.334E+01   0.208E-01 0.878E-02 0.389E-01
   0.122E+03 0.541E+01 -.211E+02   -.122E+03 -.538E+01 0.215E+02   0.410E-01 -.180E+00 -.565E+00   0.112E-01 0.670E-01 0.772E-02
   -.122E+03 -.230E+02 0.234E+02   0.122E+03 0.228E+02 -.232E+02   0.227E+00 0.217E+00 -.131E+00   0.456E-01 0.376E-01 -.794E-01
   -.124E+02 0.108E+03 0.171E+04   0.124E+02 -.107E+03 -.171E+04   0.116E+00 -.942E+00 -.118E+01   -.206E-01 -.496E-01 -.622E-01
   0.263E+02 -.608E+02 0.654E+01   -.259E+02 0.597E+02 -.681E+01   -.354E+00 0.124E+01 0.251E+00   -.519E-01 0.719E-01 -.482E-01
   0.597E+02 -.115E+02 -.779E+01   -.590E+02 0.113E+02 0.808E+01   -.672E+00 0.222E+00 -.247E+00   -.658E-02 0.197E-01 -.274E-01
   -.951E+02 0.824E-01 0.150E+04   0.946E+02 0.113E+00 -.150E+04   0.502E+00 -.155E+00 -.397E+00   0.267E-01 -.170E-02 -.125E-01
   -.426E+02 0.716E+01 0.156E+04   0.431E+02 -.745E+01 -.156E+04   -.416E+00 0.383E+00 -.555E+00   0.333E-01 -.228E-01 -.222E-01
   -.124E+03 0.130E+01 0.297E+04   0.124E+03 -.128E+01 -.296E+04   -.375E+00 -.154E+00 -.225E+01   0.969E-02 0.801E-02 0.214E-02
   0.672E+02 -.697E+02 0.295E+04   -.679E+02 0.701E+02 -.295E+04   0.761E+00 -.363E+00 -.143E+01   0.893E-02 0.324E-01 0.434E-01
   0.200E+02 -.295E+02 0.153E+04   -.196E+02 0.293E+02 -.153E+04   -.381E+00 0.162E+00 -.466E-01   -.105E-01 -.821E-02 0.838E-01
   0.717E+02 -.138E+00 0.150E+04   -.711E+02 0.291E-01 -.150E+04   -.648E+00 0.895E-01 -.439E+00   0.237E-01 0.587E-01 0.403E-01
   -.328E+02 -.501E+02 -.152E+04   0.328E+02 0.501E+02 0.152E+04   0.490E-01 -.150E+00 0.573E+00   -.303E-01 0.112E+00 -.553E-01
   -.503E+02 0.681E+01 0.294E+04   0.508E+02 -.630E+01 -.294E+04   -.456E+00 -.387E+00 -.200E+01   0.694E-02 0.131E-01 0.765E-02
   -.510E+02 0.102E+03 0.860E+02   0.515E+02 -.102E+03 -.857E+02   -.440E+00 -.380E+00 -.340E+00   0.386E-01 -.458E-01 -.719E-01
   0.374E+00 0.585E+02 -.157E+02   -.330E+00 -.577E+02 0.155E+02   0.894E-01 -.823E+00 0.645E-02   -.103E+00 0.744E-02 0.273E-01
   0.839E+02 -.894E+01 -.267E+02   -.836E+02 0.960E+01 0.268E+02   -.439E+00 -.671E+00 -.262E+00   0.999E-01 -.441E-01 0.104E-02
   -.563E+01 -.778E+02 0.276E+02   0.527E+01 0.775E+02 -.275E+02   0.406E+00 0.434E+00 -.611E-01   -.479E-01 -.389E-01 -.499E-01
   0.981E+00 0.264E+01 -.334E+03   -.104E+01 -.277E+01 0.335E+03   0.681E-01 0.949E-01 -.149E+01   -.334E-04 0.115E-01 -.547E-03
 -----------------------------------------------------------------------------------------------
   -.210E+01 -.243E+00 0.508E+01   0.470E-12 0.617E-12 -.106E-10   0.210E+01 0.217E+00 -.262E+01   0.965E-02 0.531E-01 -.247E+01
 
 
 POSITION                                       TOTAL-FORCE (eV/Angst)
 -----------------------------------------------------------------------------------
     13.43759      8.34636      6.88783        -0.006413      0.014116      0.010890
      5.30295      8.36639      6.82229         0.012367      0.001995     -0.012347
      5.14680      3.60002      6.95315        -0.001559     -0.001659      0.008218
     14.87385      9.14314      9.12554        -0.007873     -0.000570      0.017009
      3.86333      4.42013      9.23120        -0.004880     -0.018810     -0.005794
      6.64514      9.11624      9.10819        -0.010386     -0.011942      0.016009
     12.14708      4.39255      9.29272        -0.013920     -0.027742     -0.007762
      9.35375      9.11295      9.13082         0.013925     -0.007994      0.008618
     10.73963      1.97239      9.15252        -0.003018      0.002235      0.003950
      2.57084      2.01010      9.14843         0.001207      0.011088     -0.003875
     12.11416      9.10592      9.17228         0.006675      0.000462     -0.003267
     13.48488      6.76214      9.22273         0.007214      0.013824      0.009584
      5.25701      1.96798      9.19308        -0.002281      0.014901     -0.003296
      8.03378      6.76818      9.16473        -0.004695      0.011181     -0.007729
      9.35618      4.40231      9.22458         0.014079     -0.011162     -0.002836
      5.25356      6.74600      9.19825         0.005476      0.008989      0.011384
      7.98794      1.97488      9.13719         0.005853     -0.002417      0.002941
      8.07722      3.58186      6.93787         0.002103      0.000943      0.006948
      6.54143      1.18872      6.87119        -0.004314     -0.004350     -0.002466
      6.72628      1.16745      1.08242        -0.011495      0.003708     -0.000293
      3.78814      4.32228      2.81446        -0.006017      0.000723     -0.045052
      1.24565      1.28819      6.85952        -0.000219     -0.013346      0.009237
      1.10289      1.28088      0.83038         0.008625     -0.013537      0.014701
      6.68973      9.08802      2.94861        -0.005332     -0.006285     -0.021784
      6.62012      4.37134      9.21049        -0.006402      0.020224     -0.003705
      8.01503      5.21342      4.82519         0.032602      0.000578     -0.003023
     10.72010      6.78146      9.18289        -0.006264      0.006581      0.001380
     14.76728      7.43331      4.80456         0.012796     -0.002853     -0.047300
     12.15648      5.90696      6.98377         0.001784      0.000505     -0.005509
      6.62818      5.98715      6.93144        -0.000003      0.004377      0.010433
      3.69641      2.63079      4.96058        -0.035484     -0.022115     -0.011506
     10.74899      5.24251      4.86996        -0.020762     -0.022534      0.048529
      3.91639      6.00198      7.04926         0.003720      0.000280      0.005814
     13.40431      8.18144      1.12629         0.014623     -0.012186      0.012628
      5.30364      8.18579      0.97842        -0.012937     -0.003093      0.035786
      4.01252      6.08228      1.00891        -0.009951     -0.006865      0.050206
      8.14068      2.17808      2.94353        -0.010409      0.000660      0.001666
      9.41716      9.04979      2.92015        -0.008915      0.005662     -0.013340
      2.49212      3.63927      7.07544        -0.007873      0.011038      0.011931
      2.27016      3.62463      0.90646        -0.006146      0.005948      0.040868
     10.72847      2.05865      2.89929        -0.000649      0.015387     -0.016474
     13.44858      5.13914      4.92157        -0.008320     -0.018927      0.006082
      3.90540      1.09432      7.01723         0.012234      0.008193      0.002086
      9.37863      5.95196      7.04349         0.001224     -0.000832      0.002100
      3.84203      1.09369      0.99843        -0.004870      0.008632      0.055901
      9.46597      5.91657      1.05336        -0.000491      0.007675      0.016741
      5.43495      3.60933      1.03054        -0.027812      0.010115      0.021068
     12.01888      8.97257      3.00065        -0.008176     -0.008504      0.012592
     12.09414      7.50068      4.86230         0.009440      0.012634     -0.034925
     13.25111      6.61567      2.90710         0.007039     -0.016135     -0.024355
      9.39189      4.34418      2.86168         0.008951      0.014409     -0.019766
      8.05426      8.29936      6.97116        -0.009028     -0.005419     -0.001166
      8.14131      8.28722      0.98031         0.003334      0.012166      0.010539
     10.75943      6.81665      2.87577        -0.013535     -0.002324     -0.000785
      2.65866      0.23001      5.00725         0.017081      0.010770     -0.018311
      8.02288      3.59150      0.88412         0.002057      0.015662     -0.005834
      5.26159      1.95152      3.02289        -0.008767      0.002305     -0.017809
      5.47598      6.67403      3.01859         0.001753     -0.003362     -0.009028
      8.00253      0.50416      4.85587         0.013897      0.009349     -0.003006
      9.41115      1.23085      6.91746        -0.000645     -0.001105      0.000727
     10.69898      8.27614      6.95471         0.007595     -0.000806     -0.002954
      9.37707      1.21333      0.89478        -0.002328     -0.006733      0.000411
     10.79552      8.30051      0.89576        -0.023832      0.004866     -0.001830
      5.23744      5.11945      4.90393         0.016323     -0.002615     -0.019911
     12.04772      2.87198      4.90316        -0.026853      0.012993      0.029455
     14.84943      9.21347      2.92717        -0.003237      0.011245     -0.015968
      9.47732      2.78762      4.96322         0.003691      0.018952      0.026060
      6.62486      2.80825      4.89292         0.030496     -0.007136     -0.027174
     12.06521      4.33484      2.86673        -0.002216      0.000942     -0.031776
      2.47669      1.92891      2.90301         0.025605      0.011817     -0.022668
     12.05319      5.92970      0.96885        -0.005569     -0.030410      0.006266
      6.68440      5.89557      1.05654        -0.005885      0.002463     -0.003958
      8.15015      6.79554      2.87759         0.004986      0.000393     -0.007634
      6.69092      4.28584      2.88429        -0.005305     -0.011860      0.001838
     10.78945      3.64180      7.05306         0.002830     -0.004919     -0.019135
     10.69673      3.54310      0.96432         0.000167      0.015676      0.017499
     10.77558      0.56009      4.86940         0.000920      0.023241     -0.002236
      9.41147      7.55569      4.96424         0.003820     -0.024861     -0.008129
      6.80717      7.56930      4.94866         0.012689     -0.009111     -0.032076
      5.19417      0.24850      4.93127         0.030780      0.005258     -0.003039
     10.73754      3.55169     10.12085         0.005102     -0.030643      0.002737
 -----------------------------------------------------------------------------------
    total drift:                                0.013246      0.026309     -0.007894


--------------------------------------------------------------------------------------------------------



  FREE ENERGIE OF THE ION-ELECTRON SYSTEM (eV)
  ---------------------------------------------------
  free  energy   TOTEN  =      -506.50132275 eV

  energy  without entropy=     -506.51395551  energy(sigma->0) =     -506.50553367
 
 d Force = 0.8379566E-03[-0.610E-05, 0.168E-02]  d Energy = 0.7893361E-03 0.486E-04
 d Force = 0.5927226E+01[ 0.591E+01, 0.595E+01]  d Ewald  = 0.5927227E+01-0.103E-05


--------------------------------------------------------------------------------------------------------


    POTLOK:  cpu time    0.4201: real time    0.4227


--------------------------------------------------------------------------------------------------------


 Conjugate gradient step on ions:
 trial-energy change:   -0.000789  1 .order   -0.000838   -0.001682    0.000006
  (g-gl).g = 0.120E-02      g.g   = 0.104E-02  gl.gl    = 0.166E-02
 g(Force)  = 0.104E-02   g(Stress)= 0.000E+00 ortho     =-0.184E-03
 gamma     =   0.72276
 trial     =   1.85465
 opt step  =   1.84656  (harmonic =   1.84795) maximal distance =0.00446752
 next E    =  -506.501323   (d E  =  -0.00079)


--------------------------------------------------------------------------------------------------------


  
 reached required accuracy - stopping structural energy minimisation
     LOOP+:  cpu time  625.0792: real time  627.9804
    4ORBIT:  cpu time    0.0000: real time    0.0000

 total amount of memory used by VASP MPI-rank0   235710. kBytes
=======================================================================

   base      :      30000. kBytes
   nonlr-proj:      32179. kBytes
   fftplans  :      16144. kBytes
   grid      :      49182. kBytes
   one-center:        653. kBytes
   wavefun   :     107552. kBytes
 
  
  
 General timing and accounting informations for this job:
 ========================================================
  
                  Total CPU time used (sec):    14188.479
                            User time (sec):    13758.635
                          System time (sec):      429.844
                         Elapsed time (sec):    14281.168
  
                   Maximum memory used (kb):      395284.
                   Average memory used (kb):           0.
  
                          Minor page faults:      7007679
                          Major page faults:          303
                 Voluntary context switches:         9211
