 vasp.5.4.4.18Apr17-6-g9f103f2a35 (build Oct 25 2019 11:13:22) complex          
  
 executed on             LinuxIFC date 2021.11.08  16:43:55
 running on   48 total cores
 distrk:  each k-point on   48 cores,    1 groups
 distr:  one band on NCORES_PER_BAND=   1 cores,   48 groups


--------------------------------------------------------------------------------------------------------


 INCAR:
 POTCAR:    PAW_PBE Pt 04Feb2005                  
 POTCAR:    PAW_PBE Fe 06Sep2000                  
 POTCAR:    PAW_PBE Co 02Aug2007                  
 POTCAR:    PAW_PBE Cu 22Jun2005                  
 POTCAR:    PAW_PBE Ni 02Aug2007                  
 POTCAR:    PAW_PBE H 15Jun2001                   

 ----------------------------------------------------------------------------- 
|                                                                             |
|           W    W    AA    RRRRR   N    N  II  N    N   GGGG   !!!           |
|           W    W   A  A   R    R  NN   N  II  NN   N  G    G  !!!           |
|           W    W  A    A  R    R  N N  N  II  N N  N  G       !!!           |
|           W WW W  AAAAAA  RRRRR   N  N N  II  N  N N  G  GGG   !            |
|           WW  WW  A    A  R   R   N   NN  II  N   NN  G    G                |
|           W    W  A    A  R    R  N    N  II  N    N   GGGG   !!!           |
|                                                                             |
|      For optimal performance we recommend to set                            |
|        NCORE= 4 - approx SQRT( number of cores)                             |
|      NCORE specifies how many cores store one orbital (NPAR=cpu/NCORE).     |
|      This setting can  greatly improve the performance of VASP for DFT.     |
|      The default,   NCORE=1            might be grossly inefficient         |
|      on modern multi-core architectures or massively parallel machines.     |
|      Do your own testing !!!!                                               |
|      Unfortunately you need to use the default for GW and RPA calculations. |
|      (for HF NCORE is supported but not extensively tested yet)             |
|                                                                             |
 ----------------------------------------------------------------------------- 

 POTCAR:    PAW_PBE Pt 04Feb2005                  
   VRHFIN =Pt: s1d9                                                             
   LEXCH  = PE                                                                  
   EATOM  =   729.1176 eV,   53.5886 Ry                                         
                                                                                
   TITEL  = PAW_PBE Pt 04Feb2005                                                
   LULTRA =        F    use ultrasoft PP ?                                      
   IUNSCR =        1    unscreen: 0-lin 1-nonlin 2-no                           
   RPACOR =    2.330    partial core radius                                     
   POMASS =  195.080; ZVAL   =   10.000    mass and valenz                      
   RCORE  =    2.600    outmost cutoff radius                                   
   RWIGS  =    2.750; RWIGS  =    1.455    wigner-seitz radius (au A)           
   ENMAX  =  230.283; ENMIN  =  172.712 eV                                      
   ICORE  =        3    local potential                                         
   LCOR   =        T    correct aug charges                                     
   LPAW   =        T    paw PP                                                  
   EAUG   =  358.966                                                            
   DEXC   =    0.000                                                            
   RMAX   =    2.658    core radius for proj-oper                               
   RAUG   =    1.300    factor for augmentation sphere                          
   RDEP   =    2.761    radius for radial grids                                 
   RDEPT  =    2.203    core radius for aug-charge                              
                                                                                
   Atomic configuration                                                         
   16 entries                                                                   
     n  l   j            E        occ.                                          
     1  0  0.50    -78401.1885   2.0000                                         
     2  0  0.50    -13770.7750   2.0000                                         
     2  1  1.50    -11931.0468   6.0000                                         
     3  0  0.50     -3234.7234   2.0000                                         
     3  1  1.50     -2699.2216   6.0000                                         
     3  2  2.50     -2119.5714  10.0000                                         
     4  0  0.50      -695.1528   2.0000                                         
     4  1  1.50      -519.6034   6.0000                                         
     4  2  2.50      -306.6786  10.0000                                         
     4  3  3.50       -70.1041  14.0000                                         
     5  0  0.50      -101.7747   2.0000                                         
     5  1  1.50       -55.9873   6.0000                                         
     5  2  2.50        -6.1423   9.0000                                         
     6  0  0.50        -5.6573   1.0000                                         
     6  1  1.50        -6.8029   0.0000                                         
     5  3  2.50        -1.3606   0.0000                                         
   Description                                                                  
     l       E           TYP  RCUT    TYP  RCUT                                 
     2     -6.1423404     23  2.500                                             
     2     -7.5029230     23  2.500                                             
     0     -5.6573207     23  2.500                                             
     0      0.7416693     23  2.500                                             
     1     -2.7211652     23  2.600                                             
     1     20.4087390     23  2.600                                             
     3     -1.3605826     23  2.500                                             
  local pseudopotential read in
  partial core-charges read in
  partial kinetic energy density read in
  atomic valenz-charges read in
  non local Contribution for L=           2  read in
    real space projection operators read in
  non local Contribution for L=           2  read in
    real space projection operators read in
  non local Contribution for L=           0  read in
    real space projection operators read in
  non local Contribution for L=           0  read in
    real space projection operators read in
  non local Contribution for L=           1  read in
    real space projection operators read in
  non local Contribution for L=           1  read in
    real space projection operators read in
    PAW grid and wavefunctions read in
 
   number of l-projection  operators is LMAX  =           6
   number of lm-projection operators is LMMAX =          18
 
 POTCAR:    PAW_PBE Fe 06Sep2000                  
   VRHFIN =Fe:  d7 s1                                                           
   LEXCH  = PE                                                                  
   EATOM  =   594.3153 eV,   43.6809 Ry                                         
                                                                                
   TITEL  = PAW_PBE Fe 06Sep2000                                                
   LULTRA =        F    use ultrasoft PP ?                                      
   IUNSCR =        1    unscreen: 0-lin 1-nonlin 2-no                           
   RPACOR =    2.000    partial core radius                                     
   POMASS =   55.847; ZVAL   =    8.000    mass and valenz                      
   RCORE  =    2.300    outmost cutoff radius                                   
   RWIGS  =    2.460; RWIGS  =    1.302    wigner-seitz radius (au A)           
   ENMAX  =  267.882; ENMIN  =  200.911 eV                                      
   RCLOC  =    1.701    cutoff for local pot                                    
   LCOR   =        T    correct aug charges                                     
   LPAW   =        T    paw PP                                                  
   EAUG   =  511.368                                                            
   DEXC   =    0.000                                                            
   RMAX   =    2.356    core radius for proj-oper                               
   RAUG   =    1.300    factor for augmentation sphere                          
   RDEP   =    2.442    radius for radial grids                                 
   RDEPT  =    1.890    core radius for aug-charge                              
                                                                                
   Atomic configuration                                                         
    9 entries                                                                   
     n  l   j            E        occ.                                          
     1  0  0.50     -6993.8440   2.0000                                         
     2  0  0.50      -814.6047   2.0000                                         
     2  1  1.50      -693.3689   6.0000                                         
     3  0  0.50       -89.4732   2.0000                                         
     3  1  1.50       -55.6373   6.0000                                         
     3  2  2.50        -3.8151   7.0000                                         
     4  0  0.50        -4.2551   1.0000                                         
     4  1  1.50        -3.4015   0.0000                                         
     4  3  2.50        -1.3606   0.0000                                         
   Description                                                                  
     l       E           TYP  RCUT    TYP  RCUT                                 
     2     -3.8151135     23  2.300                                             
     2     -5.1756961     23  2.300                                             
     0     -4.2550963     23  2.300                                             
     0      7.2035603     23  2.300                                             
     1     -2.7211652     23  2.300                                             
     1     18.4316424     23  2.300                                             
  local pseudopotential read in
  partial core-charges read in
  partial kinetic energy density read in
  atomic valenz-charges read in
  non local Contribution for L=           2  read in
    real space projection operators read in
  non local Contribution for L=           2  read in
    real space projection operators read in
  non local Contribution for L=           0  read in
    real space projection operators read in
  non local Contribution for L=           0  read in
    real space projection operators read in
  non local Contribution for L=           1  read in
    real space projection operators read in
  non local Contribution for L=           1  read in
    real space projection operators read in
    PAW grid and wavefunctions read in
 
   number of l-projection  operators is LMAX  =           6
   number of lm-projection operators is LMMAX =          18
 
 POTCAR:    PAW_PBE Co 02Aug2007                  
   VRHFIN =Co: d8 s1                                                            
   LEXCH  = PE                                                                  
   EATOM  =   813.3670 eV,   59.7808 Ry                                         
                                                                                
   TITEL  = PAW_PBE Co 02Aug2007                                                
   LULTRA =        F    use ultrasoft PP ?                                      
   IUNSCR =        1    unscreen: 0-lin 1-nonlin 2-no                           
   RPACOR =    2.000    partial core radius                                     
   POMASS =   58.933; ZVAL   =    9.000    mass and valenz                      
   RCORE  =    2.300    outmost cutoff radius                                   
   RWIGS  =    2.460; RWIGS  =    1.302    wigner-seitz radius (au A)           
   ENMAX  =  267.968; ENMIN  =  200.976 eV                                      
   RCLOC  =    1.203    cutoff for local pot                                    
   LCOR   =        T    correct aug charges                                     
   LPAW   =        T    paw PP                                                  
   EAUG   =  477.818                                                            
   DEXC   =    0.000                                                            
   RMAX   =    2.360    core radius for proj-oper                               
   RAUG   =    1.300    factor for augmentation sphere                          
   RDEP   =    2.393    radius for radial grids                                 
   RDEPT  =    1.864    core radius for aug-charge                              
                                                                                
   Atomic configuration                                                         
    9 entries                                                                   
     n  l   j            E        occ.                                          
     1  0  0.50     -7587.6674   2.0000                                         
     2  0  0.50      -893.6084   2.0000                                         
     2  1  1.50      -764.5805   6.0000                                         
     3  0  0.50       -97.5973   2.0000                                         
     3  1  1.50       -60.9648   6.0000                                         
     3  2  2.50        -4.2382   8.0000                                         
     4  0  0.50        -4.3746   1.0000                                         
     4  1  1.50        -4.0817   0.0000                                         
     4  3  2.50        -1.3606   0.0000                                         
   Description                                                                  
     l       E           TYP  RCUT    TYP  RCUT                                 
     2     -4.2382362     23  2.300                                             
     2     -5.5988188     23  2.300                                             
     0     -4.3745797     23  2.300                                             
     0      5.7660125     23  2.300                                             
     1     -2.7211652     23  2.300                                             
     1     16.9860234     23  2.300                                             
  local pseudopotential read in
  partial core-charges read in
  partial kinetic energy density read in
  atomic valenz-charges read in
  non local Contribution for L=           2  read in
    real space projection operators read in
  non local Contribution for L=           2  read in
    real space projection operators read in
  non local Contribution for L=           0  read in
    real space projection operators read in
  non local Contribution for L=           0  read in
    real space projection operators read in
  non local Contribution for L=           1  read in
    real space projection operators read in
  non local Contribution for L=           1  read in
    real space projection operators read in
    PAW grid and wavefunctions read in
 
   number of l-projection  operators is LMAX  =           6
   number of lm-projection operators is LMMAX =          18
 
 POTCAR:    PAW_PBE Cu 22Jun2005                  
   VRHFIN =Cu: d10 p1                                                           
   LEXCH  = PE                                                                  
   EATOM  =  1390.9808 eV,  102.2342 Ry                                         
                                                                                
   TITEL  = PAW_PBE Cu 22Jun2005                                                
   LULTRA =        F    use ultrasoft PP ?                                      
   IUNSCR =        1    unscreen: 0-lin 1-nonlin 2-no                           
   RPACOR =    2.000    partial core radius                                     
   POMASS =   63.546; ZVAL   =   11.000    mass and valenz                      
   RCORE  =    2.300    outmost cutoff radius                                   
   RWIGS  =    2.200; RWIGS  =    1.164    wigner-seitz radius (au A)           
   ENMAX  =  295.446; ENMIN  =  221.585 eV                                      
   ICORE  =        3    local potential                                         
   LCOR   =        T    correct aug charges                                     
   LPAW   =        T    paw PP                                                  
   EAUG   =  586.980                                                            
   DEXC   =    0.000                                                            
   RMAX   =    2.344    core radius for proj-oper                               
   RAUG   =    1.300    factor for augmentation sphere                          
   RDEP   =    2.302    radius for radial grids                                 
   RDEPT  =    1.771    core radius for aug-charge                              
                                                                                
   Atomic configuration                                                         
    9 entries                                                                   
     n  l   j            E        occ.                                          
     1  0  0.50     -8850.2468   2.0000                                         
     2  0  0.50     -1062.3498   2.0000                                         
     2  1  1.50      -916.8226   6.0000                                         
     3  0  0.50      -114.6929   2.0000                                         
     3  1  1.50       -72.1325   6.0000                                         
     3  2  2.50        -5.0394  10.0000                                         
     4  0  0.50        -4.6097   1.0000                                         
     4  1  0.50        -4.0817   0.0000                                         
     4  3  2.50        -1.3606   0.0000                                         
   Description                                                                  
     l       E           TYP  RCUT    TYP  RCUT                                 
     2     -5.0393973     23  2.200                                             
     2     10.8846608     23  2.200                                             
     0     -4.6097109     23  2.200                                             
     0      8.2520465     23  2.200                                             
     1     -2.7211652     23  2.200                                             
     1     21.7055443     23  2.200                                             
     3      2.7211652     23  2.300                                             
  local pseudopotential read in
  partial core-charges read in
  partial kinetic energy density read in
  atomic valenz-charges read in
  non local Contribution for L=           2  read in
    real space projection operators read in
  non local Contribution for L=           2  read in
    real space projection operators read in
  non local Contribution for L=           0  read in
    real space projection operators read in
  non local Contribution for L=           0  read in
    real space projection operators read in
  non local Contribution for L=           1  read in
    real space projection operators read in
  non local Contribution for L=           1  read in
    real space projection operators read in
    PAW grid and wavefunctions read in
 
   number of l-projection  operators is LMAX  =           6
   number of lm-projection operators is LMMAX =          18
 
 POTCAR:    PAW_PBE Ni 02Aug2007                  
   VRHFIN =Ni:                                                                  
   LEXCH  = PE                                                                  
   EATOM  =  1077.6739 eV,   79.2068 Ry                                         
                                                                                
   TITEL  = PAW_PBE Ni 02Aug2007                                                
   LULTRA =        F    use ultrasoft PP ?                                      
   IUNSCR =        1    unscreen: 0-lin 1-nonlin 2-no                           
   RPACOR =    2.000    partial core radius                                     
   POMASS =   58.690; ZVAL   =   10.000    mass and valenz                      
   RCORE  =    2.300    outmost cutoff radius                                   
   RWIGS  =    2.430; RWIGS  =    1.286    wigner-seitz radius (au A)           
   ENMAX  =  269.532; ENMIN  =  202.149 eV                                      
   RCLOC  =    1.201    cutoff for local pot                                    
   LCOR   =        T    correct aug charges                                     
   LPAW   =        T    paw PP                                                  
   EAUG   =  544.565                                                            
   DEXC   =    0.000                                                            
   RMAX   =    2.357    core radius for proj-oper                               
   RAUG   =    1.300    factor for augmentation sphere                          
   RDEP   =    2.390    radius for radial grids                                 
   RDEPT  =    1.838    core radius for aug-charge                              
                                                                                
   Atomic configuration                                                         
    9 entries                                                                   
     n  l   j            E        occ.                                          
     1  0  0.50     -8206.4253   2.0000                                         
     2  0  0.50      -976.1748   2.0000                                         
     2  1  1.50      -839.0571   6.0000                                         
     3  0  0.50      -105.9991   2.0000                                         
     3  1  1.50       -66.4603   6.0000                                         
     3  2  2.50        -4.6458   9.0000                                         
     4  0  0.50        -4.4926   1.0000                                         
     4  1  1.50        -4.0817   0.0000                                         
     4  3  2.50        -1.3606   0.0000                                         
   Description                                                                  
     l       E           TYP  RCUT    TYP  RCUT                                 
     2     -4.6457903     23  2.300                                             
     2     -6.0063729     23  2.300                                             
     0     -4.4925590     23  2.300                                             
     0      5.0102601     23  2.300                                             
     1     -2.7211652     23  2.300                                             
     1     16.5183231     23  2.300                                             
  local pseudopotential read in
  partial core-charges read in
  partial kinetic energy density read in
  atomic valenz-charges read in
  non local Contribution for L=           2  read in
    real space projection operators read in
  non local Contribution for L=           2  read in
    real space projection operators read in
  non local Contribution for L=           0  read in
    real space projection operators read in
  non local Contribution for L=           0  read in
    real space projection operators read in
  non local Contribution for L=           1  read in
    real space projection operators read in
  non local Contribution for L=           1  read in
    real space projection operators read in
    PAW grid and wavefunctions read in
 
   number of l-projection  operators is LMAX  =           6
   number of lm-projection operators is LMMAX =          18
 
 POTCAR:    PAW_PBE H 15Jun2001                   
   VRHFIN =H: ultrasoft test                                                    
   LEXCH  = PE                                                                  
   EATOM  =    12.4884 eV,    0.9179 Ry                                         
                                                                                
   TITEL  = PAW_PBE H 15Jun2001                                                 
   LULTRA =        F    use ultrasoft PP ?                                      
   IUNSCR =        0    unscreen: 0-lin 1-nonlin 2-no                           
   RPACOR =    0.000    partial core radius                                     
   POMASS =    1.000; ZVAL   =    1.000    mass and valenz                      
   RCORE  =    1.100    outmost cutoff radius                                   
   RWIGS  =    0.700; RWIGS  =    0.370    wigner-seitz radius (au A)           
   ENMAX  =  250.000; ENMIN  =  200.000 eV                                      
   RCLOC  =    0.701    cutoff for local pot                                    
   LCOR   =        T    correct aug charges                                     
   LPAW   =        T    paw PP                                                  
   EAUG   =  400.000                                                            
   RMAX   =    1.123    core radius for proj-oper                               
   RAUG   =    1.200    factor for augmentation sphere                          
   RDEP   =    1.112    radius for radial grids                                 
   RDEPT  =    0.926    core radius for aug-charge                              
                                                                                
   Atomic configuration                                                         
    2 entries                                                                   
     n  l   j            E        occ.                                          
     1  0  0.50        -6.4927   1.0000                                         
     2  1  0.50        -3.4015   0.0000                                         
   Description                                                                  
     l       E           TYP  RCUT    TYP  RCUT                                 
     0     -6.4927494     23  1.100                                             
     0      6.8029130     23  1.100                                             
     1     -4.0817478     23  1.100                                             
  local pseudopotential read in
  atomic valenz-charges read in
  non local Contribution for L=           0  read in
    real space projection operators read in
  non local Contribution for L=           0  read in
    real space projection operators read in
  non local Contribution for L=           1  read in
    real space projection operators read in
    PAW grid and wavefunctions read in
 
   number of l-projection  operators is LMAX  =           3
   number of lm-projection operators is LMMAX =           5
 
 Optimization of the real space projectors (new method)

 maximal supplied QI-value         = 14.36
 optimisation between [QCUT,QGAM] = [ 11.92, 23.98] = [ 39.79,161.09] Ry 
 Optimized for a Real-space Cutoff    1.49 Angstroem

   l    n(q)    QCUT    max X(q) W(low)/X(q) W(high)/X(q)  e(spline) 
   2     10    11.920    66.195    0.79E-04    0.18E-03    0.24E-06
   2     10    11.920    64.643    0.81E-04    0.19E-03    0.24E-06
   0     11    11.920    95.520    0.28E-04    0.54E-04    0.18E-06
   0     11    11.920    63.403    0.27E-04    0.52E-04    0.17E-06
   1     10    11.920    19.961    0.18E-04    0.11E-03    0.23E-06
   1     10    11.920    13.289    0.25E-04    0.87E-04    0.19E-06
 Optimization of the real space projectors (new method)

 maximal supplied QI-value         = 16.25
 optimisation between [QCUT,QGAM] = [ 11.86, 23.89] = [ 39.41,159.82] Ry 
 Optimized for a Real-space Cutoff    1.49 Angstroem

   l    n(q)    QCUT    max X(q) W(low)/X(q) W(high)/X(q)  e(spline) 
   2     10    11.864    80.901    0.13E-03    0.23E-03    0.37E-06
   2     10    11.864    75.754    0.13E-03    0.23E-03    0.38E-06
   0     11    11.864    58.752    0.44E-04    0.11E-04    0.20E-06
   0     11    11.864    30.679    0.36E-04    0.10E-04    0.18E-06
   1     10    11.864    17.977    0.31E-04    0.45E-04    0.10E-06
   1     10    11.864    13.559    0.25E-04    0.37E-04    0.89E-07
 Optimization of the real space projectors (new method)

 maximal supplied QI-value         = 16.25
 optimisation between [QCUT,QGAM] = [ 11.86, 23.89] = [ 39.41,159.82] Ry 
 Optimized for a Real-space Cutoff    1.33 Angstroem

   l    n(q)    QCUT    max X(q) W(low)/X(q) W(high)/X(q)  e(spline) 
   2      9    11.864    65.824    0.22E-03    0.53E-03    0.26E-06
   2      9    11.864    61.429    0.22E-03    0.53E-03    0.26E-06
   0      9    11.864    56.174    0.21E-03    0.32E-04    0.15E-06
   0      9    11.864    31.263    0.19E-03    0.30E-04    0.14E-06
   1      9    11.864    19.828    0.63E-04    0.30E-03    0.16E-06
   1      9    11.864    15.139    0.49E-04    0.25E-03    0.13E-06
 Optimization of the real space projectors (new method)

 maximal supplied QI-value         = 16.25
 optimisation between [QCUT,QGAM] = [ 11.86, 23.89] = [ 39.41,159.82] Ry 
 Optimized for a Real-space Cutoff    1.49 Angstroem

   l    n(q)    QCUT    max X(q) W(low)/X(q) W(high)/X(q)  e(spline) 
   2     10    11.864     4.610    0.10E-03    0.20E-03    0.29E-06
   2     10    11.864     8.522    0.17E-03    0.33E-03    0.50E-06
   0     11    11.864    51.609    0.52E-04    0.55E-04    0.33E-06
   0     11    11.864    27.747    0.46E-04    0.52E-04    0.31E-06
   1     10    11.864    20.408    0.54E-04    0.25E-04    0.21E-06
   1     10    11.864    13.425    0.48E-04    0.22E-04    0.18E-06
 Optimization of the real space projectors (new method)

 maximal supplied QI-value         = 16.25
 optimisation between [QCUT,QGAM] = [ 11.86, 23.89] = [ 39.41,159.82] Ry 
 Optimized for a Real-space Cutoff    1.33 Angstroem

   l    n(q)    QCUT    max X(q) W(low)/X(q) W(high)/X(q)  e(spline) 
   2      9    11.864    60.317    0.21E-03    0.51E-03    0.25E-06
   2      9    11.864    55.921    0.21E-03    0.51E-03    0.26E-06
   0      9    11.864    51.690    0.22E-03    0.30E-04    0.17E-06
   0      9    11.864    30.015    0.20E-03    0.28E-04    0.15E-06
   1      9    11.864    18.849    0.76E-04    0.33E-03    0.17E-06
   1      9    11.864    14.624    0.60E-04    0.28E-03    0.15E-06
 Optimization of the real space projectors (new method)

 maximal supplied QI-value         = 34.20
 optimisation between [QCUT,QGAM] = [ 11.97, 23.94] = [ 40.13,160.53] Ry 
 Optimized for a Real-space Cutoff    1.18 Angstroem

   l    n(q)    QCUT    max X(q) W(low)/X(q) W(high)/X(q)  e(spline) 
   0      8    11.971    19.460    0.15E-03    0.31E-03    0.25E-06
   0      8    11.971    12.209    0.13E-03    0.29E-03    0.25E-06
   1      8    11.971     4.655    0.22E-03    0.24E-03    0.21E-06
  PAW_PBE Pt 04Feb2005                  :
 energy of atom  1       EATOM= -729.1176
 kinetic energy error for atom=    0.0021 (will be added to EATOM!!)
  PAW_PBE Fe 06Sep2000                  :
 energy of atom  2       EATOM= -594.3153
 kinetic energy error for atom=    0.0024 (will be added to EATOM!!)
  PAW_PBE Co 02Aug2007                  :
 energy of atom  3       EATOM= -813.3670
 kinetic energy error for atom=    0.0026 (will be added to EATOM!!)
  PAW_PBE Cu 22Jun2005                  :
 energy of atom  4       EATOM=-1390.9808
 kinetic energy error for atom=    0.0036 (will be added to EATOM!!)
  PAW_PBE Ni 02Aug2007                  :
 energy of atom  5       EATOM=-1077.6739
 kinetic energy error for atom=    0.0027 (will be added to EATOM!!)
  PAW_PBE H 15Jun2001                   :
 energy of atom  6       EATOM=  -12.4884
 kinetic energy error for atom=    0.0008 (will be added to EATOM!!)
 
 
 POSCAR: 10.46-high                              
  positions in cartesian coordinates
  No initial velocities read in
 exchange correlation table for  LEXCH =        8
   RHO(1)=    0.500       N(1)  =     2000
   RHO(2)=  100.500       N(2)  =     4000
 


--------------------------------------------------------------------------------------------------------


 ion  position               nearest neighbor table
   1  0.780  0.867  0.323-  23 2.58  65 2.61  33 2.62   3 2.65  32 2.68  41 2.69  56 2.70   2 2.75
                            15 2.79  40 2.86  16 2.87   8 2.92
   2  0.042  0.868  0.328-  26 2.57  34 2.60  58 2.61   3 2.66  41 2.67  38 2.71   1 2.75   8 2.78
                            32 2.81  79 2.82  10 2.89  20 2.91
   3  0.036  0.617  0.326-   6 2.62   1 2.65   4 2.65   2 2.66  50 2.68  34 2.70  33 2.71  32 2.71
                            68 2.73  16 2.81   9 2.84  20 2.98
   4  0.032  0.366  0.328-  77 2.58  26 2.59   3 2.65  33 2.66   6 2.69   5 2.69  50 2.71  36 2.76
                            11 2.77  42 2.85   9 2.89  14 3.14
   5  0.289  0.109  0.324-  58 2.53  65 2.57  26 2.60  61 2.60  23 2.63   4 2.69   6 2.71  12 2.71
                            36 2.73  39 2.74  17 2.88  14 3.22
   6  0.287  0.368  0.324-   3 2.62  23 2.62  34 2.67  22 2.68  68 2.69   4 2.69  71 2.70   5 2.71
                            36 2.71  17 2.83  29 2.87   9 2.88
   7  0.865  0.705  0.122-  43 2.51  74 2.52  60 2.55  55 2.56  45 2.63  56 2.63  69 2.65  64 2.66
                            72 2.66  32 2.67  25 2.69  50 2.75
   8  0.874  0.953  0.434-  16 2.61  15 2.61  21 2.62  10 2.62  20 2.62  13 2.64   2 2.78   1 2.92
                            41 2.94
   9  0.124  0.452  0.436-  11 2.61  17 2.62  29 2.62  16 2.63  14 2.63  20 2.63   3 2.84   6 2.88
                             4 2.89
  10  0.124  0.953  0.440-  81 1.75  20 2.61  18 2.62   8 2.62  12 2.63  14 2.64  13 2.64   2 2.89
                            26 3.03  58 3.05
  11  0.874  0.452  0.435-  19 2.60  13 2.60   9 2.61  16 2.62  31 2.63  14 2.64   4 2.77  33 2.90
                            77 2.96
  12  0.375  0.952  0.428-  18 2.58  31 2.60  17 2.61  15 2.62  10 2.63  14 2.69   5 2.71  65 2.74
                            58 2.83
  13  0.874  0.205  0.425-  11 2.60  19 2.61  21 2.63  10 2.64   8 2.64  14 2.68  26 2.75  77 2.76
                            41 2.80
  14  0.124  0.203  0.454-  81 1.75   9 2.63  10 2.64  11 2.64  17 2.65  13 2.68  12 2.69   4 3.14
                             5 3.22  26 3.34
  15  0.624  0.952  0.433-  16 2.61  31 2.61   8 2.61  17 2.61  12 2.62  21 2.63   1 2.79  23 2.86
                            65 2.93
  16  0.873  0.703  0.435-  15 2.61   8 2.61  31 2.62  11 2.62   9 2.63  20 2.63   3 2.81   1 2.87
                            33 2.97
  17  0.373  0.202  0.432-  12 2.61  15 2.61   9 2.62  21 2.63  29 2.64  14 2.65   6 2.83  23 2.84
                             5 2.88
  18  0.374  0.705  0.429-  12 2.58  31 2.60  10 2.62  19 2.63  29 2.63  20 2.63  51 2.70  34 2.75
                            58 2.80
  19  0.625  0.455  0.427-  31 2.60  11 2.60  13 2.61  18 2.63  21 2.64  29 2.64  51 2.70  77 2.75
                            22 2.77
  20  0.125  0.703  0.441-  10 2.61  29 2.61   8 2.62  16 2.63  18 2.63   9 2.63   2 2.91  34 2.98
                             3 2.98
  21  0.624  0.203  0.432-   8 2.62  29 2.62  15 2.63  13 2.63  17 2.63  19 2.64  22 2.87  41 2.88
                            23 2.90
  22  0.541  0.372  0.322-  77 2.53  51 2.58  41 2.60  34 2.61  30 2.65  70 2.65   6 2.68  23 2.70
                            71 2.75  19 2.77  21 2.87  29 2.89
  23  0.536  0.116  0.322-   1 2.58   6 2.62   5 2.63  41 2.64  65 2.67  22 2.70  71 2.72  40 2.76
                            39 2.78  17 2.84  15 2.86  21 2.90
  24  0.539  0.118  0.032-  63 2.57  46 2.57  55 2.58  66 2.61  43 2.64  52 2.64  54 2.65  62 2.68
                            67 2.68
  25  0.123  0.448  0.123-  54 2.50  48 2.52  73 2.58  63 2.59  45 2.60  76 2.63  64 2.63  36 2.65
                            68 2.66  72 2.67   7 2.69  50 2.77
  26  0.037  0.116  0.320-  61 2.57   2 2.57   4 2.59   5 2.60  41 2.60  58 2.65  79 2.66  77 2.67
                            42 2.69  13 2.75  10 3.03  14 3.34
  27  0.033  0.126  0.027-  48 2.58  78 2.61  52 2.61  73 2.61  66 2.61  49 2.62  28 2.64  59 2.70
                            44 2.70
  28  0.114  0.959  0.126-  79 2.57  73 2.59  44 2.60  69 2.61  59 2.62  49 2.63  47 2.63  38 2.64
                            27 2.64  61 2.66  64 2.67  35 2.74
  29  0.373  0.454  0.433-  20 2.61   9 2.62  21 2.62  18 2.63  17 2.64  19 2.64  34 2.83   6 2.87
                            22 2.89
  30  0.454  0.529  0.220-  71 2.56  70 2.57  76 2.60  68 2.61  57 2.62  35 2.65  22 2.65  37 2.65
                            80 2.66  38 2.69  34 2.72  51 2.80
  31  0.623  0.703  0.436-  19 2.60  18 2.60  12 2.60  15 2.61  16 2.62  11 2.63  33 2.84  51 2.87
                            65 2.88
  32  0.949  0.783  0.224-  50 2.58  56 2.60  68 2.62  64 2.65  79 2.66   7 2.67   1 2.68  40 2.69
                            38 2.70   3 2.71  69 2.74   2 2.81
  33  0.776  0.619  0.323-  51 2.50  65 2.54  77 2.54   1 2.62  50 2.64  37 2.66   4 2.66   3 2.71
                            56 2.72  31 2.84  11 2.90  16 2.97
  34  0.292  0.621  0.325-  51 2.55  58 2.56   2 2.60  22 2.61   6 2.67  38 2.70   3 2.70  30 2.72
                            68 2.75  18 2.75  29 2.83  20 2.98
  35  0.378  0.700  0.123-  53 2.48  59 2.53  75 2.54  60 2.57  57 2.59  47 2.60  30 2.65  64 2.68
                            76 2.68  80 2.70  38 2.73  28 2.74
  36  0.199  0.285  0.223-  73 2.61  71 2.61  61 2.62  50 2.63  63 2.63  68 2.63  25 2.65  42 2.65
                            39 2.69   6 2.71   5 2.73   4 2.76
  37  0.699  0.545  0.219-  56 2.52  80 2.54  60 2.55  50 2.57  72 2.60  57 2.61  30 2.65  33 2.66
                            42 2.68  70 2.69  77 2.73  51 2.77
  38  0.202  0.792  0.224-  61 2.52  80 2.58  58 2.59  79 2.62  28 2.64  64 2.66  68 2.69  30 2.69
                            32 2.70  34 2.70   2 2.71  35 2.73
  39  0.451  0.023  0.219-  80 2.50  61 2.53  47 2.53  56 2.54  55 2.55  63 2.60  40 2.68  36 2.69
                            65 2.70   5 2.74  71 2.75  23 2.78
  40  0.696  0.043  0.215-  46 2.54  69 2.56  70 2.57  71 2.59  55 2.59  79 2.61  56 2.68  39 2.68
                            32 2.69  41 2.75  23 2.76   1 2.86
  41  0.786  0.121  0.319-  22 2.60  26 2.60  77 2.61  79 2.62  70 2.63  23 2.64   2 2.67   1 2.69
                            40 2.75  13 2.80  21 2.88   8 2.94
  42  0.947  0.281  0.218-  49 2.52  79 2.55  70 2.55  72 2.57  73 2.62  36 2.65  61 2.67  50 2.68
                            37 2.68  26 2.69  77 2.70   4 2.85
  43  0.789  0.864  0.029-   7 2.51  69 2.56  45 2.62  67 2.63  24 2.64  55 2.64  74 2.65  66 2.67
                            44 2.67
  44  0.045  0.863  0.030-  75 2.54  45 2.58  64 2.58  28 2.60  59 2.60  69 2.61  43 2.67  66 2.70
                            27 2.70
  45  0.042  0.618  0.028-  75 2.52  54 2.57  44 2.58  25 2.60  64 2.61  43 2.62  48 2.62   7 2.63
                            74 2.72
  46  0.618  0.214  0.124-  76 2.47  57 2.50  40 2.54  49 2.54  62 2.55  70 2.55  24 2.57  71 2.62
                            66 2.63  69 2.64  63 2.64  55 2.85
  47  0.369  0.952  0.123-  52 2.46  59 2.49  55 2.52  39 2.53  67 2.56  73 2.60  35 2.60  60 2.60
                            63 2.62  28 2.63  61 2.71  80 2.74
  48  0.025  0.377  0.032-  72 2.47  74 2.50  25 2.52  78 2.55  73 2.57  27 2.58  45 2.62  52 2.75
                            54 2.76
  49  0.863  0.211  0.123-  78 2.46  57 2.51  72 2.52  42 2.52  46 2.54  66 2.59  70 2.60  27 2.62
                            28 2.63  69 2.63  79 2.65  73 2.68
  50  0.948  0.537  0.226-  37 2.57  32 2.58  56 2.61  36 2.63  33 2.64  68 2.65  42 2.68   3 2.68
                             4 2.71  72 2.71   7 2.75  25 2.77
  51  0.535  0.622  0.326-  33 2.50  65 2.51  58 2.54  34 2.55  22 2.58  77 2.60  80 2.63  19 2.70
                            18 2.70  37 2.77  30 2.80  31 2.87
  52  0.288  0.114  0.033-  47 2.46  73 2.51  59 2.56  63 2.58  27 2.61  67 2.62  24 2.64  54 2.74
                            48 2.75
  53  0.550  0.613  0.036-  57 2.44  60 2.45  74 2.45  78 2.47  35 2.48  67 2.55  62 2.57  59 2.70
                            75 2.77
  54  0.290  0.375  0.032-  76 2.45  75 2.49  25 2.50  45 2.57  62 2.58  63 2.60  24 2.65  52 2.74
                            48 2.76
  55  0.614  0.943  0.125-  60 2.45  47 2.52  67 2.53  39 2.55  56 2.55   7 2.56  24 2.58  40 2.59
                            63 2.62  43 2.64  69 2.70  46 2.85
  56  0.699  0.786  0.221-  37 2.52  39 2.54  55 2.55  60 2.56  80 2.59  32 2.60  50 2.61   7 2.63
                            40 2.68  65 2.70   1 2.70  33 2.72
  57  0.623  0.450  0.124-  53 2.44  78 2.46  46 2.50  49 2.51  62 2.54  72 2.55  35 2.59  70 2.60
                            37 2.61  76 2.61  30 2.62  60 2.66
  58  0.292  0.865  0.320-  65 2.50  80 2.53   5 2.53  51 2.54  34 2.56  61 2.56  38 2.59   2 2.61
                            26 2.65  18 2.80  12 2.83  10 3.05
  59  0.291  0.868  0.031-  47 2.49  35 2.53  52 2.56  67 2.56  44 2.60  28 2.62  75 2.68  53 2.70
                            27 2.70
  60  0.620  0.706  0.124-  55 2.45  53 2.45  74 2.51  67 2.52  37 2.55   7 2.55  56 2.56  35 2.57
                            47 2.60  72 2.64  57 2.66  80 2.71
  61  0.206  0.031  0.226-  38 2.52  39 2.53  58 2.56  26 2.57  80 2.58   5 2.60  36 2.62  28 2.66
                            79 2.66  42 2.67  47 2.71  73 2.73
  62  0.536  0.375  0.030-  76 2.52  57 2.54  46 2.55  53 2.57  78 2.57  54 2.58  75 2.59  66 2.64
                            24 2.68
  63  0.372  0.201  0.127-  71 2.54  24 2.57  76 2.57  52 2.58  25 2.59  39 2.60  73 2.60  54 2.60
                            55 2.62  47 2.62  36 2.63  46 2.64
  64  0.122  0.700  0.126-  75 2.51  44 2.58  68 2.60  45 2.61  25 2.63  32 2.65  38 2.66   7 2.66
                            28 2.67  76 2.67  35 2.68  69 2.69
  65  0.533  0.862  0.323-  58 2.50  51 2.51  33 2.54  80 2.56   5 2.57   1 2.61  23 2.67  56 2.70
                            39 2.70  12 2.74  31 2.88  15 2.93
  66  0.787  0.121  0.027-  69 2.55  49 2.59  27 2.61  24 2.61  78 2.62  46 2.63  62 2.64  43 2.67
                            44 2.70
  67  0.538  0.862  0.029-  60 2.52  55 2.53  53 2.55  59 2.56  47 2.56  74 2.59  52 2.62  43 2.63
                            24 2.68
  68  0.202  0.535  0.223-  71 2.58  64 2.60  30 2.61  32 2.62  36 2.63  50 2.65  25 2.66   6 2.69
                            38 2.69  76 2.71   3 2.73  34 2.75
  69  0.865  0.958  0.122-  66 2.55  40 2.56  43 2.56  44 2.61  28 2.61  79 2.62  49 2.63  46 2.64
                             7 2.65  64 2.69  55 2.70  32 2.74
  70  0.701  0.286  0.221-  42 2.55  46 2.55  30 2.57  40 2.57  79 2.59  49 2.60  57 2.60  41 2.63
                            71 2.65  22 2.65  77 2.67  37 2.69
  71  0.447  0.288  0.221-  63 2.54  30 2.56  76 2.58  68 2.58  40 2.59  36 2.61  46 2.62  70 2.65
                             6 2.70  23 2.72  22 2.75  39 2.75
  72  0.868  0.449  0.124-  78 2.47  48 2.47  74 2.51  49 2.52  57 2.55  42 2.57  37 2.60  73 2.63
                            60 2.64   7 2.66  25 2.67  50 2.71
  73  0.123  0.202  0.124-  52 2.51  48 2.57  25 2.58  28 2.59  47 2.60  63 2.60  36 2.61  27 2.61
                            42 2.62  72 2.63  49 2.68  61 2.73
  74  0.784  0.614  0.032-  53 2.45  48 2.50  60 2.51  72 2.51   7 2.52  78 2.53  67 2.59  43 2.65
                            45 2.72
  75  0.284  0.616  0.034-  54 2.49  76 2.51  64 2.51  45 2.52  35 2.54  44 2.54  62 2.59  59 2.68
                            53 2.77
  76  0.376  0.444  0.123-  54 2.45  46 2.47  75 2.51  62 2.52  63 2.57  71 2.58  30 2.60  57 2.61
                            25 2.63  64 2.67  35 2.68  68 2.71
  77  0.783  0.372  0.321-  22 2.53  33 2.54   4 2.58  51 2.60  41 2.61  26 2.67  70 2.67  42 2.70
                            37 2.73  19 2.75  13 2.76  11 2.96
  78  0.783  0.373  0.034-  57 2.46  49 2.46  72 2.47  53 2.47  74 2.53  48 2.55  62 2.57  27 2.61
                            66 2.62
  79  0.948  0.038  0.221-  42 2.55  28 2.57  70 2.59  40 2.61  38 2.62  41 2.62  69 2.62  49 2.65
                            26 2.66  32 2.66  61 2.66   2 2.82
  80  0.452  0.784  0.226-  39 2.50  58 2.53  37 2.54  65 2.56  38 2.58  61 2.58  56 2.59  51 2.63
                            30 2.66  35 2.70  60 2.71  47 2.74
  81  0.121  0.068  0.499-  14 1.75  10 1.75
 
  LATTYP: Found a hexagonal cell.
 ALAT       =    10.4600000381
 C/A-ratio  =     2.1032504704
  
  Lattice vectors:
  
 A1 = (   5.2300000190,  -9.0586257566,   0.0000000000)
 A2 = ( -10.4600000381,   0.0000000000,   0.0000000000)
 A3 = (   0.0000000000,   0.0000000000, -22.0000000000)


Analysis of symmetry for initial positions (statically):
=====================================================================
 Subroutine PRICEL returns:
 Original cell was already a primitive cell.
 

 Routine SETGRP: Setting up the symmetry group for a 
 hexagonal supercell.


 Subroutine GETGRP returns: Found  1 space group operations
 (whereof  1 operations were pure point group operations)
 out of a pool of 24 trial point group operations.


The static configuration has the point symmetry C_1 .


Analysis of symmetry for dynamics (positions and initial velocities):
=====================================================================
 Subroutine PRICEL returns:
 Original cell was already a primitive cell.
 

 Routine SETGRP: Setting up the symmetry group for a 
 hexagonal supercell.


 Subroutine GETGRP returns: Found  1 space group operations
 (whereof  1 operations were pure point group operations)
 out of a pool of 24 trial point group operations.


The dynamic configuration has the point symmetry C_1 .


Analysis of constrained symmetry for selective dynamics:
=====================================================================
 Subroutine PRICEL returns:
 Original cell was already a primitive cell.
 

 Routine SETGRP: Setting up the symmetry group for a 
 hexagonal supercell.


 Subroutine GETGRP returns: Found  1 space group operations
 (whereof  1 operations were pure point group operations)
 out of a pool of 24 trial point group operations.


The constrained configuration has the point symmetry C_1 .


Analysis of structural, dynamic, and magnetic symmetry:
=====================================================================
 Subroutine PRICEL returns:
 Original cell was already a primitive cell.
 

 Routine SETGRP: Setting up the symmetry group for a 
 hexagonal supercell.


 Subroutine GETGRP returns: Found  1 space group operations
 (whereof  1 operations were pure point group operations)
 out of a pool of 24 trial point group operations.


The magnetic configuration has the point symmetry C_1 .


 Subroutine INISYM returns: Found  1 space group operations
 (whereof  1 operations are pure point group operations),
 and found     1 'primitive' translations

 
 
 KPOINTS: mesh auto                               

Automatic generation of k-mesh.
Space group operators:
 irot       det(A)        alpha          n_x          n_y          n_z        tau_x        tau_y        tau_z
    1     1.000000     0.000000     1.000000     0.000000     0.000000     0.000000     0.000000     0.000000
 
 Subroutine IBZKPT returns following result:
 ===========================================
 
 Found      4 irreducible k-points:
 
 Following reciprocal coordinates:
            Coordinates               Weight
  0.000000  0.000000  0.000000      1.000000
  0.500000 -0.000000  0.000000      1.000000
  0.000000  0.500000  0.000000      1.000000
  0.500000  0.500000  0.000000      1.000000
 
 Following cartesian coordinates:
            Coordinates               Weight
  0.000000  0.000000  0.000000      1.000000
  0.047801 -0.027598  0.000000      1.000000
  0.000000  0.055196  0.000000      1.000000
  0.047801  0.027598  0.000000      1.000000
 
 TETIRR: Found     12 inequivalent tetrahedra from       24
 
 Subroutine IBZKPT_HF returns following result:
 ==============================================
 
 Found      4 k-points in 1st BZ
 the following      4 k-points will be used (e.g. in the exchange kernel)
 Following reciprocal coordinates:   # in IRBZ
  0.000000  0.000000  0.000000    0.25000000   1 t-inv F
  0.500000 -0.000000  0.000000    0.25000000   2 t-inv F
  0.000000  0.500000  0.000000    0.25000000   3 t-inv F
  0.500000  0.500000  0.000000    0.25000000   4 t-inv F


--------------------------------------------------------------------------------------------------------




 Dimension of arrays:
   k-points           NKPTS =      4   k-points in BZ     NKDIM =      4   number of bands    NBANDS=    624
   number of dos      NEDOS =    301   number of ions     NIONS =     81
   non local maximal  LDIM  =      6   non local SUM 2l+1 LMDIM =     18
   total plane-waves  NPLWV = ******
   max r-space proj   IRMAX =   7217   max aug-charges    IRDMAX=  31436
   dimension x,y,z NGX =    80 NGY =   80 NGZ =  168
   dimension x,y,z NGXF=   160 NGYF=  160 NGZF=  336
   support grid    NGXF=   160 NGYF=  160 NGZF=  336
   ions per type =              42  10   9  10   9   1
   NGX,Y,Z   is equivalent  to a cutoff of  12.71, 12.71, 12.70 a.u.
   NGXF,Y,Z  is equivalent  to a cutoff of  25.43, 25.43, 25.39 a.u.

 SYSTEM =  Pt111                                   
 POSCAR =  10.46-high                              

 Startparameter for this run:
   NWRITE =      2    write-flag & timer
   PREC   = accura    normal or accurate (medium, high low for compatibility)
   ISTART =      0    job   : 0-new  1-cont  2-samecut
   ICHARG =      2    charge: 1-file 2-atom 10-const
   ISPIN  =      2    spin polarized calculation?
   LNONCOLLINEAR =      F non collinear calculations
   LSORBIT =      F    spin-orbit coupling
   INIWAV =      1    electr: 0-lowe 1-rand  2-diag
   LASPH  =      F    aspherical Exc in radial PAW
   METAGGA=      F    non-selfconsistent MetaGGA calc.

 Electronic Relaxation 1
   ENCUT  =  550.0 eV  40.42 Ry    6.36 a.u.  20.00 20.00 42.07*2*pi/ulx,y,z
   ENINI  =  550.0     initial cutoff
   ENAUG  =  587.0 eV  augmentation charge cutoff
   NELM   =    200;   NELMIN=  2; NELMDL= -5     # of ELM steps 
   EDIFF  = 0.1E-04   stopping-criterion for ELM
   LREAL  =      T    real-space projection
   NLSPLINE    = F    spline interpolate recip. space projectors
   LCOMPAT=      F    compatible to vasp.4.4
   GGA_COMPAT  = T    GGA compatible to vasp.4.4-vasp.4.6
   LMAXPAW     = -100 max onsite density
   LMAXMIX     =    2 max onsite mixed and CHGCAR
   VOSKOWN=      0    Vosko Wilk Nusair interpolation
   ROPT   =   -0.00025  -0.00025  -0.00025  -0.00025
   ROPT   =   -0.00025  -0.00025
 Ionic relaxation
   EDIFFG = -.5E-01   stopping-criterion for IOM
   NSW    =   1009    number of steps for IOM
   NBLOCK =      1;   KBLOCK =   1009    inner block; outer block 
   IBRION =      5    ionic relax: 0-MD 1-quasi-New 2-CG
   NFREE  =      2    steps in history (QN), initial steepest desc. (CG)
   ISIF   =      2    stress and relaxation
   IWAVPR =     11    prediction:  0-non 1-charg 2-wave 3-comb
   ISYM   =      2    0-nonsym 1-usesym 2-fastsym
   LCORR  =      T    Harris-Foulkes like correction to forces

   POTIM  = 0.5000    time-step for ionic-motion
   TEIN   =    0.0    initial temperature
   TEBEG  =    0.0;   TEEND  =   0.0 temperature during run
   SMASS  =  -3.00    Nose mass-parameter (am)
   estimated Nose-frequenzy (Omega)   =  0.10E-29 period in steps =****** mass=  -0.250E-26a.u.
   SCALEE = 1.0000    scale energy and forces
   NPACO  =    256;   APACO  = 16.0  distance and # of slots for P.C.
   PSTRESS=    0.0 pullay stress

  Mass of Ions in am
   POMASS = 195.08 55.85 58.93 63.55 58.69  1.00
  Ionic Valenz
   ZVAL   =  10.00  8.00  9.00 11.00 10.00  1.00
  Atomic Wigner-Seitz radii
   RWIGS  =  -1.00 -1.00 -1.00 -1.00 -1.00 -1.00
  virtual crystal weights 
   VCA    =   1.00  1.00  1.00  1.00  1.00  1.00
   NELECT =     782.0000    total number of electrons
   NUPDOWN=      -1.0000    fix difference up-down

 DOS related values:
   EMIN   =  10.00;   EMAX   =-10.00  energy-range for DOS
   EFERMI =   0.00
   ISMEAR =    -5;   SIGMA  =   0.10  broadening in eV -4-tet -1-fermi 0-gaus

 Electronic relaxation 2 (details)
   IALGO  =     68    algorithm
   LDIAG  =      T    sub-space diagonalisation (order eigenvalues)
   LSUBROT=      F    optimize rotation matrix (better conditioning)
   TURBO    =      0    0=normal 1=particle mesh
   IRESTART =      0    0=no restart 2=restart with 2 vectors
   NREBOOT  =      0    no. of reboots
   NMIN     =      0    reboot dimension
   EREF     =   0.00    reference energy to select bands
   IMIX   =      4    mixing-type and parameters
     AMIX     =   0.40;   BMIX     =  1.00
     AMIX_MAG =   1.60;   BMIX_MAG =  1.00
     AMIN     =   0.10
     WC   =   100.;   INIMIX=   1;  MIXPRE=   1;  MAXMIX= -45

 Intra band minimization:
   WEIMIN = 0.0010     energy-eigenvalue tresh-hold
   EBREAK =  0.40E-08  absolut break condition
   DEPER  =   0.30     relativ break condition  

   TIME   =   0.40     timestep for ELM

  volume/ion in A,a.u.               =      25.74       173.67
  Fermi-wavevector in a.u.,A,eV,Ry     =   1.180696  2.231192 18.967115  1.394044
  Thomas-Fermi vector in A             =   2.316984
 
 Write flags
   LWAVE        =      F    write WAVECAR
   LDOWNSAMPLE  =      F    k-point downsampling of WAVECAR
   LCHARG       =      F    write CHGCAR
   LVTOT        =      F    write LOCPOT, total local potential
   LVHAR        =      F    write LOCPOT, Hartree potential only
   LELF         =      F    write electronic localiz. function (ELF)
   LORBIT       =      0    0 simple, 1 ext, 2 COOP (PROOUT), +10 PAW based schemes


 Dipole corrections
   LMONO  =      F    monopole corrections only (constant potential shift)
   LDIPOL =      F    correct potential (dipole corrections)
   IDIPOL =      0    1-x, 2-y, 3-z, 4-all directions 
   EPSILON=  1.0000000 bulk dielectric constant

 Exchange correlation treatment:
   GGA     =    --    GGA type
   LEXCH   =     8    internal setting for exchange type
   VOSKOWN=      0    Vosko Wilk Nusair interpolation
   LHFCALC =     F    Hartree Fock is set to
   LHFONE  =     F    Hartree Fock one center treatment
   AEXX    =    0.0000 exact exchange contribution

 Linear response parameters
   LEPSILON=     F    determine dielectric tensor
   LRPA    =     F    only Hartree local field effects (RPA)
   LNABLA  =     F    use nabla operator in PAW spheres
   LVEL    =     F    velocity operator in full k-point grid
   LINTERFAST=   F  fast interpolation
   KINTER  =     0    interpolate to denser k-point grid
   CSHIFT  =0.1000    complex shift for real part using Kramers Kronig
   OMEGAMAX=  -1.0    maximum frequency
   DEG_THRESHOLD= 0.2000000E-02 threshold for treating states as degnerate
   RTIME   =   -0.100 relaxation time in fs
  (WPLASMAI=    0.000 imaginary part of plasma frequency in eV, 0.658/RTIME)
   DFIELD  = 0.0000000 0.0000000 0.0000000 field for delta impulse in time
 
 Orbital magnetization related:
   ORBITALMAG=     F  switch on orbital magnetization
   LCHIMAG   =     F  perturbation theory with respect to B field
   DQ        =  0.001000  dq finite difference perturbation B field
   LLRAUG    =     F  two centre corrections for induced B field



--------------------------------------------------------------------------------------------------------


 finite differences
   using selective dynamics as specified on POSCAR
   WARNING: If single coordinates had been selected the selection of coordinates
            is made according to the corresponding   d i r e c t   coordinates!
            Don't support selection of single cartesian coordinates -- sorry ...
  !
 charge density and potential will be updated during run
 spin polarized calculation
 RMM-DIIS sequential band-by-band and
  variant of blocked Davidson during initial phase
 perform sub-space diagonalisation
    before iterative eigenvector-optimisation
 modified Broyden-mixing scheme, WC =      100.0
 initial mixing is a Kerker type mixing with AMIX =  0.4000 and BMIX =      1.0000
 Hartree-type preconditioning will be used
 using additional bands          233
 real space projection scheme for non local part
 use partial core corrections
 calculate Harris-corrections to forces 
   (improved forces if not selfconsistent)
 use gradient corrections 
 use of overlap-Matrix (Vanderbilt PP)
 Fermi weights with tetrahedron method with Bloechl corrections


--------------------------------------------------------------------------------------------------------


  energy-cutoff  :      550.00
  volume of cell :     2084.57
      direct lattice vectors                 reciprocal lattice vectors
    10.460000038  0.000000000  0.000000000     0.095602294 -0.055196010  0.000000000
     5.230000019  9.058625757  0.000000000     0.000000000  0.110392020  0.000000000
     0.000000000  0.000000000 22.000000000     0.000000000  0.000000000  0.045454545

  length of vectors
    10.460000038 10.460000038 22.000000000     0.110392020  0.110392020  0.045454545


 
 k-points in units of 2pi/SCALE and weight: mesh auto                               
   0.00000000  0.00000000  0.00000000       0.250
   0.04780115 -0.02759801  0.00000000       0.250
   0.00000000  0.05519601  0.00000000       0.250
   0.04780115  0.02759801  0.00000000       0.250
 
 k-points in reciprocal lattice and weights: mesh auto                               
   0.00000000  0.00000000  0.00000000       0.250
   0.50000000 -0.00000000  0.00000000       0.250
   0.00000000  0.50000000  0.00000000       0.250
   0.50000000  0.50000000  0.00000000       0.250
 
 position of ions in fractional coordinates (direct lattice) 
   0.77993092  0.86718961  0.32346257
   0.04201742  0.86821975  0.32778165
   0.03563950  0.61721437  0.32645043
   0.03167974  0.36590024  0.32757062
   0.28852975  0.10878508  0.32381107
   0.28709287  0.36840404  0.32374770
   0.86466887  0.70498578  0.12229985
   0.87355473  0.95275667  0.43358353
   0.12390293  0.45197267  0.43633952
   0.12360306  0.95293957  0.44011752
   0.87408952  0.45238225  0.43528114
   0.37456091  0.95150546  0.42849013
   0.87398166  0.20470166  0.42532019
   0.12365543  0.20333954  0.45360545
   0.62399594  0.95241419  0.43286362
   0.87345909  0.70344265  0.43517503
   0.37348374  0.20176258  0.43249737
   0.37422489  0.70515258  0.42917032
   0.62544169  0.45451359  0.42737474
   0.12457205  0.70333055  0.44120201
   0.62387236  0.20348604  0.43217381
   0.54106802  0.37219991  0.32169208
   0.53579575  0.11641415  0.32183623
   0.53870884  0.11802236  0.03238527
   0.12290617  0.44825013  0.12290690
   0.03677968  0.11618632  0.31980458
   0.03340525  0.12630506  0.02706319
   0.11402175  0.95923871  0.12562052
   0.37325625  0.45417944  0.43317075
   0.45357461  0.52945729  0.22039910
   0.62302580  0.70324645  0.43559923
   0.94899007  0.78274019  0.22361129
   0.77550595  0.61883036  0.32311779
   0.29191537  0.62110881  0.32455063
   0.37753931  0.69967624  0.12280080
   0.19901484  0.28472268  0.22280739
   0.69852103  0.54491363  0.21919537
   0.20213755  0.79182194  0.22389421
   0.45091369  0.02278376  0.21888536
   0.69637856  0.04264071  0.21542833
   0.78602835  0.12075568  0.31931760
   0.94737029  0.28129730  0.21835173
   0.78867385  0.86442815  0.02878726
   0.04503686  0.86262769  0.02956077
   0.04193819  0.61777677  0.02782942
   0.61761741  0.21403631  0.12433199
   0.36901191  0.95198663  0.12252685
   0.02492865  0.37664404  0.03221703
   0.86253121  0.21067251  0.12328867
   0.94767429  0.53659240  0.22625232
   0.53496995  0.62170559  0.32565788
   0.28837727  0.11371556  0.03253390
   0.55048242  0.61269490  0.03561757
   0.28974452  0.37464223  0.03224820
   0.61422605  0.94303021  0.12459236
   0.69894358  0.78562002  0.22059634
   0.62297436  0.45013935  0.12387038
   0.29238622  0.86502339  0.32032750
   0.29091939  0.86815236  0.03126639
   0.62010444  0.70621322  0.12413992
   0.20561233  0.03070072  0.22592274
   0.53625772  0.37500781  0.02951045
   0.37177867  0.20134982  0.12657237
   0.12154336  0.70027406  0.12608725
   0.53302908  0.86246678  0.32250040
   0.78687558  0.12059423  0.02748769
   0.53843249  0.86226890  0.02935757
   0.20178671  0.53509519  0.22281088
   0.86498126  0.95774808  0.12202558
   0.70149417  0.28590322  0.22086378
   0.44741904  0.28767331  0.22053161
   0.86782523  0.44867072  0.12402034
   0.12291743  0.20202656  0.12405521
   0.78432235  0.61382311  0.03229426
   0.28371978  0.61603863  0.03367972
   0.37614492  0.44431942  0.12290336
   0.78290895  0.37203328  0.32055660
   0.78259347  0.37304269  0.03358731
   0.94800282  0.03754642  0.22055626
   0.45232831  0.78402779  0.22630704
   0.12073382  0.06750769  0.49898558
 
 position of ions in cartesian coordinates  (Angst):
  12.69347919  7.85554616  7.11617660
   4.98029153  7.86487777  7.21119638
   3.60082028  5.59111395  7.18190951
   2.24502838  3.31455336  7.20655370
   3.58696721  0.98544337  7.12384364
   4.92974456  3.33723430  7.12244932
  12.73151207  6.38620234  2.69059659
  14.12029991  8.63066613  9.53883766
   3.65984171  4.09425125  9.59946942
   6.27676196  8.63232291  9.68258549
  11.50893559  4.09796152  9.57618505
   8.89428071  8.61933183  9.42678280
  10.21243785  1.85431574  9.35704407
   2.35690163  1.84197682  9.97931984
  11.50812380  8.62756369  9.52299954
  12.81538716  6.37222374  9.57385072
   4.96185820  1.82769167  9.51494213
   7.60234040  6.38771337  9.44174701
   8.91922617  4.11726852  9.40224432
   4.98144241  6.37120826  9.70644417
   7.58993686  1.84330385  9.50782380
   7.60617707  3.37161971  7.07722583
   6.21326955  1.05455223  7.08039703
   6.25215149  1.06912041  0.71247596
   3.62994671  4.06053018  2.70395184
   0.99236988  1.05248837  7.03570081
   1.00999439  1.14415026  0.59539027
   6.20948601  8.68938446  2.76365137
   6.27961888  4.11424161  9.52975656
   7.51345205  4.79615545  4.84878016
  10.19482879  6.37044636  9.58318311
  14.02016735  7.09055042  4.91944838
  11.34827508  5.60575267  7.10859137
   6.30183390  5.62639226  7.14011392
   7.60836792  6.33810520  2.70161749
   3.57079482  2.57919621  4.90176249
  10.15642833  4.93616867  4.82229805
   6.25558757  7.17281866  4.92567253
   4.83571624  0.20638953  4.81547785
   7.50713062  0.38626620  4.73942328
   8.85340879  1.09388052  7.02498729
  11.38067818  2.54816699  4.80373813
  12.77048778  7.83053112  0.63331979
   4.98262835  7.81422138  0.65033685
   3.66964602  5.59620857  0.61224722
   7.57968807  1.93887484  2.73530387
   8.83875465  8.62369061  2.69559074
   2.23060202  3.41187739  0.70877462
  10.12389374  1.90840340  2.71235085
  12.71905136  4.86078977  4.97755097
   8.84730591  5.63179825  7.16447327
   3.61115860  1.03010666  0.71574569
   8.96244049  5.55017376  0.78358650
   4.99010658  3.39374375  0.70946044
  11.35685253  8.54255771  2.74103188
  11.41974258  7.11663770  4.85311937
   8.87054062  4.07764387  2.72514845
   7.58243223  7.83592314  7.04720492
   7.58345366  7.86426735  0.68786056
  10.17978764  6.39732123  2.73107815
   2.31126976  0.27810636  4.97030019
   7.57054663  3.39705539  0.64922983
   4.94186449  1.82395267  2.78459216
   4.93377686  6.34352065  2.77391959
  10.08618546  7.81276378  7.09500876
   8.86142635  1.09241795  0.60472925
  10.14167022  7.81097126  0.64586645
   4.90923691  4.84722710  4.90183925
  14.05672646  8.67588139  2.68456269
   8.83290291  2.58989025  4.85900307
   6.18453456  2.60592485  4.85169553
  11.42399979  4.06434011  2.72844744
   2.34231520  1.83008301  2.72921466
  11.41430664  5.56039381  0.71047383
   6.18959093  5.58046341  0.74095375
   6.25826645  4.02492332  2.70387388
  10.13496173  3.37011023  7.05224520
  10.13694096  3.37925410  0.73892080
  10.11247730  0.34011900  4.85223770
   8.83181953  7.10221433  4.97875499
   1.61594096  0.61152688 10.97768266
 


--------------------------------------------------------------------------------------------------------


 k-point  1 :   0.0000 0.0000 0.0000  plane waves:   60991
 k-point  2 :   0.5000-0.0000 0.0000  plane waves:   60974
 k-point  3 :   0.0000 0.5000 0.0000  plane waves:   60974
 k-point  4 :   0.5000 0.5000 0.0000  plane waves:   60974

 maximum and minimum number of plane-waves per node :     60991    60974

 maximum number of plane-waves:     60991
 maximum index in each direction: 
   IXMAX=   20   IYMAX=   20   IZMAX=   42
   IXMIN=  -20   IYMIN=  -20   IZMIN=  -42


 serial   3D FFT for wavefunctions
 parallel 3D FFT for charge:
    minimum data exchange during FFTs selected (reduces bandwidth)


 total amount of memory used by VASP MPI-rank0   350516. kBytes
=======================================================================

   base      :      30000. kBytes
   nonlr-proj:      92271. kBytes
   fftplans  :      11305. kBytes
   grid      :     110428. kBytes
   one-center:       2519. kBytes
   wavefun   :     103993. kBytes
 
     INWAV:  cpu time    0.0000: real time    0.0004
 Broyden mixing: mesh for mixing (old mesh)
   NGX = 41   NGY = 41   NGZ = 85
  (NGX  =160   NGY  =160   NGZ  =336)
  gives a total of 142885 points

 initial charge density was supplied:
 charge density of overlapping atoms calculated
 number of electron     782.0000000 magnetization     217.0000000
 keeping initial charge density in first step


--------------------------------------------------------------------------------------------------------


 Maximum index for non-local projection operator         6979
 Maximum index for augmentation-charges         1834 (set IRDMAX)


--------------------------------------------------------------------------------------------------------


 First call to EWALD:  gamma=   0.139
 Maximum number of real-space cells 4x 4x 2
 Maximum number of reciprocal cells 2x 2x 4

    FEWALD:  cpu time    0.0043: real time    0.0043


--------------------------------------- Iteration      1(   1)  ---------------------------------------


    POTLOK:  cpu time    0.3959: real time    0.4080
    SETDIJ:  cpu time    0.0319: real time    0.0320
     EDDAV:  cpu time   53.7062: real time   53.8793
 BZINTS: Fermi energy: 18.627800;782.000000 electrons
         Band energy:8338.525731;  BLOECHL correction: -0.013725
       DOS:  cpu time    0.0225: real time    0.0340
    --------------------------------------------
      LOOP:  cpu time   54.1565: real time   54.3534

 eigenvalue-minimisations  :  9984
 total energy-change (2. order) : 0.7720819E+04  (-0.3380752E+05)
 number of electron     782.0000000 magnetization     217.0000000
 augmentation part      782.0000000 magnetization     217.0000000

 Free energy of the ion-electron system (eV)
  ---------------------------------------------------
  alpha Z        PSCENC =      2403.21136664
  Ewald energy   TEWEN  =    208152.02044188
  -Hartree energ DENC   =   -278813.08443566
  -exchange      EXHF   =         0.00000000
  -V(xc)+E(xc)   XCENC  =      1157.96648633
  PAW double counting   =     62151.42609927   -63176.80815837
  entropy T*S    EENTRO =         0.00000000
  eigenvalues    EBANDS =      8338.52573063
  atomic energy  EATOM  =     67507.56188773
  Solvation  Ediel_sol  =         0.00000000
  ---------------------------------------------------
  free energy    TOTEN  =      7720.81941846 eV

  energy without entropy =     7720.81941846  energy(sigma->0) =     7720.81941846


--------------------------------------------------------------------------------------------------------




--------------------------------------- Iteration      1(   2)  ---------------------------------------


     EDDAV:  cpu time   55.2804: real time   55.4381
 BZINTS: Fermi energy:  6.343958;782.000000 electrons
         Band energy:1185.021128;  BLOECHL correction: -0.016250
       DOS:  cpu time    0.0237: real time    0.0239
    --------------------------------------------
      LOOP:  cpu time   55.3041: real time   55.4620

 eigenvalue-minimisations  : 10368
 total energy-change (2. order) :-0.7153505E+04  (-0.6290056E+04)
 number of electron     782.0000000 magnetization     217.0000000
 augmentation part      782.0000000 magnetization     217.0000000

 Free energy of the ion-electron system (eV)
  ---------------------------------------------------
  alpha Z        PSCENC =      2403.21136664
  Ewald energy   TEWEN  =    208152.02044188
  -Hartree energ DENC   =   -278813.08443566
  -exchange      EXHF   =         0.00000000
  -V(xc)+E(xc)   XCENC  =      1157.96648633
  PAW double counting   =     62151.42609927   -63176.80815837
  entropy T*S    EENTRO =         0.00000000
  eigenvalues    EBANDS =      1185.02112762
  atomic energy  EATOM  =     67507.56188773
  Solvation  Ediel_sol  =         0.00000000
  ---------------------------------------------------
  free energy    TOTEN  =       567.31481545 eV

  energy without entropy =      567.31481545  energy(sigma->0) =      567.31481545


--------------------------------------------------------------------------------------------------------




--------------------------------------- Iteration      1(   3)  ---------------------------------------


     EDDAV:  cpu time   54.2829: real time   54.4197
 BZINTS: Fermi energy:  4.075055;782.000000 electrons
         Band energy: 180.392898;  BLOECHL correction: -0.074392
       DOS:  cpu time    0.0229: real time    0.0231
    --------------------------------------------
      LOOP:  cpu time   54.3058: real time   54.4428

 eigenvalue-minimisations  : 10128
 total energy-change (2. order) :-0.1004628E+04  (-0.8493021E+03)
 number of electron     782.0000000 magnetization     217.0000000
 augmentation part      782.0000000 magnetization     217.0000000

 Free energy of the ion-electron system (eV)
  ---------------------------------------------------
  alpha Z        PSCENC =      2403.21136664
  Ewald energy   TEWEN  =    208152.02044188
  -Hartree energ DENC   =   -278813.08443566
  -exchange      EXHF   =         0.00000000
  -V(xc)+E(xc)   XCENC  =      1157.96648633
  PAW double counting   =     62151.42609927   -63176.80815837
  entropy T*S    EENTRO =         0.00000000
  eigenvalues    EBANDS =       180.39289806
  atomic energy  EATOM  =     67507.56188773
  Solvation  Ediel_sol  =         0.00000000
  ---------------------------------------------------
  free energy    TOTEN  =      -437.31341411 eV

  energy without entropy =     -437.31341411  energy(sigma->0) =     -437.31341411


--------------------------------------------------------------------------------------------------------




--------------------------------------- Iteration      1(   4)  ---------------------------------------


     EDDAV:  cpu time   63.1932: real time   63.3986
 BZINTS: Fermi energy:  3.974964;782.000000 electrons
         Band energy: 125.598264;  BLOECHL correction: -0.052157
       DOS:  cpu time    0.0251: real time    0.0489
    --------------------------------------------
      LOOP:  cpu time   63.2183: real time   63.4476

 eigenvalue-minimisations  : 12240
 total energy-change (2. order) :-0.5479463E+02  (-0.5309517E+02)
 number of electron     782.0000000 magnetization     217.0000000
 augmentation part      782.0000000 magnetization     217.0000000

 Free energy of the ion-electron system (eV)
  ---------------------------------------------------
  alpha Z        PSCENC =      2403.21136664
  Ewald energy   TEWEN  =    208152.02044188
  -Hartree energ DENC   =   -278813.08443566
  -exchange      EXHF   =         0.00000000
  -V(xc)+E(xc)   XCENC  =      1157.96648633
  PAW double counting   =     62151.42609927   -63176.80815837
  entropy T*S    EENTRO =         0.00000000
  eigenvalues    EBANDS =       125.59826393
  atomic energy  EATOM  =     67507.56188773
  Solvation  Ediel_sol  =         0.00000000
  ---------------------------------------------------
  free energy    TOTEN  =      -492.10804824 eV

  energy without entropy =     -492.10804824  energy(sigma->0) =     -492.10804824


--------------------------------------------------------------------------------------------------------




--------------------------------------- Iteration      1(   5)  ---------------------------------------


     EDDAV:  cpu time   67.1903: real time   67.3854
 BZINTS: Fermi energy:  3.970624;782.000000 electrons
         Band energy: 123.605974;  BLOECHL correction: -0.050954
       DOS:  cpu time    0.0241: real time    0.0242
    CHARGE:  cpu time    2.4973: real time    2.5035
    MIXING:  cpu time    0.0127: real time    0.0128
    --------------------------------------------
      LOOP:  cpu time   69.7244: real time   69.9260

 eigenvalue-minimisations  : 13200
 total energy-change (2. order) :-0.1992290E+01  (-0.1989337E+01)
 number of electron     782.0000015 magnetization     202.7826374
 augmentation part      311.7408274 magnetization     172.3826091

 Broyden mixing:
  rms(total) = 0.12469E+02    rms(broyden)= 0.12469E+02
  rms(prec ) = 0.12775E+02
  weight for this iteration     100.00

 Free energy of the ion-electron system (eV)
  ---------------------------------------------------
  alpha Z        PSCENC =      2403.21136664
  Ewald energy   TEWEN  =    208152.02044188
  -Hartree energ DENC   =   -278813.08443566
  -exchange      EXHF   =         0.00000000
  -V(xc)+E(xc)   XCENC  =      1157.96648633
  PAW double counting   =     62151.42609927   -63176.80815837
  entropy T*S    EENTRO =         0.00000000
  eigenvalues    EBANDS =       123.60597409
  atomic energy  EATOM  =     67507.56188773
  Solvation  Ediel_sol  =         0.00000000
  ---------------------------------------------------
  free energy    TOTEN  =      -494.10033809 eV

  energy without entropy =     -494.10033809  energy(sigma->0) =     -494.10033809


--------------------------------------------------------------------------------------------------------




--------------------------------------- Iteration      1(   6)  ---------------------------------------


    POTLOK:  cpu time    0.3755: real time    0.3781
    SETDIJ:  cpu time    0.0321: real time    0.0321
    EDDIAG:  cpu time    9.0016: real time    9.0243
  RMM-DIIS:  cpu time   34.9446: real time   35.0537
    ORTHCH:  cpu time    1.4433: real time    1.4470
 BZINTS: Fermi energy:  2.673707;782.000000 electrons
         Band energy:***********;  BLOECHL correction: -0.015914
       DOS:  cpu time    0.0272: real time    0.0273
    CHARGE:  cpu time    2.4565: real time    2.4627
    MIXING:  cpu time    0.0101: real time    0.0113
    --------------------------------------------
      LOOP:  cpu time   48.2909: real time   48.4365

 eigenvalue-minimisations  : 10227
 total energy-change (2. order) :-0.2396843E+03  (-0.8072588E+02)
 number of electron     782.0000021 magnetization     199.0458031
 augmentation part      372.7370770 magnetization     168.1976714

 Broyden mixing:
  rms(total) = 0.20328E+02    rms(broyden)= 0.20328E+02
  rms(prec ) = 0.27269E+02
  weight for this iteration     100.00

 eigenvalues of (default mixing * dielectric matrix)
  average eigenvalue GAMMA=   0.2234
  0.2234

 Free energy of the ion-electron system (eV)
  ---------------------------------------------------
  alpha Z        PSCENC =      2403.21136664
  Ewald energy   TEWEN  =    208152.02044188
  -Hartree energ DENC   =   -277261.30779632
  -exchange      EXHF   =         0.00000000
  -V(xc)+E(xc)   XCENC  =      1121.77531324
  PAW double counting   =     68063.53718389   -68929.07671077
  entropy T*S    EENTRO =         0.00000000
  eigenvalues    EBANDS =     -1791.50629271
  atomic energy  EATOM  =     67507.56188773
  Solvation  Ediel_sol  =         0.00000000
  ---------------------------------------------------
  free energy    TOTEN  =      -733.78460641 eV

  energy without entropy =     -733.78460641  energy(sigma->0) =     -733.78460641


--------------------------------------------------------------------------------------------------------




--------------------------------------- Iteration      1(   7)  ---------------------------------------


    POTLOK:  cpu time    0.3669: real time    0.3700
    SETDIJ:  cpu time    0.0319: real time    0.0319
    EDDIAG:  cpu time    8.9872: real time    9.0196
  RMM-DIIS:  cpu time   34.0936: real time   34.1833
    ORTHCH:  cpu time    1.4459: real time    1.4500
 BZINTS: Fermi energy:  3.811999;782.000000 electrons
         Band energy:-864.121019;  BLOECHL correction: -0.002127
       DOS:  cpu time    0.0260: real time    0.0261
    CHARGE:  cpu time    2.4547: real time    2.4609
    MIXING:  cpu time    0.0103: real time    0.0105
    --------------------------------------------
      LOOP:  cpu time   47.4165: real time   47.5524

 eigenvalue-minimisations  : 10003
 total energy-change (2. order) : 0.1726675E+03  (-0.1350703E+02)
 number of electron     782.0000016 magnetization     193.6880022
 augmentation part      338.0701348 magnetization     154.6831112

 Broyden mixing:
  rms(total) = 0.15525E+02    rms(broyden)= 0.15525E+02
  rms(prec ) = 0.20809E+02
  weight for this iteration     100.00

 eigenvalues of (default mixing * dielectric matrix)
  average eigenvalue GAMMA=   0.2816
  0.4139  0.1492

 Free energy of the ion-electron system (eV)
  ---------------------------------------------------
  alpha Z        PSCENC =      2403.21136664
  Ewald energy   TEWEN  =    208152.02044188
  -Hartree energ DENC   =   -277888.28443521
  -exchange      EXHF   =         0.00000000
  -V(xc)+E(xc)   XCENC  =      1138.58291266
  PAW double counting   =     69137.27221004   -70147.36050023
  entropy T*S    EENTRO =         0.00000000
  eigenvalues    EBANDS =      -864.12101863
  atomic energy  EATOM  =     67507.56188773
  Solvation  Ediel_sol  =         0.00000000
  ---------------------------------------------------
  free energy    TOTEN  =      -561.11713512 eV

  energy without entropy =     -561.11713512  energy(sigma->0) =     -561.11713512


--------------------------------------------------------------------------------------------------------




--------------------------------------- Iteration      1(   8)  ---------------------------------------


    POTLOK:  cpu time    0.3687: real time    0.3713
    SETDIJ:  cpu time    0.0321: real time    0.0321
    EDDIAG:  cpu time    9.0068: real time    9.0306
  RMM-DIIS:  cpu time   33.9970: real time   34.1012
    ORTHCH:  cpu time    1.4464: real time    1.4521
 BZINTS: Fermi energy:  3.180261;782.000000 electrons
         Band energy:-351.492833;  BLOECHL correction: -0.024429
       DOS:  cpu time    0.0242: real time    0.0243
    CHARGE:  cpu time    2.4557: real time    2.4618
    MIXING:  cpu time    0.0111: real time    0.0114
    --------------------------------------------
      LOOP:  cpu time   47.3419: real time   47.4849

 eigenvalue-minimisations  : 10006
 total energy-change (2. order) : 0.9600283E+02  (-0.8772922E+01)
[...]
      4.982628  7.814221  0.650337            0           0           0  
      3.669646  5.596209  0.612247            0           0           0  
      7.579688  1.938875  2.735304            0           0           0  
      8.838755  8.623691  2.695591            0           0           0  
      2.230602  3.411877  0.708775            0           0           0  
     10.123894  1.908403  2.712351            0           0           0  
     12.719051  4.860790  4.977551            0           0           0  
      8.847306  5.631798  7.164473            0           0           0  
      3.611159  1.030107  0.715746            0           0           0  
      8.962440  5.550174  0.783586            0           0           0  
      4.990107  3.393744  0.709460            0           0           0  
     11.356853  8.542558  2.741032            0           0           0  
     11.419743  7.116638  4.853119            0           0           0  
      8.870541  4.077644  2.725148            0           0           0  
      7.582432  7.835923  7.047205            0           0           0  
      7.583454  7.864267  0.687861            0           0           0  
     10.179788  6.397321  2.731078            0           0           0  
      2.311270  0.278106  4.970300            0           0           0  
      7.570547  3.397055  0.649230            0           0           0  
      4.941864  1.823953  2.784592            0           0           0  
      4.933777  6.343521  2.773920            0           0           0  
     10.086185  7.812764  7.095009            0           0           0  
      8.861426  1.092418  0.604729            0           0           0  
     10.141670  7.810971  0.645866            0           0           0  
      4.909237  4.847227  4.901839            0           0           0  
     14.056726  8.675881  2.684563            0           0           0  
      8.832903  2.589890  4.859003            0           0           0  
      6.184535  2.605925  4.851696            0           0           0  
     11.424000  4.064340  2.728447            0           0           0  
      2.342315  1.830083  2.729215            0           0           0  
     11.414307  5.560394  0.710474            0           0           0  
      6.189591  5.580463  0.740954            0           0           0  
      6.258266  4.024923  2.703874            0           0           0  
     10.134962  3.370110  7.052245            0           0           0  
     10.136941  3.379254  0.738921            0           0           0  
     10.112477  0.340119  4.852238            0           0           0  
      8.831820  7.102214  4.978755            0           0           0  
      1.615941  0.611527 10.977683    -0.083789   -0.103387    0.991106  
 
   2 f  =   23.718024 THz   149.024742 2PiTHz  791.148107 cm-1    98.089899 meV
             X         Y         Z           dx          dy          dz
     12.693479  7.855546  7.116177            0           0           0  
      4.980292  7.864878  7.211196            0           0           0  
      3.600820  5.591114  7.181910            0           0           0  
      2.245028  3.314553  7.206554            0           0           0  
      3.586967  0.985443  7.123844            0           0           0  
      4.929745  3.337234  7.122449            0           0           0  
     12.731512  6.386202  2.690597            0           0           0  
     14.120300  8.630666  9.538838            0           0           0  
      3.659842  4.094251  9.599469            0           0           0  
      6.276762  8.632323  9.682585            0           0           0  
     11.508936  4.097962  9.576185            0           0           0  
      8.894281  8.619332  9.426783            0           0           0  
     10.212438  1.854316  9.357044            0           0           0  
      2.356902  1.841977  9.979320            0           0           0  
     11.508124  8.627564  9.523000            0           0           0  
     12.815387  6.372224  9.573851            0           0           0  
      4.961858  1.827692  9.514942            0           0           0  
      7.602340  6.387713  9.441747            0           0           0  
      8.919226  4.117269  9.402244            0           0           0  
      4.981442  6.371208  9.706444            0           0           0  
      7.589937  1.843304  9.507824            0           0           0  
      7.606177  3.371620  7.077226            0           0           0  
      6.213270  1.054552  7.080397            0           0           0  
      6.252151  1.069120  0.712476            0           0           0  
      3.629947  4.060530  2.703952            0           0           0  
      0.992370  1.052488  7.035701            0           0           0  
      1.009994  1.144150  0.595390            0           0           0  
      6.209486  8.689384  2.763651            0           0           0  
      6.279619  4.114242  9.529757            0           0           0  
      7.513452  4.796155  4.848780            0           0           0  
     10.194829  6.370446  9.583183            0           0           0  
     14.020167  7.090550  4.919448            0           0           0  
     11.348275  5.605753  7.108591            0           0           0  
      6.301834  5.626392  7.140114            0           0           0  
      7.608368  6.338105  2.701617            0           0           0  
      3.570795  2.579196  4.901762            0           0           0  
     10.156428  4.936169  4.822298            0           0           0  
      6.255588  7.172819  4.925673            0           0           0  
      4.835716  0.206390  4.815478            0           0           0  
      7.507131  0.386266  4.739423            0           0           0  
      8.853409  1.093881  7.024987            0           0           0  
     11.380678  2.548167  4.803738            0           0           0  
     12.770488  7.830531  0.633320            0           0           0  
      4.982628  7.814221  0.650337            0           0           0  
      3.669646  5.596209  0.612247            0           0           0  
      7.579688  1.938875  2.735304            0           0           0  
      8.838755  8.623691  2.695591            0           0           0  
      2.230602  3.411877  0.708775            0           0           0  
     10.123894  1.908403  2.712351            0           0           0  
     12.719051  4.860790  4.977551            0           0           0  
      8.847306  5.631798  7.164473            0           0           0  
      3.611159  1.030107  0.715746            0           0           0  
      8.962440  5.550174  0.783586            0           0           0  
      4.990107  3.393744  0.709460            0           0           0  
     11.356853  8.542558  2.741032            0           0           0  
     11.419743  7.116638  4.853119            0           0           0  
      8.870541  4.077644  2.725148            0           0           0  
      7.582432  7.835923  7.047205            0           0           0  
      7.583454  7.864267  0.687861            0           0           0  
     10.179788  6.397321  2.731078            0           0           0  
      2.311270  0.278106  4.970300            0           0           0  
      7.570547  3.397055  0.649230            0           0           0  
      4.941864  1.823953  2.784592            0           0           0  
      4.933777  6.343521  2.773920            0           0           0  
     10.086185  7.812764  7.095009            0           0           0  
      8.861426  1.092418  0.604729            0           0           0  
     10.141670  7.810971  0.645866            0           0           0  
      4.909237  4.847227  4.901839            0           0           0  
     14.056726  8.675881  2.684563            0           0           0  
      8.832903  2.589890  4.859003            0           0           0  
      6.184535  2.605925  4.851696            0           0           0  
     11.424000  4.064340  2.728447            0           0           0  
      2.342315  1.830083  2.729215            0           0           0  
     11.414307  5.560394  0.710474            0           0           0  
      6.189591  5.580463  0.740954            0           0           0  
      6.258266  4.024923  2.703874            0           0           0  
     10.134962  3.370110  7.052245            0           0           0  
     10.136941  3.379254  0.738921            0           0           0  
     10.112477  0.340119  4.852238            0           0           0  
      8.831820  7.102214  4.978755            0           0           0  
      1.615941  0.611527 10.977683     0.527513    0.839208    0.132138  
 
   3 f  =   12.560386 THz    78.919231 2PiTHz  418.969359 cm-1    51.945599 meV
             X         Y         Z           dx          dy          dz
     12.693479  7.855546  7.116177            0           0           0  
      4.980292  7.864878  7.211196            0           0           0  
      3.600820  5.591114  7.181910            0           0           0  
      2.245028  3.314553  7.206554            0           0           0  
      3.586967  0.985443  7.123844            0           0           0  
      4.929745  3.337234  7.122449            0           0           0  
     12.731512  6.386202  2.690597            0           0           0  
     14.120300  8.630666  9.538838            0           0           0  
      3.659842  4.094251  9.599469            0           0           0  
      6.276762  8.632323  9.682585            0           0           0  
     11.508936  4.097962  9.576185            0           0           0  
      8.894281  8.619332  9.426783            0           0           0  
     10.212438  1.854316  9.357044            0           0           0  
      2.356902  1.841977  9.979320            0           0           0  
     11.508124  8.627564  9.523000            0           0           0  
     12.815387  6.372224  9.573851            0           0           0  
      4.961858  1.827692  9.514942            0           0           0  
      7.602340  6.387713  9.441747            0           0           0  
      8.919226  4.117269  9.402244            0           0           0  
      4.981442  6.371208  9.706444            0           0           0  
      7.589937  1.843304  9.507824            0           0           0  
      7.606177  3.371620  7.077226            0           0           0  
      6.213270  1.054552  7.080397            0           0           0  
      6.252151  1.069120  0.712476            0           0           0  
      3.629947  4.060530  2.703952            0           0           0  
      0.992370  1.052488  7.035701            0           0           0  
      1.009994  1.144150  0.595390            0           0           0  
      6.209486  8.689384  2.763651            0           0           0  
      6.279619  4.114242  9.529757            0           0           0  
      7.513452  4.796155  4.848780            0           0           0  
     10.194829  6.370446  9.583183            0           0           0  
     14.020167  7.090550  4.919448            0           0           0  
     11.348275  5.605753  7.108591            0           0           0  
      6.301834  5.626392  7.140114            0           0           0  
      7.608368  6.338105  2.701617            0           0           0  
      3.570795  2.579196  4.901762            0           0           0  
     10.156428  4.936169  4.822298            0           0           0  
      6.255588  7.172819  4.925673            0           0           0  
      4.835716  0.206390  4.815478            0           0           0  
      7.507131  0.386266  4.739423            0           0           0  
      8.853409  1.093881  7.024987            0           0           0  
     11.380678  2.548167  4.803738            0           0           0  
     12.770488  7.830531  0.633320            0           0           0  
      4.982628  7.814221  0.650337            0           0           0  
      3.669646  5.596209  0.612247            0           0           0  
      7.579688  1.938875  2.735304            0           0           0  
      8.838755  8.623691  2.695591            0           0           0  
      2.230602  3.411877  0.708775            0           0           0  
     10.123894  1.908403  2.712351            0           0           0  
     12.719051  4.860790  4.977551            0           0           0  
      8.847306  5.631798  7.164473            0           0           0  
      3.611159  1.030107  0.715746            0           0           0  
      8.962440  5.550174  0.783586            0           0           0  
      4.990107  3.393744  0.709460            0           0           0  
     11.356853  8.542558  2.741032            0           0           0  
     11.419743  7.116638  4.853119            0           0           0  
      8.870541  4.077644  2.725148            0           0           0  
      7.582432  7.835923  7.047205            0           0           0  
      7.583454  7.864267  0.687861            0           0           0  
     10.179788  6.397321  2.731078            0           0           0  
      2.311270  0.278106  4.970300            0           0           0  
      7.570547  3.397055  0.649230            0           0           0  
      4.941864  1.823953  2.784592            0           0           0  
      4.933777  6.343521  2.773920            0           0           0  
     10.086185  7.812764  7.095009            0           0           0  
      8.861426  1.092418  0.604729            0           0           0  
     10.141670  7.810971  0.645866            0           0           0  
      4.909237  4.847227  4.901839            0           0           0  
     14.056726  8.675881  2.684563            0           0           0  
      8.832903  2.589890  4.859003            0           0           0  
      6.184535  2.605925  4.851696            0           0           0  
     11.424000  4.064340  2.728447            0           0           0  
      2.342315  1.830083  2.729215            0           0           0  
     11.414307  5.560394  0.710474            0           0           0  
      6.189591  5.580463  0.740954            0           0           0  
      6.258266  4.024923  2.703874            0           0           0  
     10.134962  3.370110  7.052245            0           0           0  
     10.136941  3.379254  0.738921            0           0           0  
     10.112477  0.340119  4.852238            0           0           0  
      8.831820  7.102214  4.978755            0           0           0  
      1.615941  0.611527 10.977683     0.845405   -0.533893    0.015779  
 
 Finite differences POTIM=  1.500000000000000E-002
  LATTYP: Found a hexagonal cell.
 ALAT       =    10.4600000381
 C/A-ratio  =     2.1032504704
  
  Lattice vectors:
  
 A1 = (   5.2300000190,  -9.0586257566,   0.0000000000)
 A2 = ( -10.4600000381,   0.0000000000,   0.0000000000)
 A3 = (   0.0000000000,   0.0000000000, -22.0000000000)


Analysis of symmetry for initial positions (statically):
=====================================================================
 Subroutine PRICEL returns:
 Original cell was already a primitive cell.
 

 Routine SETGRP: Setting up the symmetry group for a 
 hexagonal supercell.


 Subroutine GETGRP returns: Found  1 space group operations
 (whereof  1 operations were pure point group operations)
 out of a pool of 24 trial point group operations.


The static configuration has the point symmetry C_1 .


Analysis of symmetry for dynamics (positions and initial velocities):
=====================================================================
 Subroutine PRICEL returns:
 Original cell was already a primitive cell.
 

 Routine SETGRP: Setting up the symmetry group for a 
 hexagonal supercell.


 Subroutine GETGRP returns: Found  1 space group operations
 (whereof  1 operations were pure point group operations)
 out of a pool of 24 trial point group operations.


The dynamic configuration has the point symmetry C_1 .


Analysis of constrained symmetry for selective dynamics:
=====================================================================
 Subroutine PRICEL returns:
 Original cell was already a primitive cell.
 

 Routine SETGRP: Setting up the symmetry group for a 
 hexagonal supercell.


 Subroutine GETGRP returns: Found  1 space group operations
 (whereof  1 operations were pure point group operations)
 out of a pool of 24 trial point group operations.


The constrained configuration has the point symmetry C_1 .


Analysis of structural, dynamic, and magnetic symmetry:
=====================================================================
 Subroutine PRICEL returns:
 Original cell was already a primitive cell.
 

 Routine SETGRP: Setting up the symmetry group for a 
 hexagonal supercell.


 Subroutine GETGRP returns: Found  1 space group operations
 (whereof  1 operations were pure point group operations)
 out of a pool of 24 trial point group operations.


The magnetic configuration has the point symmetry C_1 .


 Subroutine INISYM returns: Found  1 space group operations
 (whereof  1 operations are pure point group operations),
 and found     1 'primitive' translations

 
 KPOINTS: mesh auto                               

Automatic generation of k-mesh.
Space group operators:
 irot       det(A)        alpha          n_x          n_y          n_z        tau_x        tau_y        tau_z
    1     1.000000     0.000000     1.000000     0.000000     0.000000     0.000000     0.000000     0.000000
 
 Subroutine IBZKPT returns following result:
 ===========================================
 
 Found      4 irreducible k-points:
 
 Following reciprocal coordinates:
            Coordinates               Weight
  0.000000  0.000000  0.000000      1.000000
  0.500000 -0.000000  0.000000      1.000000
  0.000000  0.500000  0.000000      1.000000
  0.500000  0.500000  0.000000      1.000000
 
 Following cartesian coordinates:
            Coordinates               Weight
  0.000000  0.000000  0.000000      1.000000
  0.047801 -0.027598  0.000000      1.000000
  0.000000  0.055196  0.000000      1.000000
  0.047801  0.027598  0.000000      1.000000
 
 TETIRR: Found     12 inequivalent tetrahedra from       24
     LOOP+:  cpu time  472.9365: real time  478.4720
    4ORBIT:  cpu time    0.0000: real time    0.0000
 BZINTS: Fermi energy:  2.594530;782.000000 electrons
         Band energy:-396.332229;  BLOECHL correction: -0.149975

 total amount of memory used by VASP MPI-rank0   350516. kBytes
=======================================================================

   base      :      30000. kBytes
   nonlr-proj:      92271. kBytes
   fftplans  :      11305. kBytes
   grid      :     110428. kBytes
   one-center:       2519. kBytes
   wavefun   :     103993. kBytes
 
  
  
 General timing and accounting informations for this job:
 ========================================================
  
                  Total CPU time used (sec):     6947.167
                            User time (sec):     6919.338
                          System time (sec):       27.828
                         Elapsed time (sec):     7010.077
  
                   Maximum memory used (kb):      668300.
                   Average memory used (kb):           0.
  
                          Minor page faults:      2696236
                          Major page faults:          178
                 Voluntary context switches:         6751
