 vasp.5.4.4.18Apr17-6-g9f103f2a35 (build Nov 30 2020 22:55:02) complex          
  
 executed on             LinuxIFC date 2021.10.11  20:24:52
 running on   40 total cores
 distrk:  each k-point on   40 cores,    1 groups
 distr:  one band on NCORES_PER_BAND=   4 cores,   10 groups


--------------------------------------------------------------------------------------------------------


 INCAR:
 POTCAR:    PAW_PBE Pt 04Feb2005                  
 POTCAR:    PAW_PBE Fe 06Sep2000                  
 POTCAR:    PAW_PBE Co 02Aug2007                  
 POTCAR:    PAW_PBE Cu 22Jun2005                  
 POTCAR:    PAW_PBE Ni 02Aug2007                  
 POTCAR:    PAW_PBE Pt 04Feb2005                  
   VRHFIN =Pt: s1d9                                                             
   LEXCH  = PE                                                                  
   EATOM  =   729.1176 eV,   53.5886 Ry                                         
                                                                                
   TITEL  = PAW_PBE Pt 04Feb2005                                                
   LULTRA =        F    use ultrasoft PP ?                                      
   IUNSCR =        1    unscreen: 0-lin 1-nonlin 2-no                           
   RPACOR =    2.330    partial core radius                                     
   POMASS =  195.080; ZVAL   =   10.000    mass and valenz                      
   RCORE  =    2.600    outmost cutoff radius                                   
   RWIGS  =    2.750; RWIGS  =    1.455    wigner-seitz radius (au A)           
   ENMAX  =  230.283; ENMIN  =  172.712 eV                                      
   ICORE  =        3    local potential                                         
   LCOR   =        T    correct aug charges                                     
   LPAW   =        T    paw PP                                                  
   EAUG   =  358.966                                                            
   DEXC   =    0.000                                                            
   RMAX   =    2.658    core radius for proj-oper                               
   RAUG   =    1.300    factor for augmentation sphere                          
   RDEP   =    2.761    radius for radial grids                                 
   RDEPT  =    2.203    core radius for aug-charge                              
                                                                                
   Atomic configuration                                                         
   16 entries                                                                   
     n  l   j            E        occ.                                          
     1  0  0.50    -78401.1885   2.0000                                         
     2  0  0.50    -13770.7750   2.0000                                         
     2  1  1.50    -11931.0468   6.0000                                         
     3  0  0.50     -3234.7234   2.0000                                         
     3  1  1.50     -2699.2216   6.0000                                         
     3  2  2.50     -2119.5714  10.0000                                         
     4  0  0.50      -695.1528   2.0000                                         
     4  1  1.50      -519.6034   6.0000                                         
     4  2  2.50      -306.6786  10.0000                                         
     4  3  3.50       -70.1041  14.0000                                         
     5  0  0.50      -101.7747   2.0000                                         
     5  1  1.50       -55.9873   6.0000                                         
     5  2  2.50        -6.1423   9.0000                                         
     6  0  0.50        -5.6573   1.0000                                         
     6  1  1.50        -6.8029   0.0000                                         
     5  3  2.50        -1.3606   0.0000                                         
   Description                                                                  
     l       E           TYP  RCUT    TYP  RCUT                                 
     2     -6.1423404     23  2.500                                             
     2     -7.5029230     23  2.500                                             
     0     -5.6573207     23  2.500                                             
     0      0.7416693     23  2.500                                             
     1     -2.7211652     23  2.600                                             
     1     20.4087390     23  2.600                                             
     3     -1.3605826     23  2.500                                             
  local pseudopotential read in
  partial core-charges read in
  partial kinetic energy density read in
  atomic valenz-charges read in
  non local Contribution for L=           2  read in
    real space projection operators read in
  non local Contribution for L=           2  read in
    real space projection operators read in
  non local Contribution for L=           0  read in
    real space projection operators read in
  non local Contribution for L=           0  read in
    real space projection operators read in
  non local Contribution for L=           1  read in
    real space projection operators read in
  non local Contribution for L=           1  read in
    real space projection operators read in
    PAW grid and wavefunctions read in
 
   number of l-projection  operators is LMAX  =           6
   number of lm-projection operators is LMMAX =          18
 
 POTCAR:    PAW_PBE Fe 06Sep2000                  
   VRHFIN =Fe:  d7 s1                                                           
   LEXCH  = PE                                                                  
   EATOM  =   594.3153 eV,   43.6809 Ry                                         
                                                                                
   TITEL  = PAW_PBE Fe 06Sep2000                                                
   LULTRA =        F    use ultrasoft PP ?                                      
   IUNSCR =        1    unscreen: 0-lin 1-nonlin 2-no                           
   RPACOR =    2.000    partial core radius                                     
   POMASS =   55.847; ZVAL   =    8.000    mass and valenz                      
   RCORE  =    2.300    outmost cutoff radius                                   
   RWIGS  =    2.460; RWIGS  =    1.302    wigner-seitz radius (au A)           
   ENMAX  =  267.882; ENMIN  =  200.911 eV                                      
   RCLOC  =    1.701    cutoff for local pot                                    
   LCOR   =        T    correct aug charges                                     
   LPAW   =        T    paw PP                                                  
   EAUG   =  511.368                                                            
   DEXC   =    0.000                                                            
   RMAX   =    2.356    core radius for proj-oper                               
   RAUG   =    1.300    factor for augmentation sphere                          
   RDEP   =    2.442    radius for radial grids                                 
   RDEPT  =    1.890    core radius for aug-charge                              
                                                                                
   Atomic configuration                                                         
    9 entries                                                                   
     n  l   j            E        occ.                                          
     1  0  0.50     -6993.8440   2.0000                                         
     2  0  0.50      -814.6047   2.0000                                         
     2  1  1.50      -693.3689   6.0000                                         
     3  0  0.50       -89.4732   2.0000                                         
     3  1  1.50       -55.6373   6.0000                                         
     3  2  2.50        -3.8151   7.0000                                         
     4  0  0.50        -4.2551   1.0000                                         
     4  1  1.50        -3.4015   0.0000                                         
     4  3  2.50        -1.3606   0.0000                                         
   Description                                                                  
     l       E           TYP  RCUT    TYP  RCUT                                 
     2     -3.8151135     23  2.300                                             
     2     -5.1756961     23  2.300                                             
     0     -4.2550963     23  2.300                                             
     0      7.2035603     23  2.300                                             
     1     -2.7211652     23  2.300                                             
     1     18.4316424     23  2.300                                             
  local pseudopotential read in
  partial core-charges read in
  partial kinetic energy density read in
  atomic valenz-charges read in
  non local Contribution for L=           2  read in
    real space projection operators read in
  non local Contribution for L=           2  read in
    real space projection operators read in
  non local Contribution for L=           0  read in
    real space projection operators read in
  non local Contribution for L=           0  read in
    real space projection operators read in
  non local Contribution for L=           1  read in
    real space projection operators read in
  non local Contribution for L=           1  read in
    real space projection operators read in
    PAW grid and wavefunctions read in
 
   number of l-projection  operators is LMAX  =           6
   number of lm-projection operators is LMMAX =          18
 
 POTCAR:    PAW_PBE Co 02Aug2007                  
   VRHFIN =Co: d8 s1                                                            
   LEXCH  = PE                                                                  
   EATOM  =   813.3670 eV,   59.7808 Ry                                         
                                                                                
   TITEL  = PAW_PBE Co 02Aug2007                                                
   LULTRA =        F    use ultrasoft PP ?                                      
   IUNSCR =        1    unscreen: 0-lin 1-nonlin 2-no                           
   RPACOR =    2.000    partial core radius                                     
   POMASS =   58.933; ZVAL   =    9.000    mass and valenz                      
   RCORE  =    2.300    outmost cutoff radius                                   
   RWIGS  =    2.460; RWIGS  =    1.302    wigner-seitz radius (au A)           
   ENMAX  =  267.968; ENMIN  =  200.976 eV                                      
   RCLOC  =    1.203    cutoff for local pot                                    
   LCOR   =        T    correct aug charges                                     
   LPAW   =        T    paw PP                                                  
   EAUG   =  477.818                                                            
   DEXC   =    0.000                                                            
   RMAX   =    2.360    core radius for proj-oper                               
   RAUG   =    1.300    factor for augmentation sphere                          
   RDEP   =    2.393    radius for radial grids                                 
   RDEPT  =    1.864    core radius for aug-charge                              
                                                                                
   Atomic configuration                                                         
    9 entries                                                                   
     n  l   j            E        occ.                                          
     1  0  0.50     -7587.6674   2.0000                                         
     2  0  0.50      -893.6084   2.0000                                         
     2  1  1.50      -764.5805   6.0000                                         
     3  0  0.50       -97.5973   2.0000                                         
     3  1  1.50       -60.9648   6.0000                                         
     3  2  2.50        -4.2382   8.0000                                         
     4  0  0.50        -4.3746   1.0000                                         
     4  1  1.50        -4.0817   0.0000                                         
     4  3  2.50        -1.3606   0.0000                                         
   Description                                                                  
     l       E           TYP  RCUT    TYP  RCUT                                 
     2     -4.2382362     23  2.300                                             
     2     -5.5988188     23  2.300                                             
     0     -4.3745797     23  2.300                                             
     0      5.7660125     23  2.300                                             
     1     -2.7211652     23  2.300                                             
     1     16.9860234     23  2.300                                             
  local pseudopotential read in
  partial core-charges read in
  partial kinetic energy density read in
  atomic valenz-charges read in
  non local Contribution for L=           2  read in
    real space projection operators read in
  non local Contribution for L=           2  read in
    real space projection operators read in
  non local Contribution for L=           0  read in
    real space projection operators read in
  non local Contribution for L=           0  read in
    real space projection operators read in
  non local Contribution for L=           1  read in
    real space projection operators read in
  non local Contribution for L=           1  read in
    real space projection operators read in
    PAW grid and wavefunctions read in
 
   number of l-projection  operators is LMAX  =           6
   number of lm-projection operators is LMMAX =          18
 
 POTCAR:    PAW_PBE Cu 22Jun2005                  
   VRHFIN =Cu: d10 p1                                                           
   LEXCH  = PE                                                                  
   EATOM  =  1390.9808 eV,  102.2342 Ry                                         
                                                                                
   TITEL  = PAW_PBE Cu 22Jun2005                                                
   LULTRA =        F    use ultrasoft PP ?                                      
   IUNSCR =        1    unscreen: 0-lin 1-nonlin 2-no                           
   RPACOR =    2.000    partial core radius                                     
   POMASS =   63.546; ZVAL   =   11.000    mass and valenz                      
   RCORE  =    2.300    outmost cutoff radius                                   
   RWIGS  =    2.200; RWIGS  =    1.164    wigner-seitz radius (au A)           
   ENMAX  =  295.446; ENMIN  =  221.585 eV                                      
   ICORE  =        3    local potential                                         
   LCOR   =        T    correct aug charges                                     
   LPAW   =        T    paw PP                                                  
   EAUG   =  586.980                                                            
   DEXC   =    0.000                                                            
   RMAX   =    2.344    core radius for proj-oper                               
   RAUG   =    1.300    factor for augmentation sphere                          
   RDEP   =    2.302    radius for radial grids                                 
   RDEPT  =    1.771    core radius for aug-charge                              
                                                                                
   Atomic configuration                                                         
    9 entries                                                                   
     n  l   j            E        occ.                                          
     1  0  0.50     -8850.2468   2.0000                                         
     2  0  0.50     -1062.3498   2.0000                                         
     2  1  1.50      -916.8226   6.0000                                         
     3  0  0.50      -114.6929   2.0000                                         
     3  1  1.50       -72.1325   6.0000                                         
     3  2  2.50        -5.0394  10.0000                                         
     4  0  0.50        -4.6097   1.0000                                         
     4  1  0.50        -4.0817   0.0000                                         
     4  3  2.50        -1.3606   0.0000                                         
   Description                                                                  
     l       E           TYP  RCUT    TYP  RCUT                                 
     2     -5.0393973     23  2.200                                             
     2     10.8846608     23  2.200                                             
     0     -4.6097109     23  2.200                                             
     0      8.2520465     23  2.200                                             
     1     -2.7211652     23  2.200                                             
     1     21.7055443     23  2.200                                             
     3      2.7211652     23  2.300                                             
  local pseudopotential read in
  partial core-charges read in
  partial kinetic energy density read in
  atomic valenz-charges read in
  non local Contribution for L=           2  read in
    real space projection operators read in
  non local Contribution for L=           2  read in
    real space projection operators read in
  non local Contribution for L=           0  read in
    real space projection operators read in
  non local Contribution for L=           0  read in
    real space projection operators read in
  non local Contribution for L=           1  read in
    real space projection operators read in
  non local Contribution for L=           1  read in
    real space projection operators read in
    PAW grid and wavefunctions read in
 
   number of l-projection  operators is LMAX  =           6
   number of lm-projection operators is LMMAX =          18
 
 POTCAR:    PAW_PBE Ni 02Aug2007                  
   VRHFIN =Ni:                                                                  
   LEXCH  = PE                                                                  
   EATOM  =  1077.6739 eV,   79.2068 Ry                                         
                                                                                
   TITEL  = PAW_PBE Ni 02Aug2007                                                
   LULTRA =        F    use ultrasoft PP ?                                      
   IUNSCR =        1    unscreen: 0-lin 1-nonlin 2-no                           
   RPACOR =    2.000    partial core radius                                     
   POMASS =   58.690; ZVAL   =   10.000    mass and valenz                      
   RCORE  =    2.300    outmost cutoff radius                                   
   RWIGS  =    2.430; RWIGS  =    1.286    wigner-seitz radius (au A)           
   ENMAX  =  269.532; ENMIN  =  202.149 eV                                      
   RCLOC  =    1.201    cutoff for local pot                                    
   LCOR   =        T    correct aug charges                                     
   LPAW   =        T    paw PP                                                  
   EAUG   =  544.565                                                            
   DEXC   =    0.000                                                            
   RMAX   =    2.357    core radius for proj-oper                               
   RAUG   =    1.300    factor for augmentation sphere                          
   RDEP   =    2.390    radius for radial grids                                 
   RDEPT  =    1.838    core radius for aug-charge                              
                                                                                
   Atomic configuration                                                         
    9 entries                                                                   
     n  l   j            E        occ.                                          
     1  0  0.50     -8206.4253   2.0000                                         
     2  0  0.50      -976.1748   2.0000                                         
     2  1  1.50      -839.0571   6.0000                                         
     3  0  0.50      -105.9991   2.0000                                         
     3  1  1.50       -66.4603   6.0000                                         
     3  2  2.50        -4.6458   9.0000                                         
     4  0  0.50        -4.4926   1.0000                                         
     4  1  1.50        -4.0817   0.0000                                         
     4  3  2.50        -1.3606   0.0000                                         
   Description                                                                  
     l       E           TYP  RCUT    TYP  RCUT                                 
     2     -4.6457903     23  2.300                                             
     2     -6.0063729     23  2.300                                             
     0     -4.4925590     23  2.300                                             
     0      5.0102601     23  2.300                                             
     1     -2.7211652     23  2.300                                             
     1     16.5183231     23  2.300                                             
  local pseudopotential read in
  partial core-charges read in
  partial kinetic energy density read in
  atomic valenz-charges read in
  non local Contribution for L=           2  read in
    real space projection operators read in
  non local Contribution for L=           2  read in
    real space projection operators read in
  non local Contribution for L=           0  read in
    real space projection operators read in
  non local Contribution for L=           0  read in
    real space projection operators read in
  non local Contribution for L=           1  read in
    real space projection operators read in
  non local Contribution for L=           1  read in
    real space projection operators read in
    PAW grid and wavefunctions read in
 
   number of l-projection  operators is LMAX  =           6
   number of lm-projection operators is LMMAX =          18
 
 Optimization of the real space projectors (new method)

 maximal supplied QI-value         = 14.36
 optimisation between [QCUT,QGAM] = [ 11.92, 23.98] = [ 39.79,161.09] Ry 
 Optimized for a Real-space Cutoff    1.49 Angstroem

   l    n(q)    QCUT    max X(q) W(low)/X(q) W(high)/X(q)  e(spline) 
   2     10    11.920    66.195    0.79E-04    0.18E-03    0.24E-06
   2     10    11.920    64.643    0.81E-04    0.19E-03    0.24E-06
   0     11    11.920    95.520    0.28E-04    0.54E-04    0.18E-06
   0     11    11.920    63.403    0.27E-04    0.52E-04    0.17E-06
   1     10    11.920    19.961    0.18E-04    0.11E-03    0.23E-06
   1     10    11.920    13.289    0.25E-04    0.87E-04    0.19E-06
 Optimization of the real space projectors (new method)

 maximal supplied QI-value         = 16.25
 optimisation between [QCUT,QGAM] = [ 11.86, 23.89] = [ 39.41,159.82] Ry 
 Optimized for a Real-space Cutoff    1.49 Angstroem

   l    n(q)    QCUT    max X(q) W(low)/X(q) W(high)/X(q)  e(spline) 
   2     10    11.864    80.901    0.13E-03    0.23E-03    0.37E-06
   2     10    11.864    75.754    0.13E-03    0.23E-03    0.38E-06
   0     11    11.864    58.752    0.44E-04    0.11E-04    0.20E-06
   0     11    11.864    30.679    0.36E-04    0.10E-04    0.18E-06
   1     10    11.864    17.977    0.31E-04    0.45E-04    0.10E-06
   1     10    11.864    13.559    0.25E-04    0.37E-04    0.89E-07
 Optimization of the real space projectors (new method)

 maximal supplied QI-value         = 16.25
 optimisation between [QCUT,QGAM] = [ 11.86, 23.89] = [ 39.41,159.82] Ry 
 Optimized for a Real-space Cutoff    1.33 Angstroem

   l    n(q)    QCUT    max X(q) W(low)/X(q) W(high)/X(q)  e(spline) 
   2      9    11.864    65.824    0.22E-03    0.53E-03    0.26E-06
   2      9    11.864    61.429    0.22E-03    0.53E-03    0.26E-06
   0      9    11.864    56.174    0.21E-03    0.32E-04    0.15E-06
   0      9    11.864    31.263    0.19E-03    0.30E-04    0.14E-06
   1      9    11.864    19.828    0.63E-04    0.30E-03    0.16E-06
   1      9    11.864    15.139    0.49E-04    0.25E-03    0.13E-06
 Optimization of the real space projectors (new method)

 maximal supplied QI-value         = 16.25
 optimisation between [QCUT,QGAM] = [ 11.86, 23.89] = [ 39.41,159.82] Ry 
 Optimized for a Real-space Cutoff    1.49 Angstroem

   l    n(q)    QCUT    max X(q) W(low)/X(q) W(high)/X(q)  e(spline) 
   2     10    11.864     4.610    0.10E-03    0.20E-03    0.29E-06
   2     10    11.864     8.522    0.17E-03    0.33E-03    0.50E-06
   0     11    11.864    51.609    0.52E-04    0.55E-04    0.33E-06
   0     11    11.864    27.747    0.46E-04    0.52E-04    0.31E-06
   1     10    11.864    20.408    0.54E-04    0.25E-04    0.21E-06
   1     10    11.864    13.425    0.48E-04    0.22E-04    0.18E-06
 Optimization of the real space projectors (new method)

 maximal supplied QI-value         = 16.25
 optimisation between [QCUT,QGAM] = [ 11.86, 23.89] = [ 39.41,159.82] Ry 
 Optimized for a Real-space Cutoff    1.33 Angstroem

   l    n(q)    QCUT    max X(q) W(low)/X(q) W(high)/X(q)  e(spline) 
   2      9    11.864    60.317    0.21E-03    0.51E-03    0.25E-06
   2      9    11.864    55.921    0.21E-03    0.51E-03    0.26E-06
   0      9    11.864    51.690    0.22E-03    0.30E-04    0.17E-06
   0      9    11.864    30.015    0.20E-03    0.28E-04    0.15E-06
   1      9    11.864    18.849    0.76E-04    0.33E-03    0.17E-06
   1      9    11.864    14.624    0.60E-04    0.28E-03    0.15E-06
  PAW_PBE Pt 04Feb2005                  :
 energy of atom  1       EATOM= -729.1176
 kinetic energy error for atom=    0.0021 (will be added to EATOM!!)
  PAW_PBE Fe 06Sep2000                  :
 energy of atom  2       EATOM= -594.3153
 kinetic energy error for atom=    0.0024 (will be added to EATOM!!)
  PAW_PBE Co 02Aug2007                  :
 energy of atom  3       EATOM= -813.3670
 kinetic energy error for atom=    0.0026 (will be added to EATOM!!)
  PAW_PBE Cu 22Jun2005                  :
 energy of atom  4       EATOM=-1390.9808
 kinetic energy error for atom=    0.0036 (will be added to EATOM!!)
  PAW_PBE Ni 02Aug2007                  :
 energy of atom  5       EATOM=-1077.6739
 kinetic energy error for atom=    0.0027 (will be added to EATOM!!)
 
 
 POSCAR: 10.76                                   
  positions in direct lattice
  velocities in cartesian coordinates
 exchange correlation table for  LEXCH =        8
   RHO(1)=    0.500       N(1)  =     2000
   RHO(2)=  100.500       N(2)  =     4000
 


--------------------------------------------------------------------------------------------------------


 ion  position               nearest neighbor table
   1  0.786  0.880  0.316-  49 2.61  28 2.63  59 2.64  19 2.68  61 2.70  33 2.71  29 2.71  60 2.73
                            11 2.75   2 2.78   4 2.79  12 2.84
   2  0.042  0.882  0.314-  79 2.54  77 2.59  28 2.66  60 2.67  30 2.69  52 2.70  33 2.71  22 2.74
                             6 2.75   1 2.78   4 2.82  16 2.89
   3  0.279  0.381  0.318-  64 2.56  39 2.61  31 2.64  33 2.64  68 2.70  19 2.75  30 2.76  43 2.76
                             5 2.76  13 2.78  25 2.83  18 2.87
   4  0.874  0.963  0.420-   9 2.67  17 2.68   6 2.69  16 2.70  11 2.70  12 2.71  60 2.77   1 2.79
                             2 2.82
   5  0.120  0.463  0.424-  12 2.66   7 2.67  16 2.68  10 2.68  39 2.70  33 2.71  25 2.72  13 2.73
                             3 2.76
   6  0.125  0.961  0.419-   8 2.67  14 2.69   4 2.69  10 2.69   9 2.70  16 2.70  52 2.74   2 2.75
                            22 2.84
   7  0.874  0.460  0.423-  15 2.66  39 2.67   5 2.67   9 2.68  10 2.69  12 2.71  27 2.71  75 2.72
                            29 2.77
   8  0.374  0.960  0.418-  43 2.59  14 2.66  52 2.67   6 2.67  27 2.68  13 2.68  10 2.69  11 2.70
                            61 2.71
   9  0.873  0.211  0.418-   4 2.67  75 2.67   7 2.68  17 2.68  15 2.68   6 2.70  60 2.70  10 2.71
                            22 2.80
  10  0.125  0.212  0.419-  13 2.66  39 2.66   5 2.68   7 2.69   8 2.69   6 2.69  43 2.71   9 2.71
                            22 2.76
  11  0.624  0.961  0.421-  12 2.68  13 2.68  27 2.69  17 2.69   8 2.70   4 2.70   1 2.75  61 2.80
                            19 2.81
  12  0.873  0.711  0.423-   5 2.66  11 2.68  16 2.69  33 2.69  27 2.70   4 2.71   7 2.71  29 2.79
                             1 2.84
  13  0.374  0.209  0.421-  10 2.66   8 2.68  11 2.68  17 2.70  25 2.71   5 2.73  43 2.74   3 2.78
                            19 2.80
  14  0.375  0.713  0.421-  27 2.65   8 2.66  44 2.68   6 2.69  15 2.70  25 2.71  16 2.72  52 2.72
                            30 2.76
  15  0.625  0.462  0.420-   7 2.66  44 2.67  27 2.67   9 2.68  75 2.70  14 2.70  17 2.71  25 2.71
                            18 2.74
  16  0.123  0.711  0.423-  33 2.66   5 2.68  12 2.69  25 2.69   4 2.70   6 2.70  14 2.72  30 2.81
                             2 2.89
  17  0.624  0.210  0.419-   4 2.68   9 2.68  11 2.69  25 2.70  13 2.70  15 2.71  18 2.74  60 2.76
                            19 2.84
  18  0.548  0.376  0.316-  67 2.56  68 2.64  60 2.64  75 2.66  26 2.66  44 2.68  17 2.74  15 2.74
                            30 2.76  19 2.78  25 2.85   3 2.87
  19  0.534  0.125  0.314-  80 2.54  68 2.57  43 2.60  59 2.60   1 2.68  61 2.69   3 2.75  18 2.78
                            13 2.80  11 2.81  60 2.81  17 2.84
  20  0.548  0.123  0.044-  57 2.55  37 2.55  48 2.57  62 2.68  63 2.73  47 2.75  34 2.75  45 2.76
                            56 2.76
  21  0.119  0.460  0.129-  40 2.52  36 2.52  47 2.52  42 2.60  64 2.63  69 2.65  70 2.68  50 2.68
                            31 2.71  58 2.75  57 2.76  74 2.79
  22  0.044  0.136  0.313-  65 2.52  55 2.54  77 2.57  43 2.62  39 2.63  75 2.67  60 2.74   2 2.74
                            10 2.76  52 2.77   9 2.80   6 2.84  31 3.40
  23  0.041  0.131  0.035-  70 2.57  41 2.60  40 2.62  45 2.66  76 2.67  62 2.67  24 2.69  35 2.79
                            53 2.85
  24  0.131  0.958  0.133-  79 2.51  77 2.55  35 2.56  53 2.58  55 2.59  70 2.66  38 2.68  58 2.69
                            23 2.69  73 2.69  66 2.75  41 2.78
  25  0.374  0.462  0.423-  16 2.69  17 2.70  14 2.71  15 2.71  13 2.71   5 2.72  30 2.81   3 2.83
                            18 2.85
  26  0.455  0.547  0.219-  73 2.50  74 2.54  51 2.56  79 2.64  30 2.65  18 2.66  64 2.69  78 2.70
                            32 2.71  68 2.72  44 2.73  67 2.78
  27  0.622  0.712  0.421-  14 2.65  15 2.67   8 2.68  44 2.68  11 2.69  12 2.70   7 2.71  61 2.75
                            29 2.78
  28  0.956  0.787  0.221-  58 2.56  66 2.58  50 2.58  42 2.62   1 2.63  49 2.64   2 2.66  64 2.68
                            33 2.69  59 2.77  79 2.86  77 2.87
  29  0.795  0.623  0.318-  42 2.55  39 2.58  32 2.62  75 2.62  49 2.67  33 2.69   1 2.71  44 2.71
                            61 2.73   7 2.77  27 2.78  12 2.79
  30  0.290  0.631  0.317-  79 2.56  64 2.60  26 2.65  52 2.66  44 2.68   2 2.69  33 2.69  14 2.76
                             3 2.76  18 2.76  16 2.81  25 2.81
  31  0.201  0.279  0.225-  70 2.51  43 2.58  55 2.59  57 2.59  65 2.60   3 2.64  39 2.66  21 2.71
                            80 2.75  42 2.76  68 2.84  64 2.87  22 3.40
  32  0.705  0.551  0.221-  54 2.54  69 2.56  51 2.58  49 2.61  29 2.62  78 2.65  42 2.65  65 2.67
                            44 2.69  75 2.69  26 2.71  67 2.74
  33  0.040  0.632  0.324-   3 2.64  16 2.66  12 2.69  29 2.69  30 2.69  28 2.69  64 2.70  39 2.70
                             5 2.71   1 2.71   2 2.71  42 2.73
  34  0.795  0.861  0.046-  50 2.37  48 2.50  66 2.51  36 2.59  71 2.61  63 2.64  20 2.75  62 2.83
                            35 2.84
  35  0.058  0.864  0.041-  58 2.53  24 2.56  36 2.57  72 2.57  66 2.62  53 2.71  23 2.79  62 2.80
                            34 2.84
  36  0.046  0.632  0.040-  21 2.52  35 2.57  58 2.57  34 2.59  50 2.60  72 2.69  47 2.69  71 2.80
                            40 2.81
  37  0.628  0.225  0.130-  67 2.51  51 2.51  56 2.52  74 2.55  20 2.55  68 2.56  59 2.56  41 2.58
                            62 2.59  66 2.72  57 2.81  48 3.01
  38  0.383  0.954  0.131-  53 2.46  80 2.47  45 2.47  78 2.53  63 2.55  73 2.57  55 2.57  48 2.58
                            54 2.59  24 2.68  57 2.68  70 2.73
  39  0.035  0.384  0.323-  29 2.58   3 2.61  22 2.63  75 2.63  42 2.64  31 2.66  10 2.66   7 2.67
                            33 2.70   5 2.70  65 2.73  43 2.85
  40  0.026  0.381  0.040-  69 2.42  21 2.52  76 2.55  71 2.56  70 2.56  23 2.62  36 2.81  45 2.87
                            47 2.92
  41  0.872  0.215  0.130-  76 2.45  77 2.51  65 2.52  67 2.53  62 2.57  37 2.58  23 2.60  69 2.61
                            51 2.63  66 2.70  70 2.70  24 2.78
  42  0.955  0.544  0.224-  50 2.54  29 2.55  21 2.60  69 2.60  28 2.62  39 2.64  32 2.65  65 2.67
                            49 2.67  64 2.71  33 2.73  31 2.76
  43  0.297  0.116  0.320-  55 2.52  31 2.58  52 2.59   8 2.59  19 2.60  61 2.61  22 2.62  80 2.64
                            10 2.71  13 2.74   3 2.76  39 2.85
  44  0.541  0.629  0.321-  61 2.62  78 2.62  52 2.64  15 2.67  27 2.68  14 2.68  30 2.68  18 2.68
                            32 2.69  75 2.69  29 2.71  26 2.73
  45  0.295  0.116  0.043-  70 2.47  38 2.47  57 2.57  53 2.60  23 2.66  63 2.67  20 2.76  40 2.87
                            47 2.87
  46  0.550  0.625  0.046-  51 2.38  73 2.40  54 2.40  71 2.58  53 2.61  63 2.63  76 2.64  56 2.66
                            72 2.70
  47  0.297  0.382  0.042-  74 2.38  21 2.52  57 2.61  72 2.64  56 2.64  36 2.69  20 2.75  45 2.87
                            40 2.92
  48  0.625  0.947  0.134-  49 2.39  80 2.48  54 2.49  34 2.50  63 2.55  59 2.56  20 2.57  38 2.58
                            50 2.61  57 2.72  66 2.76  37 3.01
  49  0.707  0.793  0.220-  48 2.39  50 2.47  54 2.49  80 2.59   1 2.61  32 2.61  61 2.64  28 2.64
                            78 2.66  29 2.67  42 2.67  59 2.77
  50  0.864  0.703  0.130-  34 2.37  71 2.41  49 2.47  54 2.50  42 2.54  28 2.58  69 2.59  36 2.60
                            48 2.61  21 2.68  66 2.86
  51  0.627  0.459  0.128-  46 2.38  76 2.45  56 2.51  37 2.51  26 2.56  32 2.58  67 2.63  41 2.63
                            69 2.65  73 2.66  74 2.67  54 2.76
  52  0.297  0.875  0.318-  55 2.43  79 2.52  78 2.53  61 2.59  43 2.59  44 2.64  30 2.66   8 2.67
                             2 2.70  14 2.72   6 2.74  22 2.77
  53  0.307  0.869  0.043-  73 2.41  38 2.46  24 2.58  63 2.58  45 2.60  46 2.61  72 2.65  35 2.71
                            23 2.85
  54  0.626  0.716  0.129-  46 2.40  71 2.46  63 2.48  49 2.49  48 2.49  50 2.50  32 2.54  38 2.59
                            73 2.60  78 2.62  69 2.73  51 2.76
  55  0.226  0.027  0.228-  52 2.43  78 2.49  79 2.52  43 2.52  22 2.54  80 2.55  38 2.57  24 2.59
                            31 2.59  70 2.73  77 2.78  65 2.95
  56  0.542  0.382  0.037-  74 2.50  51 2.51  37 2.52  72 2.64  47 2.64  76 2.65  46 2.66  20 2.76
                            62 2.76
  57  0.377  0.206  0.134-  68 2.47  20 2.55  80 2.55  45 2.57  31 2.59  47 2.61  70 2.68  74 2.68
                            38 2.68  48 2.72  21 2.76  37 2.81
  58  0.139  0.705  0.134-  72 2.45  64 2.50  35 2.53  79 2.56  28 2.56  36 2.57  74 2.67  24 2.69
                            73 2.71  21 2.75
  59  0.704  0.051  0.220-  66 2.52  37 2.56  48 2.56  19 2.60  60 2.61  68 2.63   1 2.64  67 2.65
                            77 2.72  80 2.74  49 2.77  28 2.77
  60  0.793  0.130  0.316-  67 2.52  77 2.57  59 2.61  18 2.64   2 2.67   9 2.70  75 2.71   1 2.73
                            22 2.74  17 2.76   4 2.77  19 2.81
  61  0.538  0.873  0.317-  78 2.48  80 2.52  52 2.59  43 2.61  44 2.62  49 2.64  19 2.69   1 2.70
                             8 2.71  29 2.73  27 2.75  11 2.80
  62  0.796  0.123  0.038-  66 2.52  41 2.57  37 2.59  23 2.67  20 2.68  76 2.70  56 2.76  35 2.80
                            34 2.83
  63  0.545  0.871  0.038-  54 2.48  38 2.55  48 2.55  53 2.58  46 2.63  34 2.64  45 2.67  71 2.67
                            20 2.73
  64  0.208  0.542  0.224-  58 2.50   3 2.56  30 2.60  21 2.63  74 2.66  28 2.68  68 2.68  26 2.69
                            33 2.70  42 2.71  79 2.79  31 2.87
  65  0.950  0.299  0.222-  69 2.51  22 2.52  41 2.52  67 2.56  31 2.60  77 2.60  75 2.61  70 2.62
                            42 2.67  32 2.67  39 2.73  55 2.95
  66  0.872  0.965  0.131-  34 2.51  59 2.52  62 2.52  77 2.57  28 2.58  35 2.62  41 2.70  37 2.72
                            24 2.75  48 2.76  50 2.86
  67  0.716  0.291  0.224-  37 2.51  60 2.52  41 2.53  77 2.56  18 2.56  65 2.56  75 2.62  51 2.63
                            59 2.65  32 2.74  68 2.77  26 2.78
  68  0.457  0.293  0.221-  57 2.47  74 2.52  37 2.56  19 2.57  59 2.63  18 2.64  64 2.68   3 2.70
                            26 2.72  67 2.77  80 2.82  31 2.84
  69  0.875  0.457  0.129-  40 2.42  71 2.45  76 2.46  65 2.51  32 2.56  50 2.59  42 2.60  41 2.61
                            21 2.65  51 2.65  70 2.71  54 2.73
  70  0.127  0.207  0.130-  45 2.47  31 2.51  40 2.56  23 2.57  65 2.62  24 2.66  21 2.68  57 2.68
                            41 2.70  69 2.71  38 2.73  55 2.73
  71  0.791  0.621  0.042-  50 2.41  69 2.45  54 2.46  40 2.56  46 2.58  34 2.61  76 2.63  63 2.67
                            36 2.80
  72  0.298  0.627  0.045-  74 2.45  58 2.45  73 2.48  35 2.57  47 2.64  56 2.64  53 2.65  36 2.69
                            46 2.70
  73  0.386  0.713  0.130-  46 2.40  53 2.41  72 2.48  26 2.50  78 2.55  38 2.57  54 2.60  79 2.62
                            51 2.66  24 2.69  58 2.71  74 2.83
  74  0.382  0.452  0.128-  47 2.38  72 2.45  56 2.50  68 2.52  26 2.54  37 2.55  64 2.66  51 2.67
                            58 2.67  57 2.68  21 2.79  73 2.83
  75  0.792  0.381  0.320-  65 2.61  67 2.62  29 2.62  39 2.63  18 2.66   9 2.67  22 2.67  32 2.69
                            44 2.69  15 2.70  60 2.71   7 2.72
  76  0.791  0.377  0.042-  51 2.45  41 2.45  69 2.46  40 2.55  71 2.63  46 2.64  56 2.65  23 2.67
                            62 2.70
  77  0.955  0.054  0.222-  41 2.51  24 2.55  67 2.56  22 2.57  66 2.57  60 2.57   2 2.59  65 2.60
                            59 2.72  79 2.78  55 2.78  28 2.87
  78  0.459  0.796  0.225-  61 2.48  55 2.49  80 2.52  38 2.53  52 2.53  73 2.55  79 2.61  44 2.62
                            54 2.62  32 2.65  49 2.66  26 2.70
  79  0.216  0.798  0.225-  24 2.51  55 2.52  52 2.52   2 2.54  30 2.56  58 2.56  78 2.61  73 2.62
                            26 2.64  77 2.78  64 2.79  28 2.86
  80  0.462  0.029  0.223-  38 2.47  48 2.48  78 2.52  61 2.52  19 2.54  55 2.55  57 2.55  49 2.59
                            43 2.64  59 2.74  31 2.75  68 2.82
 
  LATTYP: Found a hexagonal cell.
 ALAT       =    10.7600002289
 C/A-ratio  =     2.0446096219
  
  Lattice vectors:
  
 A1 = (   5.3800001145,  -9.3184335429,   0.0000000000)
 A2 = ( -10.7600002289,   0.0000000000,   0.0000000000)
 A3 = (   0.0000000000,   0.0000000000, -22.0000000000)


Analysis of symmetry for initial positions (statically):
=====================================================================
 Subroutine PRICEL returns:
 Original cell was already a primitive cell.
 

 Routine SETGRP: Setting up the symmetry group for a 
 hexagonal supercell.


 Subroutine GETGRP returns: Found  1 space group operations
 (whereof  1 operations were pure point group operations)
 out of a pool of 24 trial point group operations.


The static configuration has the point symmetry C_1 .


Analysis of symmetry for dynamics (positions and initial velocities):
=====================================================================
 Subroutine PRICEL returns:
 Original cell was already a primitive cell.
 

 Routine SETGRP: Setting up the symmetry group for a 
 hexagonal supercell.


 Subroutine GETGRP returns: Found  1 space group operations
 (whereof  1 operations were pure point group operations)
 out of a pool of 24 trial point group operations.


The dynamic configuration has the point symmetry C_1 .


Analysis of structural, dynamic, and magnetic symmetry:
=====================================================================
 Subroutine PRICEL returns:
 Original cell was already a primitive cell.
 

 Routine SETGRP: Setting up the symmetry group for a 
 hexagonal supercell.


 Subroutine GETGRP returns: Found  1 space group operations
 (whereof  1 operations were pure point group operations)
 out of a pool of 24 trial point group operations.


The magnetic configuration has the point symmetry C_1 .


 Subroutine INISYM returns: Found  1 space group operations
 (whereof  1 operations are pure point group operations),
 and found     1 'primitive' translations

 
 
 KPOINTS: mesh auto                               

Automatic generation of k-mesh.
Space group operators:
 irot       det(A)        alpha          n_x          n_y          n_z        tau_x        tau_y        tau_z
    1     1.000000     0.000001     1.000000     0.000000     0.000000     0.000000     0.000000     0.000000
 
 Subroutine IBZKPT returns following result:
 ===========================================
 
 Found      4 irreducible k-points:
 
 Following reciprocal coordinates:
            Coordinates               Weight
  0.000000  0.000000  0.000000      1.000000
  0.500000  0.000000  0.000000      1.000000
  0.000000  0.500000  0.000000      1.000000
  0.500000  0.500000  0.000000      1.000000
 
 Following cartesian coordinates:
            Coordinates               Weight
  0.000000  0.000000  0.000000      1.000000
  0.046468 -0.026829  0.000000      1.000000
  0.000000  0.053657  0.000000      1.000000
  0.046468  0.026829  0.000000      1.000000
 


--------------------------------------------------------------------------------------------------------




 Dimension of arrays:
   k-points           NKPTS =      4   k-points in BZ     NKDIM =      4   number of bands    NBANDS=    590
   number of dos      NEDOS =    301   number of ions     NIONS =     80
   non local maximal  LDIM  =      6   non local SUM 2l+1 LMDIM =     18
   total plane-waves  NPLWV = ******
   max r-space proj   IRMAX =   7517   max aug-charges    IRDMAX=  32744
   dimension x,y,z NGX =    84 NGY =   84 NGZ =  168
   dimension x,y,z NGXF=   168 NGYF=  168 NGZF=  336
   support grid    NGXF=   168 NGYF=  168 NGZF=  336
   ions per type =              32  13  10  13  12
   NGX,Y,Z   is equivalent  to a cutoff of  12.98, 12.98, 12.70 a.u.
   NGXF,Y,Z  is equivalent  to a cutoff of  25.96, 25.96, 25.39 a.u.

 SYSTEM =  Pt111                                   
 POSCAR =  10.76                                   

 Startparameter for this run:
   NWRITE =      2    write-flag & timer
   PREC   = accura    normal or accurate (medium, high low for compatibility)
   ISTART =      0    job   : 0-new  1-cont  2-samecut
   ICHARG =      2    charge: 1-file 2-atom 10-const
   ISPIN  =      2    spin polarized calculation?
   LNONCOLLINEAR =      F non collinear calculations
   LSORBIT =      F    spin-orbit coupling
   INIWAV =      1    electr: 0-lowe 1-rand  2-diag
   LASPH  =      F    aspherical Exc in radial PAW
   METAGGA=      F    non-selfconsistent MetaGGA calc.

 Electronic Relaxation 1
   ENCUT  =  550.0 eV  40.42 Ry    6.36 a.u.  20.58 20.58 42.07*2*pi/ulx,y,z
   ENINI  =  550.0     initial cutoff
   ENAUG  =  587.0 eV  augmentation charge cutoff
   NELM   =    200;   NELMIN=  2; NELMDL= -5     # of ELM steps 
   EDIFF  = 0.1E-04   stopping-criterion for ELM
   LREAL  =      T    real-space projection
   NLSPLINE    = F    spline interpolate recip. space projectors
   LCOMPAT=      F    compatible to vasp.4.4
   GGA_COMPAT  = T    GGA compatible to vasp.4.4-vasp.4.6
   LMAXPAW     = -100 max onsite density
   LMAXMIX     =    2 max onsite mixed and CHGCAR
   VOSKOWN=      0    Vosko Wilk Nusair interpolation
   ROPT   =   -0.00025  -0.00025  -0.00025  -0.00025
   ROPT   =   -0.00025
 Ionic relaxation
   EDIFFG = -.5E-01   stopping-criterion for IOM
   NSW    =      0    number of steps for IOM
   NBLOCK =      1;   KBLOCK =      1    inner block; outer block 
   IBRION =     -1    ionic relax: 0-MD 1-quasi-New 2-CG
   NFREE  =      1    steps in history (QN), initial steepest desc. (CG)
   ISIF   =      2    stress and relaxation
   IWAVPR =     10    prediction:  0-non 1-charg 2-wave 3-comb
   ISYM   =      2    0-nonsym 1-usesym 2-fastsym
   LCORR  =      T    Harris-Foulkes like correction to forces

   POTIM  = 0.5000    time-step for ionic-motion
   TEIN   =    0.0    initial temperature
   TEBEG  =    0.0;   TEEND  =   0.0 temperature during run
   SMASS  =  -3.00    Nose mass-parameter (am)
   estimated Nose-frequenzy (Omega)   =  0.10E-29 period in steps =****** mass=  -0.265E-26a.u.
   SCALEE = 1.0000    scale energy and forces
   NPACO  =    256;   APACO  = 16.0  distance and # of slots for P.C.
   PSTRESS=    0.0 pullay stress

  Mass of Ions in am
   POMASS = 195.08 55.85 58.93 63.55 58.69
  Ionic Valenz
   ZVAL   =  10.00  8.00  9.00 11.00 10.00
  Atomic Wigner-Seitz radii
   RWIGS  =  -1.00 -1.00 -1.00 -1.00 -1.00
  virtual crystal weights 
   VCA    =   1.00  1.00  1.00  1.00  1.00
   NELECT =     777.0000    total number of electrons
   NUPDOWN=      -1.0000    fix difference up-down

 DOS related values:
   EMIN   =  10.00;   EMAX   =-10.00  energy-range for DOS
   EFERMI =   0.00
   ISMEAR =     1;   SIGMA  =   0.03  broadening in eV -4-tet -1-fermi 0-gaus

 Electronic relaxation 2 (details)
   IALGO  =     68    algorithm
   LDIAG  =      T    sub-space diagonalisation (order eigenvalues)
   LSUBROT=      F    optimize rotation matrix (better conditioning)
   TURBO    =      0    0=normal 1=particle mesh
   IRESTART =      0    0=no restart 2=restart with 2 vectors
   NREBOOT  =      0    no. of reboots
   NMIN     =      0    reboot dimension
   EREF     =   0.00    reference energy to select bands
   IMIX   =      4    mixing-type and parameters
     AMIX     =   0.40;   BMIX     =  1.00
     AMIX_MAG =   1.60;   BMIX_MAG =  1.00
     AMIN     =   0.10
     WC   =   100.;   INIMIX=   1;  MIXPRE=   1;  MAXMIX= -45

 Intra band minimization:
   WEIMIN = 0.0000     energy-eigenvalue tresh-hold
   EBREAK =  0.42E-08  absolut break condition
   DEPER  =   0.30     relativ break condition  

   TIME   =   0.40     timestep for ELM

  volume/ion in A,a.u.               =      27.57       186.07
  Fermi-wavevector in a.u.,A,eV,Ry     =   1.156172  2.184849 18.187374  1.336734
  Thomas-Fermi vector in A             =   2.292795
 
 Write flags
   LWAVE        =      F    write WAVECAR
   LDOWNSAMPLE  =      F    k-point downsampling of WAVECAR
   LCHARG       =      T    write CHGCAR
   LVTOT        =      F    write LOCPOT, total local potential
   LVHAR        =      F    write LOCPOT, Hartree potential only
   LELF         =      F    write electronic localiz. function (ELF)
   LORBIT       =      0    0 simple, 1 ext, 2 COOP (PROOUT), +10 PAW based schemes


 Dipole corrections
   LMONO  =      F    monopole corrections only (constant potential shift)
   LDIPOL =      F    correct potential (dipole corrections)
   IDIPOL =      0    1-x, 2-y, 3-z, 4-all directions 
   EPSILON=  1.0000000 bulk dielectric constant

 Exchange correlation treatment:
   GGA     =    --    GGA type
   LEXCH   =     8    internal setting for exchange type
   VOSKOWN=      0    Vosko Wilk Nusair interpolation
   LHFCALC =     F    Hartree Fock is set to
   LHFONE  =     F    Hartree Fock one center treatment
   AEXX    =    0.0000 exact exchange contribution

 Linear response parameters
   LEPSILON=     F    determine dielectric tensor
   LRPA    =     F    only Hartree local field effects (RPA)
   LNABLA  =     F    use nabla operator in PAW spheres
   LVEL    =     F    velocity operator in full k-point grid
   LINTERFAST=   F  fast interpolation
   KINTER  =     0    interpolate to denser k-point grid
   CSHIFT  =0.1000    complex shift for real part using Kramers Kronig
   OMEGAMAX=  -1.0    maximum frequency
   DEG_THRESHOLD= 0.2000000E-02 threshold for treating states as degnerate
   RTIME   =   -0.100 relaxation time in fs
  (WPLASMAI=    0.000 imaginary part of plasma frequency in eV, 0.658/RTIME)
   DFIELD  = 0.0000000 0.0000000 0.0000000 field for delta impulse in time
 
 Orbital magnetization related:
   ORBITALMAG=     F  switch on orbital magnetization
   LCHIMAG   =     F  perturbation theory with respect to B field
   DQ        =  0.001000  dq finite difference perturbation B field
   LLRAUG    =     F  two centre corrections for induced B field



--------------------------------------------------------------------------------------------------------


 Static calculation
 charge density and potential will be updated during run
 spin polarized calculation
 RMM-DIIS sequential band-by-band and
  variant of blocked Davidson during initial phase
 perform sub-space diagonalisation
    before iterative eigenvector-optimisation
 modified Broyden-mixing scheme, WC =      100.0
 initial mixing is a Kerker type mixing with AMIX =  0.4000 and BMIX =      1.0000
 Hartree-type preconditioning will be used
 using additional bands          201
 real space projection scheme for non local part
 use partial core corrections
 calculate Harris-corrections to forces 
   (improved forces if not selfconsistent)
 use gradient corrections 
 use of overlap-Matrix (Vanderbilt PP)
 Methfessel and Paxton  Order N= 1 SIGMA  =   0.03


--------------------------------------------------------------------------------------------------------


  energy-cutoff  :      550.00
  volume of cell :     2205.86
      direct lattice vectors                 reciprocal lattice vectors
    10.760000229  0.000000000  0.000000000     0.092936801 -0.053657087  0.000000000
     5.380000114  9.318433543  0.000000000     0.000000000  0.107314174  0.000000000
     0.000000000  0.000000000 22.000000000     0.000000000  0.000000000  0.045454545

  length of vectors
    10.760000229 10.760000229 22.000000000     0.107314174  0.107314174  0.045454545


 
 k-points in units of 2pi/SCALE and weight: mesh auto                               
   0.00000000  0.00000000  0.00000000       0.250
   0.04646840 -0.02682854  0.00000000       0.250
   0.00000000  0.05365709  0.00000000       0.250
   0.04646840  0.02682854  0.00000000       0.250
 
 k-points in reciprocal lattice and weights: mesh auto                               
   0.00000000  0.00000000  0.00000000       0.250
   0.50000000  0.00000000  0.00000000       0.250
   0.00000000  0.50000000  0.00000000       0.250
   0.50000000  0.50000000  0.00000000       0.250
 
 position of ions in fractional coordinates (direct lattice) 
   0.78563241  0.87982622  0.31581601
   0.04220596  0.88242110  0.31389534
   0.27888407  0.38094213  0.31790803
   0.87375738  0.96266223  0.42015789
   0.12013983  0.46346671  0.42407532
   0.12458016  0.96149607  0.41863679
   0.87383263  0.45950481  0.42317417
   0.37363264  0.96037938  0.41795179
   0.87321950  0.21120127  0.41765786
   0.12525833  0.21159317  0.41946833
   0.62403003  0.96063753  0.42063171
   0.87344639  0.71139432  0.42330299
   0.37387247  0.20937296  0.42135811
   0.37512195  0.71261815  0.42073322
   0.62533499  0.46181880  0.41986251
   0.12332952  0.71109096  0.42317721
   0.62435465  0.21048671  0.41918908
   0.54773484  0.37593367  0.31615000
   0.53350317  0.12509024  0.31370679
   0.54792673  0.12328922  0.04383544
   0.11934534  0.45972459  0.12874496
   0.04370998  0.13644468  0.31313749
   0.04080409  0.13114989  0.03536365
   0.13130448  0.95799902  0.13303643
   0.37353244  0.46155104  0.42274749
   0.45548595  0.54686581  0.21920607
   0.62216923  0.71155395  0.42096970
   0.95569127  0.78735065  0.22050316
   0.79521235  0.62321850  0.31815409
   0.29032901  0.63145295  0.31709095
   0.20123751  0.27885537  0.22539603
   0.70531330  0.55071706  0.22107616
   0.04041558  0.63198339  0.32368399
   0.79547831  0.86112383  0.04571520
   0.05752126  0.86417890  0.04095355
   0.04560842  0.63181793  0.04035269
   0.62783056  0.22534483  0.13048248
   0.38256550  0.95351772  0.13142638
   0.03510587  0.38415960  0.32290851
   0.02606154  0.38108859  0.04031026
   0.87237117  0.21512876  0.12980204
   0.95473355  0.54429733  0.22390732
   0.29685591  0.11584945  0.32011722
   0.54051415  0.62871094  0.32120471
   0.29497516  0.11635164  0.04266773
   0.54978575  0.62534505  0.04613061
   0.29695661  0.38236522  0.04225645
   0.62494582  0.94748125  0.13365829
   0.70737833  0.79257412  0.22040958
   0.86436375  0.70296060  0.12998592
   0.62697878  0.45925237  0.12844896
   0.29670875  0.87514999  0.31793019
   0.30717798  0.86850230  0.04269928
   0.62598466  0.71583948  0.12941889
   0.22636977  0.02657626  0.22776586
   0.54227868  0.38236495  0.03729113
   0.37702362  0.20555691  0.13422710
   0.13865409  0.70465584  0.13379824
   0.70443847  0.05100720  0.22039029
   0.79255089  0.12962031  0.31586801
   0.53833281  0.87300929  0.31658396
   0.79646401  0.12292985  0.03752709
   0.54537813  0.87134059  0.03811632
   0.20799686  0.54236125  0.22387311
   0.95025177  0.29885657  0.22184935
   0.87213940  0.96454459  0.13055765
   0.71606081  0.29079466  0.22408721
   0.45720633  0.29314346  0.22115087
   0.87466671  0.45688038  0.12942461
   0.12748153  0.20654114  0.12968723
   0.79120473  0.62110974  0.04224622
   0.29782181  0.62682596  0.04505060
   0.38631574  0.71285295  0.13020276
   0.38227049  0.45188866  0.12824332
   0.79234477  0.38117881  0.31984708
   0.79144401  0.37652223  0.04177987
   0.95541234  0.05424527  0.22153844
   0.45873218  0.79628882  0.22538547
   0.21584487  0.79782265  0.22481112
   0.46163445  0.02868030  0.22280218
 
 position of ions in cartesian coordinates  (Angst):
  13.18687012  8.19860219  6.94795216
   5.20156178  8.22278237  6.90569744
   5.05026137  3.54978392  6.99397659
  14.58075256  8.97050403  9.24347356
   3.78615559  4.31878376  9.32965704
   6.51333156  8.95963725  9.21000949
  11.87457520  4.28186505  9.30983170
   9.18712842  8.94923138  9.19493934
  10.53210492  1.96806504  9.18847282
   2.48615093  1.97171688  9.22830319
  11.88279333  8.95163696  9.25389752
  13.22558491  6.62908070  9.31266583
   5.14929446  1.95102803  9.26987846
   7.87019801  6.64048487  9.25613086
   9.21318980  4.30342776  9.23697520
   5.15269510  6.62625385  9.30989859
   7.85047466  1.96140638  9.22215979
   7.91615014  3.50311289  6.95530005
   6.41347974  1.16564509  6.90154946
   6.55898775  1.14886237  0.96437977
   3.75747418  4.28391300  2.83238908
   1.20439179  1.27145068  6.88902476
   1.14463842  1.22211154  0.77800032
   6.56687105  8.92705020  2.92680150
   6.50235383  4.30093270  9.30044473
   7.84316702  5.09593270  4.82253351
  10.52270137  6.63056818  9.26133332
  14.51918494  7.33687474  4.85106957
  11.90940065  5.80742021  6.99938991
   6.52115722  5.88415237  6.97600099
   3.66555757  2.59849521  4.95871257
  10.55202913  5.13182036  4.86367551
   3.83494238  5.88909521  7.12104783
  13.19219308  8.02432517  1.00573441
   5.26821132  8.05279369  0.90097800
   3.88992717  5.88755336  0.88775920
   7.96781219  2.09986084  2.87061459
   9.24633038  8.88529155  2.89138037
   2.44451785  3.57976567  7.10398719
   2.33067882  3.55114870  0.88682572
  10.54410677  2.00466306  2.85564487
  13.20125292  5.07199845  4.92596105
   3.81743971  1.07953537  7.04257879
   9.19839737  5.85860114  7.06650368
   3.79990464  1.08421507  0.93869010
   9.28005122  5.82723631  1.01487350
   5.25237804  3.56304485  0.92964181
  11.82186637  8.82904104  2.94048247
  11.87543982  7.38554930  4.84901070
  13.08248223  6.55049166  2.85969017
   9.21706959  4.27951266  2.82587719
   7.90089327  8.15502703  6.99446408
   7.97777754  8.09308092  0.93938418
  10.58681158  6.67050258  2.84721558
   2.57871913  0.24764915  5.01084896
   7.89204220  3.56304242  0.82040476
   5.16267047  1.91546844  2.95299618
   5.28296656  6.56628862  2.94356121
   7.85417690  0.47530725  4.84858632
   9.22520497  1.20785821  6.94909621
  10.48925130  8.13507909  6.96484717
   9.23131555  1.14551366  0.82559594
  10.55608126  8.11952937  0.83855902
   5.15594988  5.05395730  4.92520835
  11.83255762  2.78487505  4.88068561
  14.57347016  8.98804467  2.87226841
   9.26928977  2.70975073  4.92991863
   6.49665205  2.73163781  4.86531912
  11.86943045  4.25740942  2.84734150
   2.48289262  1.92463988  2.85311896
  11.85493352  5.78776983  0.92941673
   6.57688653  5.84103608  0.99111319
   7.99190642  6.64267286  2.86446066
   6.54439165  4.21089446  2.82135314
  10.57637197  3.55198944  7.03663572
  10.54162732  3.50859735  0.91915711
  10.57207652  0.50548096  4.87384564
   9.21999232  7.42016445  4.95848029
   6.61477676  7.43445734  4.94584463
   5.12148683  0.26725547  4.90164786
 


--------------------------------------------------------------------------------------------------------


 k-point  1 :   0.0000 0.0000 0.0000  plane waves:   64687
 k-point  2 :   0.5000 0.0000 0.0000  plane waves:   64612
 k-point  3 :   0.0000 0.5000 0.0000  plane waves:   64612
 k-point  4 :   0.5000 0.5000 0.0000  plane waves:   64612

 maximum and minimum number of plane-waves per node :     16191    16134

 maximum number of plane-waves:     64687
 maximum index in each direction: 
   IXMAX=   20   IYMAX=   20   IZMAX=   42
   IXMIN=  -21   IYMIN=  -21   IZMIN=  -42


 real space projection operators:
  total allocation   :      74820.66 KBytes
  max/ min on nodes  :      18712.27      18692.16


 parallel 3D FFT for wavefunctions:
    minimum data exchange during FFTs selected (reduces bandwidth)
 parallel 3D FFT for charge:
    minimum data exchange during FFTs selected (reduces bandwidth)


 total amount of memory used by VASP MPI-rank0   259846. kBytes
=======================================================================

   base      :      30000. kBytes
   nonlr-proj:      33230. kBytes
   fftplans  :      17970. kBytes
   grid      :      53265. kBytes
   one-center:        622. kBytes
   wavefun   :     124759. kBytes
 
     INWAV:  cpu time    0.0000: real time    0.0000
 Broyden mixing: mesh for mixing (old mesh)
   NGX = 41   NGY = 41   NGZ = 85
  (NGX  =168   NGY  =168   NGZ  =336)
  gives a total of 142885 points

 initial charge density was supplied:
 charge density of overlapping atoms calculated
 number of electron     777.0000000 magnetization     231.0000000
 keeping initial charge density in first step


--------------------------------------------------------------------------------------------------------


 Maximum index for non-local projection operator         1828
 Maximum index for augmentation-charges         2058 (set IRDMAX)


--------------------------------------------------------------------------------------------------------


 First call to EWALD:  gamma=   0.136
 Maximum number of real-space cells 4x 4x 2
 Maximum number of reciprocal cells 2x 2x 4

    FEWALD:  cpu time    0.0034: real time    0.0034


--------------------------------------- Iteration      1(   1)  ---------------------------------------


    POTLOK:  cpu time    0.4318: real time    0.4348
    SETDIJ:  cpu time    0.0314: real time    0.0319
     EDDAV:  cpu time   68.3765: real time   68.5706
       DOS:  cpu time    0.0016: real time    0.0016
    --------------------------------------------
      LOOP:  cpu time   68.8413: real time   69.0389

 eigenvalue-minimisations  :  9440
 total energy-change (2. order) : 0.7764088E+04  (-0.3280585E+05)
 number of electron     777.0000000 magnetization     231.0000000
 augmentation part      777.0000000 magnetization     231.0000000

 Free energy of the ion-electron system (eV)
  ---------------------------------------------------
  alpha Z        PSCENC =      2152.87571334
  Ewald energy   TEWEN  =    221766.30736418
  -Hartree energ DENC   =   -293773.52215273
  -exchange      EXHF   =         0.00000000
  -V(xc)+E(xc)   XCENC  =      1378.50229012
  PAW double counting   =     64134.66604118   -66036.56585687
  entropy T*S    EENTRO =        -0.00101031
  eigenvalues    EBANDS =      7935.65846942
  atomic energy  EATOM  =     70206.16701721
  Solvation  Ediel_sol  =         0.00000000
  ---------------------------------------------------
  free energy    TOTEN  =      7764.08787555 eV

  energy without entropy =     7764.08888586  energy(sigma->0) =     7764.08821232


--------------------------------------------------------------------------------------------------------




--------------------------------------- Iteration      1(   2)  ---------------------------------------


     EDDAV:  cpu time   68.1621: real time   68.3237
       DOS:  cpu time    0.0015: real time    0.0015
    --------------------------------------------
      LOOP:  cpu time   68.1636: real time   68.3252

 eigenvalue-minimisations  :  9440
 total energy-change (2. order) :-0.6951906E+04  (-0.6216944E+04)
 number of electron     777.0000000 magnetization     231.0000000
 augmentation part      777.0000000 magnetization     231.0000000

 Free energy of the ion-electron system (eV)
  ---------------------------------------------------
  alpha Z        PSCENC =      2152.87571334
  Ewald energy   TEWEN  =    221766.30736418
  -Hartree energ DENC   =   -293773.52215273
  -exchange      EXHF   =         0.00000000
  -V(xc)+E(xc)   XCENC  =      1378.50229012
  PAW double counting   =     64134.66604118   -66036.56585687
  entropy T*S    EENTRO =        -0.00048476
  eigenvalues    EBANDS =       983.75159655
  atomic energy  EATOM  =     70206.16701721
  Solvation  Ediel_sol  =         0.00000000
  ---------------------------------------------------
  free energy    TOTEN  =       812.18152822 eV

  energy without entropy =      812.18201299  energy(sigma->0) =      812.18168981


--------------------------------------------------------------------------------------------------------




--------------------------------------- Iteration      1(   3)  ---------------------------------------


     EDDAV:  cpu time   68.1355: real time   68.2980
       DOS:  cpu time    0.0016: real time    0.0016
    --------------------------------------------
      LOOP:  cpu time   68.1371: real time   68.2997

 eigenvalue-minimisations  :  9440
 total energy-change (2. order) :-0.1187361E+04  (-0.9617780E+03)
 number of electron     777.0000000 magnetization     231.0000000
 augmentation part      777.0000000 magnetization     231.0000000

 Free energy of the ion-electron system (eV)
  ---------------------------------------------------
  alpha Z        PSCENC =      2152.87571334
  Ewald energy   TEWEN  =    221766.30736418
  -Hartree energ DENC   =   -293773.52215273
  -exchange      EXHF   =         0.00000000
  -V(xc)+E(xc)   XCENC  =      1378.50229012
  PAW double counting   =     64134.66604118   -66036.56585687
  entropy T*S    EENTRO =        -0.00024863
  eigenvalues    EBANDS =      -203.60969368
  atomic energy  EATOM  =     70206.16701721
  Solvation  Ediel_sol  =         0.00000000
  ---------------------------------------------------
  free energy    TOTEN  =      -375.17952587 eV

  energy without entropy =     -375.17927724  energy(sigma->0) =     -375.17944300


--------------------------------------------------------------------------------------------------------




--------------------------------------- Iteration      1(   4)  ---------------------------------------


     EDDAV:  cpu time   81.4162: real time   81.6092
       DOS:  cpu time    0.0017: real time    0.0017
    --------------------------------------------
      LOOP:  cpu time   81.4179: real time   81.6109

 eigenvalue-minimisations  : 11850
 total energy-change (2. order) :-0.1143497E+03  (-0.1050568E+03)
 number of electron     777.0000000 magnetization     231.0000000
 augmentation part      777.0000000 magnetization     231.0000000

 Free energy of the ion-electron system (eV)
  ---------------------------------------------------
  alpha Z        PSCENC =      2152.87571334
  Ewald energy   TEWEN  =    221766.30736418
  -Hartree energ DENC   =   -293773.52215273
  -exchange      EXHF   =         0.00000000
  -V(xc)+E(xc)   XCENC  =      1378.50229012
  PAW double counting   =     64134.66604118   -66036.56585687
  entropy T*S    EENTRO =        -0.00270447
  eigenvalues    EBANDS =      -317.95688927
  atomic energy  EATOM  =     70206.16701721
  Solvation  Ediel_sol  =         0.00000000
  ---------------------------------------------------
  free energy    TOTEN  =      -489.52917730 eV

  energy without entropy =     -489.52647283  energy(sigma->0) =     -489.52827581


--------------------------------------------------------------------------------------------------------




--------------------------------------- Iteration      1(   5)  ---------------------------------------


     EDDAV:  cpu time   77.8061: real time   77.9904
       DOS:  cpu time    0.0017: real time    0.0017
    CHARGE:  cpu time    3.9689: real time    3.9785
    MIXING:  cpu time    0.0097: real time    0.0104
    --------------------------------------------
      LOOP:  cpu time   81.7865: real time   81.9811

 eigenvalue-minimisations  : 11200
 total energy-change (2. order) :-0.4256947E+01  (-0.4224549E+01)
 number of electron     776.9999973 magnetization     216.6217676
 augmentation part      335.1848251 magnetization     183.8528233

 Broyden mixing:
  rms(total) = 0.11514E+02    rms(broyden)= 0.11514E+02
  rms(prec ) = 0.11846E+02
  weight for this iteration     100.00

 Free energy of the ion-electron system (eV)
  ---------------------------------------------------
  alpha Z        PSCENC =      2152.87571334
  Ewald energy   TEWEN  =    221766.30736418
  -Hartree energ DENC   =   -293773.52215273
  -exchange      EXHF   =         0.00000000
  -V(xc)+E(xc)   XCENC  =      1378.50229012
  PAW double counting   =     64134.66604118   -66036.56585687
  entropy T*S    EENTRO =        -0.00295229
  eigenvalues    EBANDS =      -322.21358885
  atomic energy  EATOM  =     70206.16701721
  Solvation  Ediel_sol  =         0.00000000
  ---------------------------------------------------
  free energy    TOTEN  =      -493.78612471 eV

  energy without entropy =     -493.78317242  energy(sigma->0) =     -493.78514061


--------------------------------------------------------------------------------------------------------




--------------------------------------- Iteration      1(   6)  ---------------------------------------


    POTLOK:  cpu time    0.4188: real time    0.4198
    SETDIJ:  cpu time    0.0312: real time    0.0312
    EDDIAG:  cpu time   11.9849: real time   12.0140
  RMM-DIIS:  cpu time   47.5088: real time   47.6212
    ORTHCH:  cpu time    1.3758: real time    1.3792
       DOS:  cpu time    0.0015: real time    0.0015
    CHARGE:  cpu time    3.8823: real time    3.8916
    MIXING:  cpu time    0.0096: real time    0.0099
    --------------------------------------------
      LOOP:  cpu time   65.2130: real time   65.3684

 eigenvalue-minimisations  : 10889
 total energy-change (2. order) :-0.1837154E+03  (-0.9389070E+02)
 number of electron     776.9999954 magnetization     212.7075975
 augmentation part      406.7043304 magnetization     179.4118902

 Broyden mixing:
  rms(total) = 0.20084E+02    rms(broyden)= 0.20084E+02
  rms(prec ) = 0.26089E+02
  weight for this iteration     100.00

 eigenvalues of (default mixing * dielectric matrix)
  average eigenvalue GAMMA=   0.2135
  0.2135

 Free energy of the ion-electron system (eV)
  ---------------------------------------------------
  alpha Z        PSCENC =      2152.87571334
  Ewald energy   TEWEN  =    221766.30736418
  -Hartree energ DENC   =   -292175.36818482
  -exchange      EXHF   =         0.00000000
  -V(xc)+E(xc)   XCENC  =      1332.87296178
  PAW double counting   =     68813.50504699   -70501.70183140
  entropy T*S    EENTRO =         0.00387398
  eigenvalues    EBANDS =     -2272.16352179
  atomic energy  EATOM  =     70206.16701721
  Solvation  Ediel_sol  =         0.00000000
  ---------------------------------------------------
  free energy    TOTEN  =      -677.50156053 eV

  energy without entropy =     -677.50543451  energy(sigma->0) =     -677.50285186


--------------------------------------------------------------------------------------------------------




--------------------------------------- Iteration      1(   7)  ---------------------------------------


    POTLOK:  cpu time    0.4196: real time    0.4206
    SETDIJ:  cpu time    0.0314: real time    0.0314
    EDDIAG:  cpu time   11.9842: real time   12.0129
  RMM-DIIS:  cpu time   48.1696: real time   48.2906
    ORTHCH:  cpu time    1.3705: real time    1.3737
       DOS:  cpu time    0.0016: real time    0.0016
    CHARGE:  cpu time    3.9284: real time    3.9377
    MIXING:  cpu time    0.0104: real time    0.0104
    --------------------------------------------
      LOOP:  cpu time   65.9156: real time   66.0790

 eigenvalue-minimisations  : 11039
 total energy-change (2. order) : 0.1592165E+03  (-0.1607090E+02)
 number of electron     776.9999970 magnetization     207.9865679
 augmentation part      368.7251787 magnetization     164.5485017

 Broyden mixing:
  rms(total) = 0.14826E+02    rms(broyden)= 0.14826E+02
  rms(prec ) = 0.19863E+02
  weight for this iteration     100.00

 eigenvalues of (default mixing * dielectric matrix)
  average eigenvalue GAMMA=   0.2717
  0.3751  0.1683

 Free energy of the ion-electron system (eV)
  ---------------------------------------------------
  alpha Z        PSCENC =      2152.87571334
  Ewald energy   TEWEN  =    221766.30736418
  -Hartree energ DENC   =   -292838.66222056
  -exchange      EXHF   =         0.00000000
  -V(xc)+E(xc)   XCENC  =      1352.36849315
  PAW double counting   =     69809.75584676   -71653.46241737
  entropy T*S    EENTRO =        -0.00004340
  eigenvalues    EBANDS =     -1313.63478403
  atomic energy  EATOM  =     70206.16701721
  Solvation  Ediel_sol  =         0.00000000
  ---------------------------------------------------
  free energy    TOTEN  =      -518.28503072 eV

  energy without entropy =     -518.28498732  energy(sigma->0) =     -518.28501626


--------------------------------------------------------------------------------------------------------




--------------------------------------- Iteration      1(   8)  ---------------------------------------


    POTLOK:  cpu time    0.4090: real time    0.4100
    SETDIJ:  cpu time    0.0319: real time    0.0319
    EDDIAG:  cpu time   11.9868: real time   12.0155
  RMM-DIIS:  cpu time   47.9735: real time   48.0870
    ORTHCH:  cpu time    1.3768: real time    1.3802
       DOS:  cpu time    0.0016: real time    0.0017
    CHARGE:  cpu time    3.8864: real time    3.8958
    MIXING:  cpu time    0.0104: real time    0.0104
    --------------------------------------------
      LOOP:  cpu time   65.6765: real time   65.8324

 eigenvalue-minimisations  : 11037
 total energy-change (2. order) : 0.3760135E+02  (-0.1119073E+02)
 number of electron     776.9999973 magnetization     200.9404311
 augmentation part      372.9279547 magnetization     163.8906760

 Broyden mixing:
  rms(total) = 0.16412E+02    rms(broyden)= 0.16412E+02
  rms(prec ) = 0.19293E+02
  weight for this iteration     100.00

 eigenvalues of (default mixing * dielectric matrix)
  average eigenvalue GAMMA=   0.3074
  0.5815  0.2600  0.0808

 Free energy of the ion-electron system (eV)
  ---------------------------------------------------
  alpha Z        PSCENC =      2152.87571334
  Ewald energy   TEWEN  =    221766.30736418
  -Hartree energ DENC   =   -293090.85354477
  -exchange      EXHF   =         0.00000000
  -V(xc)+E(xc)   XCENC  =      1358.09331383
  PAW double counting   =     70998.55319848   -72914.18133148
  entropy T*S    EENTRO =         0.00032383
  eigenvalues    EBANDS =      -957.64573290
  atomic energy  EATOM  =     70206.16701721
  Solvation  Ediel_sol  =         0.00000000
  ---------------------------------------------------
  free energy    TOTEN  =      -480.68367827 eV

  energy without entropy =     -480.68400210  energy(sigma->0) =     -480.68378622


--------------------------------------------------------------------------------------------------------




--------------------------------------- Iteration      1(   9)  ---------------------------------------


    POTLOK:  cpu time    0.4007: real time    0.4017
    SETDIJ:  cpu time    0.0316: real time    0.0317
    EDDIAG:  cpu time   12.0206: real time   12.0493
  RMM-DIIS:  cpu time   47.5572: real time   47.6763
    ORTHCH:  cpu time    1.3753: real time    1.3787
       DOS:  cpu time    0.0016: real time    0.0016
    CHARGE:  cpu time    3.9982: real time    4.0081
    MIXING:  cpu time    0.0103: real time    0.0103
    --------------------------------------------
      LOOP:  cpu time   65.3956: real time   65.5577

 eigenvalue-minimisations  : 10903
 total energy-change (2. order) : 0.9872702E+02  (-0.1477539E+02)
 number of electron     776.9999967 magnetization     192.6259944
 augmentation part      375.4028579 magnetization     146.5177874

 Broyden mixing:
  rms(total) = 0.12155E+02    rms(broyden)= 0.12155E+02
  rms(prec ) = 0.13741E+02
  weight for this iteration     100.00

 eigenvalues of (default mixing * dielectric matrix)
  average eigenvalue GAMMA=   0.3633
  0.8804  0.3447  0.1287  0.0995

 Free energy of the ion-electron system (eV)
  ---------------------------------------------------
  alpha Z        PSCENC =      2152.87571334
  Ewald energy   TEWEN  =    221766.30736418
  -Hartree energ DENC   =   -292820.95354444
  -exchange      EXHF   =         0.00000000
  -V(xc)+E(xc)   XCENC  =      1374.89513350
  PAW double counting   =     72357.59219541   -74323.91738947
  entropy T*S    EENTRO =        -0.00126291
  eigenvalues    EBANDS =     -1094.92188400
  atomic energy  EATOM  =     70206.16701721
  Solvation  Ediel_sol  =         0.00000000
  ---------------------------------------------------
  free energy    TOTEN  =      -381.95665719 eV

  energy without entropy =     -381.95539427  energy(sigma->0) =     -381.95623622


--------------------------------------------------------------------------------------------------------




--------------------------------------- Iteration      1(  10)  ---------------------------------------


    POTLOK:  cpu time    0.4162: real time    0.4172
    SETDIJ:  cpu time    0.0317: real time    0.0318
    EDDIAG:  cpu time   12.0153: real time   12.0453
  RMM-DIIS:  cpu time   48.3983: real time   48.5198
    ORTHCH:  cpu time    1.3728: real time    1.3762
       DOS:  cpu time    0.0016: real time    0.0016
    CHARGE:  cpu time    3.9933: real time    4.0032
    MIXING:  cpu time    0.0109: real time    0.0109
    --------------------------------------------
      LOOP:  cpu time   66.2402: real time   66.4060

 eigenvalue-minimisations  : 11077
 total energy-change (2. order) :-0.2231775E+02  (-0.1326645E+02)
 number of electron     776.9999967 magnetization     183.8901140
 augmentation part      370.5306623 magnetization     138.8144265

 Broyden mixing:
  rms(total) = 0.13089E+02    rms(broyden)= 0.13089E+02
  rms(prec ) = 0.14783E+02
  weight for this iteration     100.00

 eigenvalues of (default mixing * dielectric matrix)
  average eigenvalue GAMMA=   0.3959
  1.1389  0.4499  0.1511  0.1511  0.0886

 Free energy of the ion-electron system (eV)
  ---------------------------------------------------
  alpha Z        PSCENC =      2152.87571334
  Ewald energy   TEWEN  =    221766.30736418
  -Hartree energ DENC   =   -293187.25698488
  -exchange      EXHF   =         0.00000000
  -V(xc)+E(xc)   XCENC  =      1371.90351655
  PAW double counting   =     73733.89167178   -75761.21813780
  entropy T*S    EENTRO =         0.00191060
  eigenvalues    EBANDS =      -686.94648159
  atomic energy  EATOM  =     70206.16701721
  Solvation  Ediel_sol  =         0.00000000
  ---------------------------------------------------
  free energy    TOTEN  =      -404.27441061 eV

  energy without entropy =     -404.27632121  energy(sigma->0) =     -404.27504748


--------------------------------------------------------------------------------------------------------




--------------------------------------- Iteration      1(  11)  ---------------------------------------


    POTLOK:  cpu time    0.4081: real time    0.4091
    SETDIJ:  cpu time    0.0317: real time    0.0317
    EDDIAG:  cpu time   11.9715: real time   12.0015
  RMM-DIIS:  cpu time   47.0634: real time   47.1828
    ORTHCH:  cpu time    1.3644: real time    1.3677
       DOS:  cpu time    0.0016: real time    0.0016
    CHARGE:  cpu time    3.9645: real time    3.9746
    MIXING:  cpu time    0.0123: real time    0.0123
    --------------------------------------------
      LOOP:  cpu time   64.8176: real time   64.9813

 eigenvalue-minimisations  : 10780
 total energy-change (2. order) : 0.1161172E+02  (-0.1118778E+02)
 number of electron     776.9999962 magnetization     178.9709335
 augmentation part      372.8109267 magnetization     133.1171584

 Broyden mixing:
  rms(total) = 0.12289E+02    rms(broyden)= 0.12289E+02
  rms(prec ) = 0.13724E+02
  weight for this iteration     100.00

 eigenvalues of (default mixing * dielectric matrix)
  average eigenvalue GAMMA=   0.3722
  1.2062  0.4728  0.1781  0.1781  0.0933  0.1047

 Free energy of the ion-electron system (eV)
  ---------------------------------------------------
  alpha Z        PSCENC =      2152.87571334
  Ewald energy   TEWEN  =    221766.30736418
  -Hartree energ DENC   =   -293057.05051740
  -exchange      EXHF   =         0.00000000
  -V(xc)+E(xc)   XCENC  =      1375.28158065
  PAW double counting   =     74762.81859513   -76802.52894573
  entropy T*S    EENTRO =        -0.00119826
  eigenvalues    EBANDS =      -796.53230049
  atomic energy  EATOM  =     70206.16701721
  Solvation  Ediel_sol  =         0.00000000
  ---------------------------------------------------
  free energy    TOTEN  =      -392.66269137 eV

  energy without entropy =     -392.66149311  energy(sigma->0) =     -392.66229195


--------------------------------------------------------------------------------------------------------




--------------------------------------- Iteration      1(  12)  ---------------------------------------


    POTLOK:  cpu time    0.4169: real time    0.4180
    SETDIJ:  cpu time    0.0314: real time    0.0315
    EDDIAG:  cpu time   11.9961: real time   12.0268
  RMM-DIIS:  cpu time   46.2926: real time   46.4020
    ORTHCH:  cpu time    1.3756: real time    1.3789
       DOS:  cpu time    0.0017: real time    0.0017
[...]
     5.380000114  9.318433543  0.000000000     0.000000000  0.107314174  0.000000000
     0.000000000  0.000000000 22.000000000     0.000000000  0.000000000  0.045454545

  length of vectors
    10.760000229 10.760000229 22.000000000     0.107314174  0.107314174  0.045454545


 FORCES acting on ions
    electron-ion (+dipol)            ewald-force                    non-local-force                 convergence-correction
 -----------------------------------------------------------------------------------------------
   -.404E+02 0.749E+02 -.147E+04   0.401E+02 -.751E+02 0.146E+04   0.349E+00 0.204E+00 0.214E+01   0.253E-03 -.143E-03 0.385E-03
   0.271E+02 0.602E+02 -.145E+04   -.267E+02 -.604E+02 0.145E+04   -.465E+00 0.180E+00 0.247E+01   -.345E-03 -.540E-03 -.572E-03
   0.382E+02 -.848E+01 -.150E+04   -.398E+02 0.871E+01 0.150E+04   0.170E+01 -.261E+00 0.200E+01   -.291E-03 0.219E-04 -.592E-03
   -.524E+01 0.280E+02 -.287E+04   0.543E+01 -.278E+02 0.287E+04   -.153E+00 -.237E+00 0.105E+01   -.694E-03 -.316E-04 -.998E-03
   -.137E+02 0.741E+01 -.286E+04   0.130E+02 -.700E+01 0.286E+04   0.614E+00 -.433E+00 0.174E+01   -.124E-03 0.329E-03 -.140E-02
   0.561E+01 0.855E+00 -.285E+04   -.553E+01 -.115E+01 0.285E+04   -.552E-01 0.298E+00 0.127E+01   -.319E-03 0.108E-03 -.936E-03
   -.223E+02 -.530E+01 -.289E+04   0.223E+02 0.481E+01 0.289E+04   -.310E-01 0.472E+00 0.171E+01   0.264E-03 0.334E-03 -.636E-03
   0.114E+02 -.217E+02 -.288E+04   -.117E+02 0.218E+02 0.288E+04   0.320E+00 -.924E-01 0.209E+01   0.629E-03 0.272E-03 -.113E-02
   -.230E+02 0.150E+02 -.288E+04   0.228E+02 -.148E+02 0.288E+04   0.195E+00 -.193E+00 0.136E+01   -.519E-03 -.319E-03 -.530E-03
   -.940E+01 -.242E+01 -.285E+04   0.982E+01 0.269E+01 0.284E+04   -.390E+00 -.256E+00 0.191E+01   0.315E-03 0.263E-04 -.110E-02
   -.989E+01 -.724E+01 -.288E+04   0.101E+02 0.705E+01 0.288E+04   -.297E+00 0.175E+00 0.102E+01   0.390E-03 0.815E-04 -.102E-02
   -.129E+02 0.289E+00 -.286E+04   0.132E+02 -.576E+00 0.286E+04   -.245E+00 0.255E+00 0.143E+01   0.139E-03 0.427E-03 -.131E-02
   0.262E+01 -.234E+02 -.286E+04   -.291E+01 0.231E+02 0.286E+04   0.287E+00 0.385E+00 0.124E+01   0.326E-03 -.407E-03 -.123E-02
   0.257E+02 0.127E+02 -.287E+04   -.252E+02 -.125E+02 0.287E+04   -.516E+00 -.196E+00 0.172E+01   0.131E-03 -.207E-04 -.821E-03
   0.255E+02 -.895E+01 -.288E+04   -.251E+02 0.922E+01 0.288E+04   -.385E+00 -.250E+00 0.162E+01   -.142E-03 -.279E-03 -.462E-03
   -.118E+01 -.106E+01 -.286E+04   0.854E+00 0.602E+00 0.286E+04   0.320E+00 0.442E+00 0.141E+01   -.792E-03 0.839E-04 -.138E-02
   0.286E+02 -.850E+01 -.288E+04   -.284E+02 0.871E+01 0.288E+04   -.164E+00 -.212E+00 0.135E+01   -.108E-03 -.574E-03 -.915E-03
   0.691E+02 -.647E+02 -.150E+04   -.678E+02 0.649E+02 0.150E+04   -.124E+01 -.200E+00 0.169E+01   -.590E-03 -.389E-03 -.435E-03
   0.258E+02 -.430E+02 -.148E+04   -.269E+02 0.426E+02 0.148E+04   0.111E+01 0.421E+00 0.244E+01   -.181E-03 -.631E-04 0.351E-04
   0.339E+02 0.244E+02 0.295E+04   -.340E+02 -.246E+02 -.294E+04   0.102E+00 0.244E+00 -.263E+01   -.558E-03 0.100E-02 -.267E-03
   0.257E+02 -.599E+01 0.158E+04   -.267E+02 0.671E+01 -.158E+04   0.964E+00 -.685E+00 0.961E+00   -.425E-03 -.164E-02 0.693E-03
   -.646E+02 0.102E+02 -.145E+04   0.655E+02 -.951E+01 0.145E+04   -.860E+00 -.648E+00 0.261E+01   0.662E-03 -.425E-03 -.790E-03
   -.527E+02 0.592E+02 0.301E+04   0.534E+02 -.582E+02 -.301E+04   -.741E+00 -.105E+01 -.237E+01   0.716E-03 0.943E-03 0.894E-03
   0.887E+01 -.545E+02 0.156E+04   -.860E+01 0.540E+02 -.156E+04   -.305E+00 0.484E+00 -.744E+00   0.639E-03 0.907E-03 0.692E-03
   0.106E+02 0.279E+01 -.286E+04   -.107E+02 -.277E+01 0.286E+04   0.148E+00 -.293E-01 0.108E+01   -.273E-04 -.413E-03 -.103E-02
   -.155E+02 -.941E+00 0.522E+01   0.155E+02 0.123E+01 -.639E+01   -.976E-01 -.364E+00 0.115E+01   -.148E-03 0.530E-04 -.263E-03
   -.128E+02 0.102E+02 -.288E+04   0.123E+02 -.103E+02 0.288E+04   0.534E+00 0.158E+00 0.159E+01   0.531E-03 0.384E-03 -.708E-03
   0.129E+02 0.530E+02 0.218E+02   -.139E+02 -.543E+02 -.220E+02   0.110E+01 0.125E+01 0.218E+00   0.750E-03 -.270E-03 0.111E-02
   -.641E+02 0.625E+01 -.146E+04   0.646E+02 -.742E+01 0.146E+04   -.467E+00 0.124E+01 0.281E+01   0.908E-03 0.563E-03 0.413E-04
   0.285E+02 0.283E+02 -.151E+04   -.283E+02 -.276E+02 0.151E+04   -.236E+00 -.739E+00 0.222E+01   -.684E-03 0.114E-03 -.100E-02
   0.904E+01 -.648E+02 -.694E+02   -.100E+02 0.643E+02 0.697E+02   0.107E+01 0.529E+00 -.250E+00   -.264E-03 -.647E-03 -.306E-03
   -.215E+02 -.184E+02 0.581E+00   0.222E+02 0.191E+02 -.121E+01   -.775E+00 -.769E+00 0.645E+00   -.563E-03 -.330E-03 -.379E-03
   0.190E+02 0.141E+02 -.121E+04   -.191E+02 -.144E+02 0.121E+04   0.735E-01 0.398E+00 0.270E+00   -.114E-04 0.143E-03 -.258E-03
   -.670E+02 -.758E+01 0.237E+04   0.672E+02 0.627E+01 -.237E+04   -.264E+00 0.134E+01 -.285E+01   0.973E-04 0.351E-03 -.472E-03
   0.361E+02 -.201E+02 0.241E+04   -.359E+02 0.185E+02 -.240E+04   -.108E+00 0.171E+01 -.254E+01   0.655E-03 0.105E-02 0.142E-03
   0.267E+02 0.382E+01 0.241E+04   -.266E+02 -.304E+01 -.240E+04   -.701E-01 -.819E+00 -.312E+01   -.175E-03 -.683E-03 -.161E-04
   0.181E+02 0.606E+02 0.125E+04   -.171E+02 -.598E+02 -.125E+04   -.975E+00 -.794E+00 -.778E-01   0.585E-03 0.975E-03 0.156E-03
   0.303E+02 -.649E+02 0.124E+04   -.302E+02 0.646E+02 -.124E+04   -.103E+00 0.302E+00 -.407E+00   -.121E-02 0.101E-02 0.388E-03
   -.568E+02 -.212E+02 -.121E+04   0.569E+02 0.214E+02 0.121E+04   -.148E+00 -.269E+00 0.565E+00   0.722E-03 0.122E-03 -.386E-03
   -.119E+03 0.180E+02 0.242E+04   0.118E+03 -.178E+02 -.242E+04   0.749E+00 -.166E+00 -.298E+01   -.479E-03 -.127E-02 0.336E-03
   -.349E+02 0.507E+02 0.127E+04   0.340E+02 -.502E+02 -.127E+04   0.863E+00 -.532E+00 -.471E+00   0.601E-03 0.463E-03 -.293E-03
   -.528E+02 0.323E+01 -.408E+02   0.525E+02 -.284E+01 0.408E+02   0.241E+00 -.427E+00 -.112E+00   0.468E-03 -.309E-03 0.518E-03
   0.148E+02 -.815E+02 -.122E+04   -.150E+02 0.813E+02 0.122E+04   0.136E+00 0.241E+00 0.887E+00   0.148E-03 0.380E-05 -.640E-03
   0.125E+02 0.265E+02 -.121E+04   -.126E+02 -.266E+02 0.121E+04   0.121E+00 0.131E-01 0.119E+00   -.171E-03 0.317E-03 -.507E-03
   0.332E+01 -.624E+02 0.239E+04   -.413E+01 0.613E+02 -.239E+04   0.830E+00 0.105E+01 -.306E+01   -.838E-03 0.538E-03 0.430E-03
   0.110E+02 -.154E+02 0.269E+04   -.111E+02 0.157E+02 -.269E+04   0.652E-01 -.334E+00 -.252E+01   0.161E-03 -.976E-03 0.177E-03
   0.132E+03 0.386E+02 0.272E+04   -.132E+03 -.377E+02 -.272E+04   0.198E+00 -.889E+00 -.275E+01   -.396E-03 -.110E-02 0.297E-03
   -.476E+02 -.439E+02 0.138E+04   0.471E+02 0.428E+02 -.138E+04   0.505E+00 0.120E+01 -.357E+00   -.536E-03 0.682E-03 0.608E-03
   -.642E+02 0.536E+02 0.183E+02   0.644E+02 -.535E+02 -.190E+02   -.125E+00 -.175E+00 0.664E+00   -.255E-04 -.138E-03 0.141E-02
   -.106E+03 0.127E+02 0.138E+04   0.105E+03 -.122E+02 -.138E+04   0.474E+00 -.467E+00 -.164E+00   0.224E-03 -.904E-03 0.101E-02
   -.158E+02 0.619E+01 0.136E+04   0.160E+02 -.648E+01 -.136E+04   -.149E+00 0.341E+00 -.168E+00   0.118E-03 -.511E-03 -.966E-04
   0.431E+02 0.414E+01 -.138E+04   -.429E+02 -.430E+01 0.138E+04   -.194E+00 0.199E+00 0.119E+01   0.787E-04 0.367E-03 -.119E-02
   0.598E+02 -.792E+02 0.270E+04   -.594E+02 0.790E+02 -.270E+04   -.456E+00 0.258E+00 -.275E+01   0.176E-03 0.100E-02 0.198E-03
   -.132E+02 0.413E+01 0.135E+04   0.134E+02 -.387E+01 -.135E+04   -.168E+00 -.267E+00 -.466E+00   -.104E-02 -.970E-03 0.230E-03
   0.254E+02 -.729E+02 -.192E+02   -.246E+02 0.725E+02 0.195E+02   -.821E+00 0.559E+00 -.428E+00   0.929E-04 0.115E-03 -.373E-03
   0.357E+02 0.407E+02 0.336E+04   -.359E+02 -.398E+02 -.336E+04   0.160E+00 -.948E+00 -.395E+01   0.110E-02 -.106E-03 0.713E-03
   0.578E+02 0.534E+01 0.170E+04   -.580E+02 -.594E+01 -.170E+04   0.167E+00 0.639E+00 -.864E-01   -.152E-02 0.541E-03 0.288E-03
   0.113E+03 -.348E+02 0.166E+04   -.113E+03 0.348E+02 -.166E+04   -.195E+00 -.583E-01 -.779E-01   0.837E-03 0.366E-03 0.197E-02
   0.193E+02 0.661E+02 0.956E+02   -.199E+02 -.660E+02 -.960E+02   0.566E+00 -.202E+00 0.424E+00   0.289E-03 0.531E-03 0.129E-02
   0.128E+02 0.540E+02 -.167E+04   -.123E+02 -.537E+02 0.167E+04   -.456E+00 -.337E+00 0.116E+01   -.641E-03 -.520E-03 0.106E-03
   -.396E+02 0.292E+02 -.165E+04   0.388E+02 -.290E+02 0.165E+04   0.961E+00 -.254E+00 0.203E+01   0.512E-04 0.661E-03 -.197E-03
   0.158E+01 0.102E+03 0.331E+04   -.149E+01 -.103E+03 -.330E+04   -.146E+00 0.469E+00 -.328E+01   0.103E-02 0.115E-02 0.231E-03
   -.232E+02 -.844E+02 0.334E+04   0.223E+02 0.841E+02 -.334E+04   0.101E+01 0.281E+00 -.299E+01   -.136E-02 0.399E-03 -.854E-03
   0.110E+03 0.103E+02 -.578E+02   -.110E+03 -.101E+02 0.581E+02   -.151E-01 -.268E+00 -.424E+00   0.128E-03 0.151E-03 0.718E-03
   -.116E+03 -.303E+02 0.340E+02   0.116E+03 0.302E+02 -.339E+02   0.311E+00 0.147E+00 -.169E-01   0.726E-03 -.716E-03 -.115E-02
   -.795E+01 0.637E+02 0.176E+04   0.772E+01 -.631E+02 -.176E+04   0.271E+00 -.661E+00 -.831E+00   0.148E-02 0.809E-03 0.792E-03
   0.173E+02 -.665E+02 0.371E+02   -.169E+02 0.654E+02 -.376E+02   -.380E+00 0.130E+01 0.427E+00   -.230E-03 0.268E-03 -.744E-03
   0.557E+02 -.234E+02 0.559E+01   -.550E+02 0.231E+02 -.563E+01   -.706E+00 0.294E+00 0.975E-01   -.239E-03 0.277E-03 0.394E-03
   -.786E+02 0.300E+01 0.151E+04   0.781E+02 -.287E+01 -.151E+04   0.471E+00 -.802E-01 -.230E+00   -.293E-03 -.169E-02 -.434E-03
   -.185E+02 0.170E+02 0.159E+04   0.189E+02 -.173E+02 -.159E+04   -.391E+00 0.249E+00 -.474E+00   -.113E-03 -.213E-03 -.244E-03
   -.109E+03 -.797E+01 0.302E+04   0.109E+03 0.802E+01 -.302E+04   -.497E+00 -.158E-01 -.174E+01   -.788E-03 -.165E-02 -.468E-03
   0.697E+02 -.467E+02 0.301E+04   -.701E+02 0.473E+02 -.301E+04   0.516E+00 -.622E+00 -.114E+01   0.909E-03 -.159E-03 0.365E-03
   0.197E+02 -.329E+02 0.152E+04   -.194E+02 0.327E+02 -.152E+04   -.375E+00 0.221E+00 -.873E-02   -.257E-04 -.802E-04 0.107E-02
   0.565E+02 0.655E+01 0.155E+04   -.559E+02 -.658E+01 -.155E+04   -.546E+00 0.765E-01 -.221E+00   0.588E-03 -.370E-03 0.899E-03
   -.355E+02 -.614E+02 -.152E+04   0.354E+02 0.615E+02 0.152E+04   0.111E+00 -.746E-01 0.569E+00   -.319E-04 -.173E-03 -.388E-03
   -.428E+02 0.318E+02 0.300E+04   0.433E+02 -.313E+02 -.300E+04   -.485E+00 -.618E+00 -.201E+01   0.243E-03 -.334E-03 0.591E-03
   -.447E+02 0.793E+02 0.768E+02   0.451E+02 -.790E+02 -.768E+02   -.424E+00 -.387E+00 -.914E-01   0.688E-03 -.158E-03 -.196E-03
   0.111E+00 0.576E+02 -.187E+02   -.219E+00 -.568E+02 0.185E+02   0.126E+00 -.805E+00 -.598E-02   -.962E-03 0.518E-03 0.351E-03
   0.581E+02 0.336E+00 -.322E+02   -.577E+02 0.260E+00 0.322E+02   -.374E+00 -.623E+00 -.751E-01   0.210E-03 0.226E-03 0.916E-04
   0.998E+01 -.609E+02 0.311E+02   -.104E+02 0.605E+02 -.313E+02   0.389E+00 0.468E+00 0.946E-01   -.122E-02 0.634E-03 0.102E-02
 -----------------------------------------------------------------------------------------------
   -.217E+01 -.743E+00 -.456E+01   0.625E-12 -.156E-12 -.327E-11   0.213E+01 0.790E+00 0.458E+01   -.261E-04 -.196E-03 -.849E-02
 
 
 POSITION                                       TOTAL-FORCE (eV/Angst)
 -----------------------------------------------------------------------------------
     13.18687      8.19860      6.94795         0.008945      0.004559     -0.037817
      5.20156      8.22278      6.90570        -0.011006     -0.004452      0.010254
      5.05026      3.54978      6.99398         0.012454     -0.031974      0.005052
     14.58075      8.97050      9.24347         0.028696     -0.011554     -0.031639
      3.78616      4.31878      9.32966         0.005461     -0.030848     -0.001416
      6.51333      8.95964      9.21001         0.000306      0.036078     -0.013546
     11.87458      4.28187      9.30983         0.004465     -0.000611      0.000654
      9.18713      8.94923      9.19494        -0.006458     -0.004403     -0.011505
     10.53210      1.96807      9.18847         0.025126      0.014163     -0.016430
      2.48615      1.97172      9.22830        -0.001503     -0.008335     -0.003943
     11.88279      8.95164      9.25390        -0.010935      0.015475      0.000761
     13.22558      6.62908      9.31267         0.006385     -0.032377     -0.009153
      5.14929      1.95103      9.26988        -0.005484      0.013802      0.020948
      7.87020      6.64048      9.25613         0.028851     -0.021188     -0.001209
      9.21319      4.30343      9.23698        -0.014166     -0.008727      0.001057
      5.15270      6.62625      9.30990         0.000243     -0.003272     -0.018960
      7.85047      1.96141      9.22216        -0.010461      0.031671      0.001242
      7.91615      3.50311      6.95530        -0.003574     -0.011090     -0.016057
      6.41348      1.16565      6.90155        -0.004991      0.002285      0.002864
      6.55899      1.14886      0.96438        -0.004273     -0.001448      0.001118
      3.75747      4.28391      2.83239        -0.024521     -0.016794     -0.010090
      1.20439      1.27145      6.88902         0.025313     -0.011302      0.023584
      1.14464      1.22211      0.77800        -0.002813      0.028398     -0.008605
      6.56687      8.92705      2.92680         0.011656     -0.007384      0.016345
      6.50235      4.30093      9.30044        -0.001581      0.007321      0.004857
      7.84317      5.09593      4.82253        -0.004571     -0.021160     -0.020034
     10.52270      6.63057      9.26133        -0.008148      0.009687     -0.002689
     14.51918      7.33687      4.85107         0.006023      0.002290      0.010470
     11.90940      5.80742      6.99939        -0.003185      0.001011      0.009494
      6.52116      5.88415      6.97600         0.011739     -0.021496     -0.002453
      3.66556      2.59850      4.95871        -0.001832     -0.005632      0.016477
     10.55203      5.13182      4.86368        -0.009045     -0.012314      0.004465
      3.83494      5.88910      7.12105        -0.016428     -0.008518     -0.006592
     13.19219      8.02433      1.00573        -0.009911     -0.004633      0.013009
      5.26821      8.05279      0.90098         0.017145     -0.004819      0.005449
      3.88993      5.88755      0.88776        -0.002227     -0.004728      0.014510
      7.96781      2.09986      2.87061        -0.017894      0.012993     -0.011266
      9.24633      8.88529      2.89138         0.005086      0.027496      0.010237
      2.44452      3.57977      7.10399        -0.004851     -0.018938      0.012271
      2.33068      3.55115      0.88683         0.033537     -0.001190     -0.006026
     10.54411      2.00466      2.85564        -0.014037      0.014518     -0.034793
     13.20125      5.07200      4.92596        -0.006995     -0.004405      0.002052
      3.81744      1.07954      7.04258         0.014147      0.002189      0.005426
      9.19840      5.85860      7.06650         0.011054      0.007511     -0.007938
      3.79990      1.08422      0.93869        -0.008129      0.013244      0.004176
      9.28005      5.82724      1.01487        -0.025385      0.010769      0.010464
      5.25238      3.56304      0.92964        -0.015406      0.000062      0.013812
     11.82187      8.82904      2.94048        -0.010670      0.011990      0.013184
     11.87544      7.38555      4.84901         0.015769     -0.031182      0.007729
     13.08248      6.55049      2.85969         0.007933      0.001224      0.011375
      9.21707      4.27951      2.82588         0.008808      0.008904     -0.007426
      7.90089      8.15503      6.99446         0.021382     -0.012264     -0.009710
      7.97778      8.09308      0.93938        -0.012295      0.015160     -0.013281
     10.58681      6.67050      2.84722        -0.020533      0.007983      0.006317
      2.57872      0.24765      5.01085         0.022738      0.014338     -0.005360
      7.89204      3.56304      0.82040        -0.003616     -0.006285      0.010877
      5.16267      1.91547      2.95300        -0.005206     -0.009032      0.017985
      5.28297      6.56629      2.94356         0.005224     -0.008154     -0.003043
      7.85418      0.47531      4.84859         0.009875      0.004809      0.006255
      9.22520      1.20786      6.94910         0.003037      0.002200     -0.011492
     10.48925      8.13508      6.96485         0.004820     -0.011269      0.014669
      9.23132      1.14551      0.82560        -0.023350      0.009488      0.010803
     10.55608      8.11953      0.83856        -0.004246      0.003341      0.021984
      5.15595      5.05396      4.92521        -0.005482      0.005592     -0.029178
     11.83256      2.78488      4.88069        -0.000927      0.020628      0.022307
     14.57347      8.98804      2.87227        -0.002272      0.022309     -0.007394
      9.26929      2.70975      4.92992         0.002546      0.002280      0.014654
      6.49665      2.73164      4.86532        -0.007324      0.010949      0.007927
     11.86943      4.25741      2.84734        -0.001134     -0.018653     -0.020240
      2.48289      1.92464      2.85312        -0.021910     -0.014323      0.004502
     11.85493      5.78777      0.92942        -0.014105      0.021057      0.008460
      6.57689      5.84104      0.99111         0.006919      0.007404     -0.010571
      7.99191      6.64267      2.86446         0.023589      0.008915     -0.011172
      6.54439      4.21089      2.82135        -0.002668     -0.008291      0.008509
     10.57637      3.55199      7.03664         0.006088     -0.000230     -0.007497
     10.54163      3.50860      0.91916        -0.002205     -0.016323      0.009901
     10.57208      0.50548      4.87385        -0.023249     -0.002734      0.002823
      9.21999      7.42016      4.95848        -0.005822      0.006989     -0.026303
      6.61478      7.43446      4.94584         0.021047      0.004465      0.009864
      5.12149      0.26726      4.90165         0.000417      0.006785      0.003658
 -----------------------------------------------------------------------------------
    total drift:                               -0.040733      0.046220      0.007341


--------------------------------------------------------------------------------------------------------



  FREE ENERGIE OF THE ION-ELECTRON SYSTEM (eV)
  ---------------------------------------------------
  free  energy   TOTEN  =      -505.43063803 eV

  energy  without entropy=     -505.43241533  energy(sigma->0) =     -505.43123047
 


--------------------------------------------------------------------------------------------------------


    POTLOK:  cpu time    0.4508: real time    0.4519


--------------------------------------------------------------------------------------------------------


     LOOP+:  cpu time 5328.3374: real time 5341.2997
    4ORBIT:  cpu time    0.0000: real time    0.0000

 total amount of memory used by VASP MPI-rank0   259846. kBytes
=======================================================================

   base      :      30000. kBytes
   nonlr-proj:      33230. kBytes
   fftplans  :      17970. kBytes
   grid      :      53265. kBytes
   one-center:        622. kBytes
   wavefun   :     124759. kBytes
 
  
  
 General timing and accounting informations for this job:
 ========================================================
  
                  Total CPU time used (sec):     5424.034
                            User time (sec):     5378.188
                          System time (sec):       45.846
                         Elapsed time (sec):     5438.096
  
                   Maximum memory used (kb):      741348.
                   Average memory used (kb):           0.
  
                          Minor page faults:      1537023
                          Major page faults:            0
                 Voluntary context switches:         2749
