 vasp.5.4.4.18Apr17-6-g9f103f2a35 (build Oct 25 2019 11:13:22) complex          
  
 executed on             LinuxIFC date 2021.10.15  01:16:34
 running on   48 total cores
 distrk:  each k-point on   48 cores,    1 groups
 distr:  one band on NCORES_PER_BAND=   4 cores,   12 groups


--------------------------------------------------------------------------------------------------------


 INCAR:
 POTCAR:    PAW_PBE Pt 04Feb2005                  
 POTCAR:    PAW_PBE Fe 06Sep2000                  
 POTCAR:    PAW_PBE Co 02Aug2007                  
 POTCAR:    PAW_PBE Cu 22Jun2005                  
 POTCAR:    PAW_PBE Ni 02Aug2007                  
 POTCAR:    PAW_PBE H 15Jun2001                   
 POTCAR:    PAW_PBE Pt 04Feb2005                  
   VRHFIN =Pt: s1d9                                                             
   LEXCH  = PE                                                                  
   EATOM  =   729.1176 eV,   53.5886 Ry                                         
                                                                                
   TITEL  = PAW_PBE Pt 04Feb2005                                                
   LULTRA =        F    use ultrasoft PP ?                                      
   IUNSCR =        1    unscreen: 0-lin 1-nonlin 2-no                           
   RPACOR =    2.330    partial core radius                                     
   POMASS =  195.080; ZVAL   =   10.000    mass and valenz                      
   RCORE  =    2.600    outmost cutoff radius                                   
   RWIGS  =    2.750; RWIGS  =    1.455    wigner-seitz radius (au A)           
   ENMAX  =  230.283; ENMIN  =  172.712 eV                                      
   ICORE  =        3    local potential                                         
   LCOR   =        T    correct aug charges                                     
   LPAW   =        T    paw PP                                                  
   EAUG   =  358.966                                                            
   DEXC   =    0.000                                                            
   RMAX   =    2.658    core radius for proj-oper                               
   RAUG   =    1.300    factor for augmentation sphere                          
   RDEP   =    2.761    radius for radial grids                                 
   RDEPT  =    2.203    core radius for aug-charge                              
                                                                                
   Atomic configuration                                                         
   16 entries                                                                   
     n  l   j            E        occ.                                          
     1  0  0.50    -78401.1885   2.0000                                         
     2  0  0.50    -13770.7750   2.0000                                         
     2  1  1.50    -11931.0468   6.0000                                         
     3  0  0.50     -3234.7234   2.0000                                         
     3  1  1.50     -2699.2216   6.0000                                         
     3  2  2.50     -2119.5714  10.0000                                         
     4  0  0.50      -695.1528   2.0000                                         
     4  1  1.50      -519.6034   6.0000                                         
     4  2  2.50      -306.6786  10.0000                                         
     4  3  3.50       -70.1041  14.0000                                         
     5  0  0.50      -101.7747   2.0000                                         
     5  1  1.50       -55.9873   6.0000                                         
     5  2  2.50        -6.1423   9.0000                                         
     6  0  0.50        -5.6573   1.0000                                         
     6  1  1.50        -6.8029   0.0000                                         
     5  3  2.50        -1.3606   0.0000                                         
   Description                                                                  
     l       E           TYP  RCUT    TYP  RCUT                                 
     2     -6.1423404     23  2.500                                             
     2     -7.5029230     23  2.500                                             
     0     -5.6573207     23  2.500                                             
     0      0.7416693     23  2.500                                             
     1     -2.7211652     23  2.600                                             
     1     20.4087390     23  2.600                                             
     3     -1.3605826     23  2.500                                             
  local pseudopotential read in
  partial core-charges read in
  partial kinetic energy density read in
  atomic valenz-charges read in
  non local Contribution for L=           2  read in
    real space projection operators read in
  non local Contribution for L=           2  read in
    real space projection operators read in
  non local Contribution for L=           0  read in
    real space projection operators read in
  non local Contribution for L=           0  read in
    real space projection operators read in
  non local Contribution for L=           1  read in
    real space projection operators read in
  non local Contribution for L=           1  read in
    real space projection operators read in
    PAW grid and wavefunctions read in
 
   number of l-projection  operators is LMAX  =           6
   number of lm-projection operators is LMMAX =          18
 
 POTCAR:    PAW_PBE Fe 06Sep2000                  
   VRHFIN =Fe:  d7 s1                                                           
   LEXCH  = PE                                                                  
   EATOM  =   594.3153 eV,   43.6809 Ry                                         
                                                                                
   TITEL  = PAW_PBE Fe 06Sep2000                                                
   LULTRA =        F    use ultrasoft PP ?                                      
   IUNSCR =        1    unscreen: 0-lin 1-nonlin 2-no                           
   RPACOR =    2.000    partial core radius                                     
   POMASS =   55.847; ZVAL   =    8.000    mass and valenz                      
   RCORE  =    2.300    outmost cutoff radius                                   
   RWIGS  =    2.460; RWIGS  =    1.302    wigner-seitz radius (au A)           
   ENMAX  =  267.882; ENMIN  =  200.911 eV                                      
   RCLOC  =    1.701    cutoff for local pot                                    
   LCOR   =        T    correct aug charges                                     
   LPAW   =        T    paw PP                                                  
   EAUG   =  511.368                                                            
   DEXC   =    0.000                                                            
   RMAX   =    2.356    core radius for proj-oper                               
   RAUG   =    1.300    factor for augmentation sphere                          
   RDEP   =    2.442    radius for radial grids                                 
   RDEPT  =    1.890    core radius for aug-charge                              
                                                                                
   Atomic configuration                                                         
    9 entries                                                                   
     n  l   j            E        occ.                                          
     1  0  0.50     -6993.8440   2.0000                                         
     2  0  0.50      -814.6047   2.0000                                         
     2  1  1.50      -693.3689   6.0000                                         
     3  0  0.50       -89.4732   2.0000                                         
     3  1  1.50       -55.6373   6.0000                                         
     3  2  2.50        -3.8151   7.0000                                         
     4  0  0.50        -4.2551   1.0000                                         
     4  1  1.50        -3.4015   0.0000                                         
     4  3  2.50        -1.3606   0.0000                                         
   Description                                                                  
     l       E           TYP  RCUT    TYP  RCUT                                 
     2     -3.8151135     23  2.300                                             
     2     -5.1756961     23  2.300                                             
     0     -4.2550963     23  2.300                                             
     0      7.2035603     23  2.300                                             
     1     -2.7211652     23  2.300                                             
     1     18.4316424     23  2.300                                             
  local pseudopotential read in
  partial core-charges read in
  partial kinetic energy density read in
  atomic valenz-charges read in
  non local Contribution for L=           2  read in
    real space projection operators read in
  non local Contribution for L=           2  read in
    real space projection operators read in
  non local Contribution for L=           0  read in
    real space projection operators read in
  non local Contribution for L=           0  read in
    real space projection operators read in
  non local Contribution for L=           1  read in
    real space projection operators read in
  non local Contribution for L=           1  read in
    real space projection operators read in
    PAW grid and wavefunctions read in
 
   number of l-projection  operators is LMAX  =           6
   number of lm-projection operators is LMMAX =          18
 
 POTCAR:    PAW_PBE Co 02Aug2007                  
   VRHFIN =Co: d8 s1                                                            
   LEXCH  = PE                                                                  
   EATOM  =   813.3670 eV,   59.7808 Ry                                         
                                                                                
   TITEL  = PAW_PBE Co 02Aug2007                                                
   LULTRA =        F    use ultrasoft PP ?                                      
   IUNSCR =        1    unscreen: 0-lin 1-nonlin 2-no                           
   RPACOR =    2.000    partial core radius                                     
   POMASS =   58.933; ZVAL   =    9.000    mass and valenz                      
   RCORE  =    2.300    outmost cutoff radius                                   
   RWIGS  =    2.460; RWIGS  =    1.302    wigner-seitz radius (au A)           
   ENMAX  =  267.968; ENMIN  =  200.976 eV                                      
   RCLOC  =    1.203    cutoff for local pot                                    
   LCOR   =        T    correct aug charges                                     
   LPAW   =        T    paw PP                                                  
   EAUG   =  477.818                                                            
   DEXC   =    0.000                                                            
   RMAX   =    2.360    core radius for proj-oper                               
   RAUG   =    1.300    factor for augmentation sphere                          
   RDEP   =    2.393    radius for radial grids                                 
   RDEPT  =    1.864    core radius for aug-charge                              
                                                                                
   Atomic configuration                                                         
    9 entries                                                                   
     n  l   j            E        occ.                                          
     1  0  0.50     -7587.6674   2.0000                                         
     2  0  0.50      -893.6084   2.0000                                         
     2  1  1.50      -764.5805   6.0000                                         
     3  0  0.50       -97.5973   2.0000                                         
     3  1  1.50       -60.9648   6.0000                                         
     3  2  2.50        -4.2382   8.0000                                         
     4  0  0.50        -4.3746   1.0000                                         
     4  1  1.50        -4.0817   0.0000                                         
     4  3  2.50        -1.3606   0.0000                                         
   Description                                                                  
     l       E           TYP  RCUT    TYP  RCUT                                 
     2     -4.2382362     23  2.300                                             
     2     -5.5988188     23  2.300                                             
     0     -4.3745797     23  2.300                                             
     0      5.7660125     23  2.300                                             
     1     -2.7211652     23  2.300                                             
     1     16.9860234     23  2.300                                             
  local pseudopotential read in
  partial core-charges read in
  partial kinetic energy density read in
  atomic valenz-charges read in
  non local Contribution for L=           2  read in
    real space projection operators read in
  non local Contribution for L=           2  read in
    real space projection operators read in
  non local Contribution for L=           0  read in
    real space projection operators read in
  non local Contribution for L=           0  read in
    real space projection operators read in
  non local Contribution for L=           1  read in
    real space projection operators read in
  non local Contribution for L=           1  read in
    real space projection operators read in
    PAW grid and wavefunctions read in
 
   number of l-projection  operators is LMAX  =           6
   number of lm-projection operators is LMMAX =          18
 
 POTCAR:    PAW_PBE Cu 22Jun2005                  
   VRHFIN =Cu: d10 p1                                                           
   LEXCH  = PE                                                                  
   EATOM  =  1390.9808 eV,  102.2342 Ry                                         
                                                                                
   TITEL  = PAW_PBE Cu 22Jun2005                                                
   LULTRA =        F    use ultrasoft PP ?                                      
   IUNSCR =        1    unscreen: 0-lin 1-nonlin 2-no                           
   RPACOR =    2.000    partial core radius                                     
   POMASS =   63.546; ZVAL   =   11.000    mass and valenz                      
   RCORE  =    2.300    outmost cutoff radius                                   
   RWIGS  =    2.200; RWIGS  =    1.164    wigner-seitz radius (au A)           
   ENMAX  =  295.446; ENMIN  =  221.585 eV                                      
   ICORE  =        3    local potential                                         
   LCOR   =        T    correct aug charges                                     
   LPAW   =        T    paw PP                                                  
   EAUG   =  586.980                                                            
   DEXC   =    0.000                                                            
   RMAX   =    2.344    core radius for proj-oper                               
   RAUG   =    1.300    factor for augmentation sphere                          
   RDEP   =    2.302    radius for radial grids                                 
   RDEPT  =    1.771    core radius for aug-charge                              
                                                                                
   Atomic configuration                                                         
    9 entries                                                                   
     n  l   j            E        occ.                                          
     1  0  0.50     -8850.2468   2.0000                                         
     2  0  0.50     -1062.3498   2.0000                                         
     2  1  1.50      -916.8226   6.0000                                         
     3  0  0.50      -114.6929   2.0000                                         
     3  1  1.50       -72.1325   6.0000                                         
     3  2  2.50        -5.0394  10.0000                                         
     4  0  0.50        -4.6097   1.0000                                         
     4  1  0.50        -4.0817   0.0000                                         
     4  3  2.50        -1.3606   0.0000                                         
   Description                                                                  
     l       E           TYP  RCUT    TYP  RCUT                                 
     2     -5.0393973     23  2.200                                             
     2     10.8846608     23  2.200                                             
     0     -4.6097109     23  2.200                                             
     0      8.2520465     23  2.200                                             
     1     -2.7211652     23  2.200                                             
     1     21.7055443     23  2.200                                             
     3      2.7211652     23  2.300                                             
  local pseudopotential read in
  partial core-charges read in
  partial kinetic energy density read in
  atomic valenz-charges read in
  non local Contribution for L=           2  read in
    real space projection operators read in
  non local Contribution for L=           2  read in
    real space projection operators read in
  non local Contribution for L=           0  read in
    real space projection operators read in
  non local Contribution for L=           0  read in
    real space projection operators read in
  non local Contribution for L=           1  read in
    real space projection operators read in
  non local Contribution for L=           1  read in
    real space projection operators read in
    PAW grid and wavefunctions read in
 
   number of l-projection  operators is LMAX  =           6
   number of lm-projection operators is LMMAX =          18
 
 POTCAR:    PAW_PBE Ni 02Aug2007                  
   VRHFIN =Ni:                                                                  
   LEXCH  = PE                                                                  
   EATOM  =  1077.6739 eV,   79.2068 Ry                                         
                                                                                
   TITEL  = PAW_PBE Ni 02Aug2007                                                
   LULTRA =        F    use ultrasoft PP ?                                      
   IUNSCR =        1    unscreen: 0-lin 1-nonlin 2-no                           
   RPACOR =    2.000    partial core radius                                     
   POMASS =   58.690; ZVAL   =   10.000    mass and valenz                      
   RCORE  =    2.300    outmost cutoff radius                                   
   RWIGS  =    2.430; RWIGS  =    1.286    wigner-seitz radius (au A)           
   ENMAX  =  269.532; ENMIN  =  202.149 eV                                      
   RCLOC  =    1.201    cutoff for local pot                                    
   LCOR   =        T    correct aug charges                                     
   LPAW   =        T    paw PP                                                  
   EAUG   =  544.565                                                            
   DEXC   =    0.000                                                            
   RMAX   =    2.357    core radius for proj-oper                               
   RAUG   =    1.300    factor for augmentation sphere                          
   RDEP   =    2.390    radius for radial grids                                 
   RDEPT  =    1.838    core radius for aug-charge                              
                                                                                
   Atomic configuration                                                         
    9 entries                                                                   
     n  l   j            E        occ.                                          
     1  0  0.50     -8206.4253   2.0000                                         
     2  0  0.50      -976.1748   2.0000                                         
     2  1  1.50      -839.0571   6.0000                                         
     3  0  0.50      -105.9991   2.0000                                         
     3  1  1.50       -66.4603   6.0000                                         
     3  2  2.50        -4.6458   9.0000                                         
     4  0  0.50        -4.4926   1.0000                                         
     4  1  1.50        -4.0817   0.0000                                         
     4  3  2.50        -1.3606   0.0000                                         
   Description                                                                  
     l       E           TYP  RCUT    TYP  RCUT                                 
     2     -4.6457903     23  2.300                                             
     2     -6.0063729     23  2.300                                             
     0     -4.4925590     23  2.300                                             
     0      5.0102601     23  2.300                                             
     1     -2.7211652     23  2.300                                             
     1     16.5183231     23  2.300                                             
  local pseudopotential read in
  partial core-charges read in
  partial kinetic energy density read in
  atomic valenz-charges read in
  non local Contribution for L=           2  read in
    real space projection operators read in
  non local Contribution for L=           2  read in
    real space projection operators read in
  non local Contribution for L=           0  read in
    real space projection operators read in
  non local Contribution for L=           0  read in
    real space projection operators read in
  non local Contribution for L=           1  read in
    real space projection operators read in
  non local Contribution for L=           1  read in
    real space projection operators read in
    PAW grid and wavefunctions read in
 
   number of l-projection  operators is LMAX  =           6
   number of lm-projection operators is LMMAX =          18
 
 POTCAR:    PAW_PBE H 15Jun2001                   
   VRHFIN =H: ultrasoft test                                                    
   LEXCH  = PE                                                                  
   EATOM  =    12.4884 eV,    0.9179 Ry                                         
                                                                                
   TITEL  = PAW_PBE H 15Jun2001                                                 
   LULTRA =        F    use ultrasoft PP ?                                      
   IUNSCR =        0    unscreen: 0-lin 1-nonlin 2-no                           
   RPACOR =    0.000    partial core radius                                     
   POMASS =    1.000; ZVAL   =    1.000    mass and valenz                      
   RCORE  =    1.100    outmost cutoff radius                                   
   RWIGS  =    0.700; RWIGS  =    0.370    wigner-seitz radius (au A)           
   ENMAX  =  250.000; ENMIN  =  200.000 eV                                      
   RCLOC  =    0.701    cutoff for local pot                                    
   LCOR   =        T    correct aug charges                                     
   LPAW   =        T    paw PP                                                  
   EAUG   =  400.000                                                            
   RMAX   =    1.123    core radius for proj-oper                               
   RAUG   =    1.200    factor for augmentation sphere                          
   RDEP   =    1.112    radius for radial grids                                 
   RDEPT  =    0.926    core radius for aug-charge                              
                                                                                
   Atomic configuration                                                         
    2 entries                                                                   
     n  l   j            E        occ.                                          
     1  0  0.50        -6.4927   1.0000                                         
     2  1  0.50        -3.4015   0.0000                                         
   Description                                                                  
     l       E           TYP  RCUT    TYP  RCUT                                 
     0     -6.4927494     23  1.100                                             
     0      6.8029130     23  1.100                                             
     1     -4.0817478     23  1.100                                             
  local pseudopotential read in
  atomic valenz-charges read in
  non local Contribution for L=           0  read in
    real space projection operators read in
  non local Contribution for L=           0  read in
    real space projection operators read in
  non local Contribution for L=           1  read in
    real space projection operators read in
    PAW grid and wavefunctions read in
 
   number of l-projection  operators is LMAX  =           3
   number of lm-projection operators is LMMAX =           5
 
 Optimization of the real space projectors (new method)

 maximal supplied QI-value         = 14.36
 optimisation between [QCUT,QGAM] = [ 11.92, 23.98] = [ 39.79,161.09] Ry 
 Optimized for a Real-space Cutoff    1.49 Angstroem

   l    n(q)    QCUT    max X(q) W(low)/X(q) W(high)/X(q)  e(spline) 
   2     10    11.920    66.195    0.79E-04    0.18E-03    0.24E-06
   2     10    11.920    64.643    0.81E-04    0.19E-03    0.24E-06
   0     11    11.920    95.520    0.28E-04    0.54E-04    0.18E-06
   0     11    11.920    63.403    0.27E-04    0.52E-04    0.17E-06
   1     10    11.920    19.961    0.18E-04    0.11E-03    0.23E-06
   1     10    11.920    13.289    0.25E-04    0.87E-04    0.19E-06
 Optimization of the real space projectors (new method)

 maximal supplied QI-value         = 16.25
 optimisation between [QCUT,QGAM] = [ 11.86, 23.89] = [ 39.41,159.82] Ry 
 Optimized for a Real-space Cutoff    1.49 Angstroem

   l    n(q)    QCUT    max X(q) W(low)/X(q) W(high)/X(q)  e(spline) 
   2     10    11.864    80.901    0.13E-03    0.23E-03    0.37E-06
   2     10    11.864    75.754    0.13E-03    0.23E-03    0.38E-06
   0     11    11.864    58.752    0.44E-04    0.11E-04    0.20E-06
   0     11    11.864    30.679    0.36E-04    0.10E-04    0.18E-06
   1     10    11.864    17.977    0.31E-04    0.45E-04    0.10E-06
   1     10    11.864    13.559    0.25E-04    0.37E-04    0.89E-07
 Optimization of the real space projectors (new method)

 maximal supplied QI-value         = 16.25
 optimisation between [QCUT,QGAM] = [ 11.86, 23.89] = [ 39.41,159.82] Ry 
 Optimized for a Real-space Cutoff    1.33 Angstroem

   l    n(q)    QCUT    max X(q) W(low)/X(q) W(high)/X(q)  e(spline) 
   2      9    11.864    65.824    0.22E-03    0.53E-03    0.26E-06
   2      9    11.864    61.429    0.22E-03    0.53E-03    0.26E-06
   0      9    11.864    56.174    0.21E-03    0.32E-04    0.15E-06
   0      9    11.864    31.263    0.19E-03    0.30E-04    0.14E-06
   1      9    11.864    19.828    0.63E-04    0.30E-03    0.16E-06
   1      9    11.864    15.139    0.49E-04    0.25E-03    0.13E-06
 Optimization of the real space projectors (new method)

 maximal supplied QI-value         = 16.25
 optimisation between [QCUT,QGAM] = [ 11.86, 23.89] = [ 39.41,159.82] Ry 
 Optimized for a Real-space Cutoff    1.49 Angstroem

   l    n(q)    QCUT    max X(q) W(low)/X(q) W(high)/X(q)  e(spline) 
   2     10    11.864     4.610    0.10E-03    0.20E-03    0.29E-06
   2     10    11.864     8.522    0.17E-03    0.33E-03    0.50E-06
   0     11    11.864    51.609    0.52E-04    0.55E-04    0.33E-06
   0     11    11.864    27.747    0.46E-04    0.52E-04    0.31E-06
   1     10    11.864    20.408    0.54E-04    0.25E-04    0.21E-06
   1     10    11.864    13.425    0.48E-04    0.22E-04    0.18E-06
 Optimization of the real space projectors (new method)

 maximal supplied QI-value         = 16.25
 optimisation between [QCUT,QGAM] = [ 11.86, 23.89] = [ 39.41,159.82] Ry 
 Optimized for a Real-space Cutoff    1.33 Angstroem

   l    n(q)    QCUT    max X(q) W(low)/X(q) W(high)/X(q)  e(spline) 
   2      9    11.864    60.317    0.21E-03    0.51E-03    0.25E-06
   2      9    11.864    55.921    0.21E-03    0.51E-03    0.26E-06
   0      9    11.864    51.690    0.22E-03    0.30E-04    0.17E-06
   0      9    11.864    30.015    0.20E-03    0.28E-04    0.15E-06
   1      9    11.864    18.849    0.76E-04    0.33E-03    0.17E-06
   1      9    11.864    14.624    0.60E-04    0.28E-03    0.15E-06
 Optimization of the real space projectors (new method)

 maximal supplied QI-value         = 34.20
 optimisation between [QCUT,QGAM] = [ 11.97, 23.94] = [ 40.13,160.53] Ry 
 Optimized for a Real-space Cutoff    1.18 Angstroem

   l    n(q)    QCUT    max X(q) W(low)/X(q) W(high)/X(q)  e(spline) 
   0      8    11.971    19.460    0.15E-03    0.31E-03    0.25E-06
   0      8    11.971    12.209    0.13E-03    0.29E-03    0.25E-06
   1      8    11.971     4.655    0.22E-03    0.24E-03    0.21E-06
  PAW_PBE Pt 04Feb2005                  :
 energy of atom  1       EATOM= -729.1176
 kinetic energy error for atom=    0.0021 (will be added to EATOM!!)
  PAW_PBE Fe 06Sep2000                  :
 energy of atom  2       EATOM= -594.3153
 kinetic energy error for atom=    0.0024 (will be added to EATOM!!)
  PAW_PBE Co 02Aug2007                  :
 energy of atom  3       EATOM= -813.3670
 kinetic energy error for atom=    0.0026 (will be added to EATOM!!)
  PAW_PBE Cu 22Jun2005                  :
 energy of atom  4       EATOM=-1390.9808
 kinetic energy error for atom=    0.0036 (will be added to EATOM!!)
  PAW_PBE Ni 02Aug2007                  :
 energy of atom  5       EATOM=-1077.6739
 kinetic energy error for atom=    0.0027 (will be added to EATOM!!)
  PAW_PBE H 15Jun2001                   :
 energy of atom  6       EATOM=  -12.4884
 kinetic energy error for atom=    0.0008 (will be added to EATOM!!)
 
 
 POSCAR: 10.76                                   
  positions in direct lattice
  velocities in cartesian coordinates
 exchange correlation table for  LEXCH =        8
   RHO(1)=    0.500       N(1)  =     2000
   RHO(2)=  100.500       N(2)  =     4000
 


--------------------------------------------------------------------------------------------------------


 ion  position               nearest neighbor table
   1  0.786  0.880  0.316-  49 2.61  28 2.63  59 2.64  19 2.68  61 2.70  33 2.71  29 2.72  60 2.72
                            11 2.75   2 2.77   4 2.82  12 2.84
   2  0.042  0.882  0.314-  79 2.55  77 2.60  60 2.67  28 2.67  30 2.68  52 2.71  33 2.71  22 2.73
                             1 2.77   6 2.79   4 2.86  16 2.93
   3  0.279  0.381  0.318-  64 2.56  39 2.61  31 2.64  33 2.64  68 2.70  19 2.75  43 2.76  30 2.76
                             5 2.76  13 2.79  25 2.83  18 2.87
   4  0.871  0.964  0.422-  81 1.89  17 2.65  11 2.67   9 2.70  12 2.73   6 2.74  16 2.76  60 2.80
                             1 2.82   2 2.86
   5  0.120  0.463  0.424-  16 2.65  12 2.66   7 2.66  10 2.67  39 2.70  33 2.71  25 2.72  13 2.74
                             3 2.76
   6  0.125  0.964  0.420-  81 1.88   8 2.65  10 2.68   9 2.71  14 2.72   4 2.74  16 2.76  52 2.78
                             2 2.79  22 2.85
   7  0.874  0.459  0.423-   9 2.66  15 2.66   5 2.66  39 2.67  10 2.68  12 2.68  27 2.72  75 2.72
                            29 2.77
   8  0.374  0.960  0.418-  43 2.59   6 2.65  14 2.66  52 2.67  27 2.67  13 2.68  10 2.69  11 2.70
                            61 2.70
   9  0.872  0.214  0.417-  81 1.83  75 2.65   7 2.66  15 2.66  17 2.68   4 2.70  60 2.70   6 2.71
                            10 2.72  22 2.80
  10  0.125  0.212  0.419-  13 2.66  39 2.66   5 2.67   6 2.68   7 2.68   8 2.69  43 2.71   9 2.72
                            22 2.76
  11  0.624  0.960  0.420-   4 2.67  12 2.68  13 2.68  27 2.69  17 2.69   8 2.70   1 2.75  61 2.80
                            19 2.81
  12  0.872  0.710  0.423-   5 2.66  27 2.68  11 2.68   7 2.68  33 2.69  16 2.72   4 2.73  29 2.76
                             1 2.84
  13  0.374  0.209  0.421-  10 2.66   8 2.68  11 2.68  17 2.70  25 2.71   5 2.74  43 2.74   3 2.79
                            19 2.80
  14  0.378  0.711  0.420-  27 2.63  44 2.66   8 2.66  15 2.67  25 2.71   6 2.72  52 2.72  16 2.73
                            30 2.75
  15  0.626  0.462  0.420-   9 2.66   7 2.66  44 2.67  27 2.67  14 2.67  75 2.70  17 2.71  25 2.71
                            18 2.75
  16  0.126  0.707  0.425-   5 2.65  25 2.66  33 2.70  12 2.72  14 2.73   6 2.76   4 2.76  30 2.82
                             2 2.93
  17  0.624  0.211  0.419-   4 2.65   9 2.68  25 2.69  11 2.69  13 2.70  15 2.71  18 2.74  60 2.76
                            19 2.84
  18  0.548  0.376  0.316-  67 2.56  68 2.64  60 2.65  26 2.66  75 2.67  44 2.69  17 2.74  15 2.75
                            30 2.76  19 2.78  25 2.85   3 2.87
  19  0.534  0.125  0.314-  80 2.55  68 2.57  59 2.60  43 2.60   1 2.68  61 2.69   3 2.75  18 2.78
                            13 2.80  11 2.81  60 2.81  17 2.84
  20  0.548  0.123  0.044-  57 2.55  37 2.55  48 2.57  62 2.68  63 2.73  47 2.75  34 2.75  45 2.76
                            56 2.76
  21  0.119  0.460  0.129-  40 2.52  36 2.52  47 2.52  42 2.60  64 2.63  69 2.65  70 2.68  50 2.68
                            31 2.71  58 2.75  57 2.76  74 2.79
  22  0.044  0.136  0.313-  65 2.53  55 2.54  77 2.57  43 2.62  39 2.63  75 2.68   2 2.73  60 2.74
                            10 2.76  52 2.77   9 2.80   6 2.85  31 3.40
  23  0.041  0.131  0.035-  70 2.57  41 2.60  40 2.62  45 2.66  76 2.67  62 2.67  24 2.69  35 2.79
                            53 2.85
  24  0.131  0.958  0.133-  79 2.51  77 2.55  35 2.56  53 2.58  55 2.59  70 2.66  38 2.68  58 2.69
                            23 2.69  73 2.69  66 2.75  41 2.78
  25  0.374  0.461  0.422-  16 2.66  17 2.69  15 2.71  13 2.71  14 2.71   5 2.72  30 2.81   3 2.83
                            18 2.85
  26  0.455  0.547  0.219-  73 2.50  74 2.54  51 2.56  79 2.64  30 2.65  18 2.66  64 2.69  78 2.70
                            32 2.71  68 2.72  44 2.73  67 2.78
  27  0.622  0.712  0.421-  14 2.63  15 2.67   8 2.67  12 2.68  44 2.68  11 2.69   7 2.72  61 2.74
                            29 2.78
  28  0.956  0.787  0.221-  58 2.56  66 2.58  50 2.58  42 2.62   1 2.63  49 2.64   2 2.67  64 2.68
                            33 2.69  59 2.77  79 2.86  77 2.87
  29  0.795  0.623  0.318-  42 2.55  39 2.58  32 2.62  75 2.62  49 2.67  33 2.69  44 2.71   1 2.72
                            61 2.72  12 2.76   7 2.77  27 2.78
  30  0.290  0.632  0.317-  79 2.56  64 2.60  52 2.65  26 2.65   2 2.68  44 2.69  33 2.69  14 2.75
                             3 2.76  18 2.76  25 2.81  16 2.82
  31  0.201  0.279  0.225-  70 2.51  43 2.58  55 2.59  57 2.59  65 2.60   3 2.64  39 2.65  21 2.71
                            80 2.75  42 2.76  68 2.84  64 2.87  22 3.40
  32  0.705  0.551  0.221-  54 2.54  69 2.56  51 2.58  49 2.61  29 2.62  78 2.65  42 2.65  65 2.67
                            44 2.68  75 2.69  26 2.71  67 2.74
  33  0.040  0.632  0.323-   3 2.64  30 2.69  29 2.69  28 2.69  64 2.69  12 2.69  39 2.69  16 2.70
                             1 2.71   5 2.71   2 2.71  42 2.72
  34  0.795  0.861  0.046-  50 2.37  48 2.50  66 2.51  36 2.59  71 2.61  63 2.64  20 2.75  62 2.83
                            35 2.84
  35  0.058  0.864  0.041-  58 2.53  24 2.56  36 2.57  72 2.57  66 2.62  53 2.71  23 2.79  62 2.80
                            34 2.84
  36  0.046  0.632  0.040-  21 2.52  35 2.57  58 2.57  34 2.59  50 2.60  72 2.69  47 2.69  71 2.80
                            40 2.81
  37  0.628  0.225  0.130-  67 2.51  51 2.51  56 2.52  74 2.55  20 2.55  68 2.56  59 2.56  41 2.58
                            62 2.59  66 2.72  57 2.81  48 3.01
  38  0.383  0.954  0.131-  53 2.46  80 2.47  45 2.47  78 2.53  63 2.55  73 2.57  55 2.57  48 2.58
                            54 2.59  24 2.68  57 2.68  70 2.73
  39  0.035  0.384  0.323-  29 2.58   3 2.61  75 2.63  22 2.63  42 2.64  31 2.65  10 2.66   7 2.67
                            33 2.69   5 2.70  65 2.73  43 2.85
  40  0.026  0.381  0.040-  69 2.42  21 2.52  76 2.55  71 2.56  70 2.56  23 2.62  36 2.81  45 2.87
                            47 2.92
  41  0.872  0.215  0.130-  76 2.45  77 2.51  65 2.52  67 2.53  62 2.57  37 2.58  23 2.60  69 2.61
                            51 2.63  66 2.70  70 2.70  24 2.78
  42  0.955  0.544  0.224-  50 2.54  29 2.55  21 2.60  69 2.60  28 2.62  39 2.64  32 2.65  65 2.67
                            49 2.67  64 2.71  33 2.72  31 2.76
  43  0.297  0.116  0.320-  55 2.52  31 2.58   8 2.59  52 2.60  19 2.60  61 2.61  22 2.62  80 2.63
                            10 2.71  13 2.74   3 2.76  39 2.85
  44  0.541  0.629  0.321-  61 2.62  78 2.62  52 2.63  14 2.66  15 2.67  32 2.68  27 2.68  18 2.69
                            30 2.69  75 2.69  29 2.71  26 2.73
  45  0.295  0.116  0.043-  70 2.47  38 2.47  57 2.57  53 2.60  23 2.66  63 2.67  20 2.76  40 2.87
                            47 2.87
  46  0.550  0.625  0.046-  51 2.38  73 2.40  54 2.40  71 2.58  53 2.61  63 2.63  76 2.64  56 2.66
                            72 2.70
  47  0.297  0.382  0.042-  74 2.38  21 2.52  57 2.61  72 2.64  56 2.64  36 2.69  20 2.75  45 2.87
                            40 2.92
  48  0.625  0.947  0.134-  49 2.39  80 2.48  54 2.49  34 2.50  63 2.55  59 2.56  20 2.57  38 2.58
                            50 2.61  57 2.72  66 2.76  37 3.01
  49  0.707  0.793  0.220-  48 2.39  50 2.47  54 2.49  80 2.59   1 2.61  32 2.61  61 2.64  28 2.64
                            78 2.66  42 2.67  29 2.67  59 2.77
  50  0.864  0.703  0.130-  34 2.37  71 2.41  49 2.47  54 2.50  42 2.54  28 2.58  69 2.59  36 2.60
                            48 2.61  21 2.68  66 2.86
  51  0.627  0.459  0.128-  46 2.38  76 2.45  56 2.51  37 2.51  26 2.56  32 2.58  67 2.63  41 2.63
                            69 2.65  73 2.66  74 2.67  54 2.76
  52  0.298  0.874  0.318-  55 2.43  79 2.52  78 2.52  61 2.59  43 2.60  44 2.63  30 2.65   8 2.67
                             2 2.71  14 2.72  22 2.77   6 2.78
  53  0.307  0.869  0.043-  73 2.41  38 2.46  24 2.58  63 2.58  45 2.60  46 2.61  72 2.65  35 2.71
                            23 2.85
  54  0.626  0.716  0.129-  46 2.40  71 2.46  63 2.48  49 2.49  48 2.49  50 2.50  32 2.54  38 2.59
                            73 2.60  78 2.62  69 2.73  51 2.76
  55  0.226  0.027  0.228-  52 2.43  78 2.49  43 2.52  79 2.52  22 2.54  80 2.55  38 2.57  24 2.59
                            31 2.59  70 2.73  77 2.78  65 2.95
  56  0.542  0.382  0.037-  74 2.50  51 2.51  37 2.52  72 2.64  47 2.64  76 2.65  46 2.66  20 2.76
                            62 2.76
  57  0.377  0.206  0.134-  68 2.47  20 2.55  80 2.55  45 2.57  31 2.59  47 2.61  70 2.68  74 2.68
                            38 2.68  48 2.72  21 2.76  37 2.81
  58  0.139  0.705  0.134-  72 2.45  64 2.50  35 2.53  79 2.56  28 2.56  36 2.57  74 2.67  24 2.69
                            73 2.71  21 2.75
  59  0.704  0.051  0.220-  66 2.52  37 2.56  48 2.56  19 2.60  60 2.61  68 2.63   1 2.64  67 2.65
                            77 2.72  80 2.74  49 2.77  28 2.77
  60  0.793  0.129  0.316-  67 2.52  77 2.57  59 2.61  18 2.65   2 2.67   9 2.70  75 2.71   1 2.72
                            22 2.74  17 2.76   4 2.80  19 2.81
  61  0.539  0.873  0.317-  78 2.48  80 2.52  52 2.59  43 2.61  44 2.62  49 2.64  19 2.69   1 2.70
                             8 2.70  29 2.72  27 2.74  11 2.80
  62  0.796  0.123  0.038-  66 2.52  41 2.57  37 2.59  23 2.67  20 2.68  76 2.70  56 2.76  35 2.80
                            34 2.83
  63  0.545  0.871  0.038-  54 2.48  38 2.55  48 2.55  53 2.58  46 2.63  34 2.64  45 2.67  71 2.67
                            20 2.73
  64  0.208  0.542  0.224-  58 2.50   3 2.56  30 2.60  21 2.63  74 2.66  28 2.68  68 2.68  26 2.69
                            33 2.69  42 2.71  79 2.79  31 2.87
  65  0.950  0.299  0.222-  69 2.51  41 2.52  22 2.53  67 2.56  31 2.60  77 2.60  75 2.61  70 2.62
                            42 2.67  32 2.67  39 2.73  55 2.95
  66  0.872  0.965  0.131-  34 2.51  59 2.52  62 2.52  77 2.57  28 2.58  35 2.62  41 2.70  37 2.72
                            24 2.75  48 2.76  50 2.86
  67  0.716  0.291  0.224-  37 2.51  60 2.52  41 2.53  18 2.56  77 2.56  65 2.56  75 2.62  51 2.63
                            59 2.65  32 2.74  68 2.77  26 2.78
  68  0.457  0.293  0.221-  57 2.47  74 2.52  37 2.56  19 2.57  59 2.63  18 2.64  64 2.68   3 2.70
                            26 2.72  67 2.77  80 2.82  31 2.84
  69  0.875  0.457  0.129-  40 2.42  71 2.45  76 2.46  65 2.51  32 2.56  50 2.59  42 2.60  41 2.61
                            21 2.65  51 2.65  70 2.71  54 2.73
  70  0.127  0.207  0.130-  45 2.47  31 2.51  40 2.56  23 2.57  65 2.62  24 2.66  21 2.68  57 2.68
                            41 2.70  69 2.71  38 2.73  55 2.73
  71  0.791  0.621  0.042-  50 2.41  69 2.45  54 2.46  40 2.56  46 2.58  34 2.61  76 2.63  63 2.67
                            36 2.80
  72  0.298  0.627  0.045-  74 2.45  58 2.45  73 2.48  35 2.57  47 2.64  56 2.64  53 2.65  36 2.69
                            46 2.70
  73  0.386  0.713  0.130-  46 2.40  53 2.41  72 2.48  26 2.50  78 2.55  38 2.57  54 2.60  79 2.62
                            51 2.66  24 2.69  58 2.71  74 2.83
  74  0.382  0.452  0.128-  47 2.38  72 2.45  56 2.50  68 2.52  26 2.54  37 2.55  64 2.66  51 2.67
                            58 2.67  57 2.68  21 2.79  73 2.83
  75  0.793  0.381  0.320-  65 2.61  67 2.62  29 2.62  39 2.63   9 2.65  18 2.67  22 2.68  32 2.69
                            44 2.69  15 2.70  60 2.71   7 2.72
  76  0.791  0.377  0.042-  51 2.45  41 2.45  69 2.46  40 2.55  71 2.63  46 2.64  56 2.65  23 2.67
                            62 2.70
  77  0.955  0.054  0.222-  41 2.51  24 2.55  67 2.56  22 2.57  60 2.57  66 2.57   2 2.60  65 2.60
                            59 2.72  79 2.78  55 2.78  28 2.87
  78  0.459  0.796  0.225-  61 2.48  55 2.49  80 2.52  52 2.52  38 2.53  73 2.55  79 2.61  44 2.62
                            54 2.62  32 2.65  49 2.66  26 2.70
  79  0.216  0.798  0.225-  24 2.51  52 2.52  55 2.52   2 2.55  58 2.56  30 2.56  78 2.61  73 2.62
                            26 2.64  77 2.78  64 2.79  28 2.86
  80  0.462  0.029  0.223-  38 2.47  48 2.48  78 2.52  61 2.52  55 2.55  19 2.55  57 2.55  49 2.59
                            43 2.63  59 2.74  31 2.75  68 2.82
  81  0.955  0.055  0.466-   9 1.83   6 1.88   4 1.89
 
  LATTYP: Found a hexagonal cell.
 ALAT       =    10.7600002289
 C/A-ratio  =     2.0446096219
  
  Lattice vectors:
  
 A1 = (   5.3800001145,  -9.3184335429,   0.0000000000)
 A2 = ( -10.7600002289,   0.0000000000,   0.0000000000)
 A3 = (   0.0000000000,   0.0000000000, -22.0000000000)


Analysis of symmetry for initial positions (statically):
=====================================================================
 Subroutine PRICEL returns:
 Original cell was already a primitive cell.
 

 Routine SETGRP: Setting up the symmetry group for a 
 hexagonal supercell.


 Subroutine GETGRP returns: Found  1 space group operations
 (whereof  1 operations were pure point group operations)
 out of a pool of 24 trial point group operations.


The static configuration has the point symmetry C_1 .


Analysis of symmetry for dynamics (positions and initial velocities):
=====================================================================
 Subroutine PRICEL returns:
 Original cell was already a primitive cell.
 

 Routine SETGRP: Setting up the symmetry group for a 
 hexagonal supercell.


 Subroutine GETGRP returns: Found  1 space group operations
 (whereof  1 operations were pure point group operations)
 out of a pool of 24 trial point group operations.


The dynamic configuration has the point symmetry C_1 .


Analysis of constrained symmetry for selective dynamics:
=====================================================================
 Subroutine PRICEL returns:
 Original cell was already a primitive cell.
 

 Routine SETGRP: Setting up the symmetry group for a 
 hexagonal supercell.


 Subroutine GETGRP returns: Found  1 space group operations
 (whereof  1 operations were pure point group operations)
 out of a pool of 24 trial point group operations.


The constrained configuration has the point symmetry C_1 .


Analysis of structural, dynamic, and magnetic symmetry:
=====================================================================
 Subroutine PRICEL returns:
 Original cell was already a primitive cell.
 

 Routine SETGRP: Setting up the symmetry group for a 
 hexagonal supercell.


 Subroutine GETGRP returns: Found  1 space group operations
 (whereof  1 operations were pure point group operations)
 out of a pool of 24 trial point group operations.


The magnetic configuration has the point symmetry C_1 .


 Subroutine INISYM returns: Found  1 space group operations
 (whereof  1 operations are pure point group operations),
 and found     1 'primitive' translations

 
 
 KPOINTS: mesh auto                               

Automatic generation of k-mesh.
Space group operators:
 irot       det(A)        alpha          n_x          n_y          n_z        tau_x        tau_y        tau_z
    1     1.000000     0.000001     1.000000     0.000000     0.000000     0.000000     0.000000     0.000000
 
 Subroutine IBZKPT returns following result:
 ===========================================
 
 Found      4 irreducible k-points:
 
 Following reciprocal coordinates:
            Coordinates               Weight
  0.000000  0.000000  0.000000      1.000000
  0.500000  0.000000  0.000000      1.000000
  0.000000  0.500000  0.000000      1.000000
  0.500000  0.500000  0.000000      1.000000
 
 Following cartesian coordinates:
            Coordinates               Weight
  0.000000  0.000000  0.000000      1.000000
  0.046468 -0.026829  0.000000      1.000000
  0.000000  0.053657  0.000000      1.000000
  0.046468  0.026829  0.000000      1.000000
 


--------------------------------------------------------------------------------------------------------




 Dimension of arrays:
   k-points           NKPTS =      4   k-points in BZ     NKDIM =      4   number of bands    NBANDS=    588
   number of dos      NEDOS =    301   number of ions     NIONS =     81
   non local maximal  LDIM  =      6   non local SUM 2l+1 LMDIM =     18
   total plane-waves  NPLWV = ******
   max r-space proj   IRMAX =   7517   max aug-charges    IRDMAX=  32744
   dimension x,y,z NGX =    84 NGY =   84 NGZ =  168
   dimension x,y,z NGXF=   168 NGYF=  168 NGZF=  336
   support grid    NGXF=   168 NGYF=  168 NGZF=  336
   ions per type =              32  13  10  13  12   1
   NGX,Y,Z   is equivalent  to a cutoff of  12.98, 12.98, 12.70 a.u.
   NGXF,Y,Z  is equivalent  to a cutoff of  25.96, 25.96, 25.39 a.u.

 SYSTEM =  Pt111                                   
 POSCAR =  10.76                                   

 Startparameter for this run:
   NWRITE =      2    write-flag & timer
   PREC   = accura    normal or accurate (medium, high low for compatibility)
   ISTART =      0    job   : 0-new  1-cont  2-samecut
   ICHARG =      2    charge: 1-file 2-atom 10-const
   ISPIN  =      2    spin polarized calculation?
   LNONCOLLINEAR =      F non collinear calculations
   LSORBIT =      F    spin-orbit coupling
   INIWAV =      1    electr: 0-lowe 1-rand  2-diag
   LASPH  =      F    aspherical Exc in radial PAW
   METAGGA=      F    non-selfconsistent MetaGGA calc.

 Electronic Relaxation 1
   ENCUT  =  550.0 eV  40.42 Ry    6.36 a.u.  20.58 20.58 42.07*2*pi/ulx,y,z
   ENINI  =  550.0     initial cutoff
   ENAUG  =  587.0 eV  augmentation charge cutoff
   NELM   =    200;   NELMIN=  2; NELMDL= -5     # of ELM steps 
   EDIFF  = 0.1E-04   stopping-criterion for ELM
   LREAL  =      T    real-space projection
   NLSPLINE    = F    spline interpolate recip. space projectors
   LCOMPAT=      F    compatible to vasp.4.4
   GGA_COMPAT  = T    GGA compatible to vasp.4.4-vasp.4.6
   LMAXPAW     = -100 max onsite density
   LMAXMIX     =    2 max onsite mixed and CHGCAR
   VOSKOWN=      0    Vosko Wilk Nusair interpolation
   ROPT   =   -0.00025  -0.00025  -0.00025  -0.00025
   ROPT   =   -0.00025  -0.00025
 Ionic relaxation
   EDIFFG = -.5E-01   stopping-criterion for IOM
   NSW    =    300    number of steps for IOM
   NBLOCK =      1;   KBLOCK =    300    inner block; outer block 
   IBRION =      2    ionic relax: 0-MD 1-quasi-New 2-CG
   NFREE  =      1    steps in history (QN), initial steepest desc. (CG)
   ISIF   =      2    stress and relaxation
   IWAVPR =     11    prediction:  0-non 1-charg 2-wave 3-comb
   ISYM   =      2    0-nonsym 1-usesym 2-fastsym
   LCORR  =      T    Harris-Foulkes like correction to forces

   POTIM  = 0.5000    time-step for ionic-motion
   TEIN   =    0.0    initial temperature
   TEBEG  =    0.0;   TEEND  =   0.0 temperature during run
   SMASS  =  -3.00    Nose mass-parameter (am)
   estimated Nose-frequenzy (Omega)   =  0.10E-29 period in steps =****** mass=  -0.265E-26a.u.
   SCALEE = 1.0000    scale energy and forces
   NPACO  =    256;   APACO  = 16.0  distance and # of slots for P.C.
   PSTRESS=    0.0 pullay stress

  Mass of Ions in am
   POMASS = 195.08 55.85 58.93 63.55 58.69  1.00
  Ionic Valenz
   ZVAL   =  10.00  8.00  9.00 11.00 10.00  1.00
  Atomic Wigner-Seitz radii
   RWIGS  =  -1.00 -1.00 -1.00 -1.00 -1.00 -1.00
  virtual crystal weights 
   VCA    =   1.00  1.00  1.00  1.00  1.00  1.00
   NELECT =     778.0000    total number of electrons
   NUPDOWN=      -1.0000    fix difference up-down

 DOS related values:
   EMIN   =  10.00;   EMAX   =-10.00  energy-range for DOS
   EFERMI =   0.00
   ISMEAR =     1;   SIGMA  =   0.10  broadening in eV -4-tet -1-fermi 0-gaus

 Electronic relaxation 2 (details)
   IALGO  =     68    algorithm
   LDIAG  =      T    sub-space diagonalisation (order eigenvalues)
   LSUBROT=      F    optimize rotation matrix (better conditioning)
   TURBO    =      0    0=normal 1=particle mesh
   IRESTART =      0    0=no restart 2=restart with 2 vectors
   NREBOOT  =      0    no. of reboots
   NMIN     =      0    reboot dimension
   EREF     =   0.00    reference energy to select bands
   IMIX   =      4    mixing-type and parameters
     AMIX     =   0.40;   BMIX     =  1.00
     AMIX_MAG =   1.60;   BMIX_MAG =  1.00
     AMIN     =   0.10
     WC   =   100.;   INIMIX=   1;  MIXPRE=   1;  MAXMIX= -45

 Intra band minimization:
   WEIMIN = 0.0010     energy-eigenvalue tresh-hold
   EBREAK =  0.43E-08  absolut break condition
   DEPER  =   0.30     relativ break condition  

   TIME   =   0.40     timestep for ELM

  volume/ion in A,a.u.               =      27.23       183.78
  Fermi-wavevector in a.u.,A,eV,Ry     =   1.156668  2.185786 18.202976  1.337881
  Thomas-Fermi vector in A             =   2.293286
 
 Write flags
   LWAVE        =      F    write WAVECAR
   LDOWNSAMPLE  =      F    k-point downsampling of WAVECAR
   LCHARG       =      F    write CHGCAR
   LVTOT        =      F    write LOCPOT, total local potential
   LVHAR        =      F    write LOCPOT, Hartree potential only
   LELF         =      F    write electronic localiz. function (ELF)
   LORBIT       =      0    0 simple, 1 ext, 2 COOP (PROOUT), +10 PAW based schemes


 Dipole corrections
   LMONO  =      F    monopole corrections only (constant potential shift)
   LDIPOL =      F    correct potential (dipole corrections)
   IDIPOL =      0    1-x, 2-y, 3-z, 4-all directions 
   EPSILON=  1.0000000 bulk dielectric constant

 Exchange correlation treatment:
   GGA     =    --    GGA type
   LEXCH   =     8    internal setting for exchange type
   VOSKOWN=      0    Vosko Wilk Nusair interpolation
   LHFCALC =     F    Hartree Fock is set to
   LHFONE  =     F    Hartree Fock one center treatment
   AEXX    =    0.0000 exact exchange contribution

 Linear response parameters
   LEPSILON=     F    determine dielectric tensor
   LRPA    =     F    only Hartree local field effects (RPA)
   LNABLA  =     F    use nabla operator in PAW spheres
   LVEL    =     F    velocity operator in full k-point grid
   LINTERFAST=   F  fast interpolation
   KINTER  =     0    interpolate to denser k-point grid
   CSHIFT  =0.1000    complex shift for real part using Kramers Kronig
   OMEGAMAX=  -1.0    maximum frequency
   DEG_THRESHOLD= 0.2000000E-02 threshold for treating states as degnerate
   RTIME   =   -0.100 relaxation time in fs
  (WPLASMAI=    0.000 imaginary part of plasma frequency in eV, 0.658/RTIME)
   DFIELD  = 0.0000000 0.0000000 0.0000000 field for delta impulse in time
 
 Orbital magnetization related:
   ORBITALMAG=     F  switch on orbital magnetization
   LCHIMAG   =     F  perturbation theory with respect to B field
   DQ        =  0.001000  dq finite difference perturbation B field
   LLRAUG    =     F  two centre corrections for induced B field



--------------------------------------------------------------------------------------------------------


 conjugate gradient relaxation of ions
   using selective dynamics as specified on POSCAR
 charge density and potential will be updated during run
 spin polarized calculation
 RMM-DIIS sequential band-by-band and
  variant of blocked Davidson during initial phase
 perform sub-space diagonalisation
    before iterative eigenvector-optimisation
 modified Broyden-mixing scheme, WC =      100.0
 initial mixing is a Kerker type mixing with AMIX =  0.4000 and BMIX =      1.0000
 Hartree-type preconditioning will be used
 using additional bands          199
 real space projection scheme for non local part
 use partial core corrections
 calculate Harris-corrections to forces 
   (improved forces if not selfconsistent)
 use gradient corrections 
 use of overlap-Matrix (Vanderbilt PP)
 Methfessel and Paxton  Order N= 1 SIGMA  =   0.10


--------------------------------------------------------------------------------------------------------


  energy-cutoff  :      550.00
  volume of cell :     2205.86
      direct lattice vectors                 reciprocal lattice vectors
    10.760000229  0.000000000  0.000000000     0.092936801 -0.053657087  0.000000000
     5.380000114  9.318433543  0.000000000     0.000000000  0.107314174  0.000000000
     0.000000000  0.000000000 22.000000000     0.000000000  0.000000000  0.045454545

  length of vectors
    10.760000229 10.760000229 22.000000000     0.107314174  0.107314174  0.045454545


 
 k-points in units of 2pi/SCALE and weight: mesh auto                               
   0.00000000  0.00000000  0.00000000       0.250
   0.04646840 -0.02682854  0.00000000       0.250
   0.00000000  0.05365709  0.00000000       0.250
   0.04646840  0.02682854  0.00000000       0.250
 
 k-points in reciprocal lattice and weights: mesh auto                               
   0.00000000  0.00000000  0.00000000       0.250
   0.50000000  0.00000000  0.00000000       0.250
   0.00000000  0.50000000  0.00000000       0.250
   0.50000000  0.50000000  0.00000000       0.250
 
 position of ions in fractional coordinates (direct lattice) 
   0.78630364  0.87985516  0.31579062
   0.04224145  0.88241600  0.31447087
   0.27901334  0.38063736  0.31781889
   0.87059820  0.96425044  0.42229538
   0.11985466  0.46347373  0.42381962
   0.12534141  0.96365774  0.42039088
   0.87435511  0.45921883  0.42339424
   0.37365696  0.96026939  0.41753756
   0.87155940  0.21408433  0.41720951
   0.12547606  0.21244857  0.41934278
   0.62422563  0.96044136  0.42042077
   0.87200071  0.70988016  0.42286043
   0.37417258  0.20904536  0.42138655
   0.37802308  0.71127443  0.42019954
   0.62568644  0.46188242  0.41983128
   0.12633321  0.70689834  0.42512744
   0.62399740  0.21084321  0.41900992
   0.54776837  0.37585151  0.31592551
   0.53367310  0.12508775  0.31375184
   0.54792673  0.12328922  0.04383544
   0.11934534  0.45972459  0.12874496
   0.04423495  0.13553346  0.31339626
   0.04080409  0.13114989  0.03536365
   0.13130448  0.95799902  0.13303643
   0.37415327  0.46114175  0.42243279
   0.45548595  0.54686581  0.21920607
   0.62191861  0.71206042  0.42107375
   0.95569127  0.78735065  0.22050316
   0.79499587  0.62310480  0.31818313
   0.28974496  0.63167392  0.31731182
   0.20123751  0.27885537  0.22539603
   0.70531330  0.55071706  0.22107616
   0.04021377  0.63182323  0.32341881
   0.79547831  0.86112383  0.04571520
   0.05752126  0.86417890  0.04095355
   0.04560842  0.63181793  0.04035269
   0.62783056  0.22534483  0.13048248
   0.38256550  0.95351772  0.13142638
   0.03521903  0.38395190  0.32275966
   0.02606154  0.38108859  0.04031026
   0.87237117  0.21512876  0.12980204
   0.95473355  0.54429733  0.22390732
   0.29689872  0.11600876  0.32000987
   0.54070692  0.62864430  0.32103635
   0.29497516  0.11635164  0.04266773
   0.54978575  0.62534505  0.04613061
   0.29695661  0.38236522  0.04225645
   0.62494582  0.94748125  0.13365829
   0.70737833  0.79257412  0.22040958
   0.86436375  0.70296060  0.12998592
   0.62697878  0.45925237  0.12844896
   0.29789209  0.87406327  0.31758793
   0.30717798  0.86850230  0.04269928
   0.62598466  0.71583948  0.12941889
   0.22636977  0.02657626  0.22776586
   0.54227868  0.38236495  0.03729113
   0.37702362  0.20555691  0.13422710
   0.13865409  0.70465584  0.13379824
   0.70443847  0.05100720  0.22039029
   0.79292857  0.12924932  0.31584784
   0.53873159  0.87286112  0.31655115
   0.79646401  0.12292985  0.03752709
   0.54537813  0.87134059  0.03811632
   0.20799686  0.54236125  0.22387311
   0.95025177  0.29885657  0.22184935
   0.87213940  0.96454459  0.13055765
   0.71606081  0.29079466  0.22408721
   0.45720633  0.29314346  0.22115087
   0.87466671  0.45688038  0.12942461
   0.12748153  0.20654114  0.12968723
   0.79120473  0.62110974  0.04224622
   0.29782181  0.62682596  0.04505060
   0.38631574  0.71285295  0.13020276
   0.38227049  0.45188866  0.12824332
   0.79281427  0.38079923  0.31974615
   0.79144401  0.37652223  0.04177987
   0.95541234  0.05424527  0.22153844
   0.45873218  0.79628882  0.22538547
   0.21584487  0.79782265  0.22481112
   0.46163445  0.02868030  0.22280218
   0.95504457  0.05468475  0.46576459
 
 position of ions in cartesian coordinates  (Angst):
  13.19424822  8.19887186  6.94739367
   5.20191625  8.22273487  6.91835920
   5.05001263  3.54694393  6.99201568
  14.55530436  8.98530365  9.29049844
   3.78312494  4.31884917  9.32403160
   6.53315229  8.97978059  9.24859929
  11.87865858  4.27920019  9.31467326
   9.18679843  8.94820646  9.18582643
  10.52975302  1.99493057  9.17860932
   2.49309574  1.97968788  9.22554119
  11.88384260  8.94980901  9.24925697
  13.20188321  6.61497109  9.30292954
   5.15076115  1.94797528  9.27050407
   7.89418501  6.62796355  9.24438998
   9.21731369  4.30402065  9.23628810
   5.16245853  6.58718519  9.35280366
   7.84854866  1.96472843  9.21821827
   7.91606892  3.50234732  6.95036118
   6.41529472  1.16562184  6.90254055
   6.55898775  1.14886237  0.96437977
   3.75747418  4.28391300  2.83238908
   1.20513812  1.26295949  6.89471779
   1.14463842  1.22211154  0.77800032
   6.56687105  8.92705020  2.92680150
   6.50683193  4.29711880  9.29352134
   7.84316702  5.09593270  4.82253351
  10.52272949  6.63528772  9.26362240
  14.51918494  7.33687474  4.85106957
  11.90645966  5.80636069  7.00002893
   6.51606159  5.88621141  6.98086013
   3.66555757  2.59849521  4.95871257
  10.55202913  5.13182036  4.86367551
   3.83190924  5.88760283  7.11521375
  13.19219308  8.02432517  1.00573441
   5.26821132  8.05279369  0.90097800
   3.88992717  5.88755336  0.88775920
   7.96781219  2.09986084  2.87061459
   9.24633038  8.88529155  2.89138037
   2.44461807  3.57783030  7.10071246
   2.33067882  3.55114870  0.88682572
  10.54410677  2.00466306  2.85564487
  13.20125292  5.07199845  4.92596105
   3.81875744  1.08101994  7.04021717
   9.20011306  5.85798017  7.06279970
   3.79990464  1.08421507  0.93869010
   9.28005122  5.82723631  1.01487350
   5.25237804  3.56304485  0.92964181
  11.82186637  8.82904104  2.94048247
  11.87543982  7.38554930  4.84901070
  13.08248223  6.55049166  2.85969017
   9.21706959  4.27951266  2.82587719
   7.90777947  8.14490051  6.98693446
   7.97777754  8.09308092  0.93938418
  10.58681158  6.67050258  2.84721558
   2.57871913  0.24764915  5.01084896
   7.89204220  3.56304242  0.82040476
   5.16267047  1.91546844  2.95299618
   5.28296656  6.56628862  2.94356121
   7.85417690  0.47530725  4.84858632
   9.22727294  1.20440124  6.94865257
  10.49274493  8.13369836  6.96412523
   9.23131555  1.14551366  0.82559594
  10.55608126  8.11952937  0.83855902
   5.15594988  5.05395730  4.92520835
  11.83255762  2.78487505  4.88068561
  14.57347016  8.98804467  2.87226841
   9.26928977  2.70975073  4.92991863
   6.49665205  2.73163781  4.86531912
  11.86943045  4.25740942  2.84734150
   2.48289262  1.92463988  2.85311896
  11.85493352  5.78776983  0.92941673
   6.57688653  5.84103608  0.99111319
   7.99190642  6.64267286  2.86446066
   6.54439165  4.21089446  2.82135314
  10.57938165  3.54845234  7.03441524
  10.54162732  3.50859735  0.91915711
  10.57207652  0.50548096  4.87384564
   9.21999232  7.42016445  4.95848029
   6.61477676  7.43445734  4.94584463
   5.12148683  0.26725547  4.90164786
  10.57048379  0.50957619 10.24682090
 


--------------------------------------------------------------------------------------------------------


 k-point  1 :   0.0000 0.0000 0.0000  plane waves:   64687
 k-point  2 :   0.5000 0.0000 0.0000  plane waves:   64612
 k-point  3 :   0.0000 0.5000 0.0000  plane waves:   64612
 k-point  4 :   0.5000 0.5000 0.0000  plane waves:   64612

 maximum and minimum number of plane-waves per node :     16191    16134

 maximum number of plane-waves:     64687
 maximum index in each direction: 
   IXMAX=   20   IYMAX=   20   IZMAX=   42
   IXMIN=  -21   IYMIN=  -21   IZMIN=  -42


 real space projection operators:
  total allocation   :      74970.58 KBytes
  max/ min on nodes  :      18753.91      18730.65


 parallel 3D FFT for wavefunctions:
    minimum data exchange during FFTs selected (reduces bandwidth)
 parallel 3D FFT for charge:
    minimum data exchange during FFTs selected (reduces bandwidth)


 total amount of memory used by VASP MPI-rank0   233093. kBytes
=======================================================================

   base      :      30000. kBytes
   nonlr-proj:      33408. kBytes
   fftplans  :      16137. kBytes
   grid      :      49182. kBytes
   one-center:        653. kBytes
   wavefun   :     103713. kBytes
 
     INWAV:  cpu time    0.0000: real time    0.0000
 Broyden mixing: mesh for mixing (old mesh)
   NGX = 41   NGY = 41   NGZ = 85
  (NGX  =168   NGY  =168   NGZ  =336)
  gives a total of 142885 points

 initial charge density was supplied:
 charge density of overlapping atoms calculated
 number of electron     778.0000000 magnetization     231.0000000
 keeping initial charge density in first step


--------------------------------------------------------------------------------------------------------


 Maximum index for non-local projection operator         1828
 Maximum index for augmentation-charges         1428 (set IRDMAX)


--------------------------------------------------------------------------------------------------------


 First call to EWALD:  gamma=   0.136
 Maximum number of real-space cells 4x 4x 2
 Maximum number of reciprocal cells 2x 2x 4

    FEWALD:  cpu time    0.0045: real time    0.0048


--------------------------------------- Iteration      1(   1)  ---------------------------------------


    POTLOK:  cpu time    0.3755: real time    0.4435
    SETDIJ:  cpu time    0.0392: real time    0.0444
     EDDAV:  cpu time   59.8622: real time   60.0290
       DOS:  cpu time    0.0038: real time    0.0120
    --------------------------------------------
      LOOP:  cpu time   60.2808: real time   60.5290

 eigenvalue-minimisations  :  9408
 total energy-change (2. order) : 0.7766587E+04  (-0.3290338E+05)
 number of electron     778.0000000 magnetization     231.0000000
 augmentation part      778.0000000 magnetization     231.0000000

 Free energy of the ion-electron system (eV)
  ---------------------------------------------------
  alpha Z        PSCENC =      2156.50569604
  Ewald energy   TEWEN  =    221619.00789272
  -Hartree energ DENC   =   -293647.53543652
  -exchange      EXHF   =         0.00000000
  -V(xc)+E(xc)   XCENC  =      1381.51814271
  PAW double counting   =     64136.80006862   -66038.70876209
  entropy T*S    EENTRO =        -0.00268141
  eigenvalues    EBANDS =      7940.34767016
  atomic energy  EATOM  =     70218.65458108
  Solvation  Ediel_sol  =         0.00000000
  ---------------------------------------------------
  free energy    TOTEN  =      7766.58717131 eV

  energy without entropy =     7766.58985272  energy(sigma->0) =     7766.58806512


--------------------------------------------------------------------------------------------------------




--------------------------------------- Iteration      1(   2)  ---------------------------------------


     EDDAV:  cpu time   59.8572: real time   60.0182
       DOS:  cpu time    0.0026: real time    0.0027
    --------------------------------------------
      LOOP:  cpu time   59.8598: real time   60.0209

 eigenvalue-minimisations  :  9408
 total energy-change (2. order) :-0.6953847E+04  (-0.6223309E+04)
 number of electron     778.0000000 magnetization     231.0000000
 augmentation part      778.0000000 magnetization     231.0000000

 Free energy of the ion-electron system (eV)
  ---------------------------------------------------
  alpha Z        PSCENC =      2156.50569604
  Ewald energy   TEWEN  =    221619.00789272
  -Hartree energ DENC   =   -293647.53543652
  -exchange      EXHF   =         0.00000000
  -V(xc)+E(xc)   XCENC  =      1381.51814271
  PAW double counting   =     64136.80006862   -66038.70876209
  entropy T*S    EENTRO =         0.00063304
  eigenvalues    EBANDS =       986.49688919
  atomic energy  EATOM  =     70218.65458108
  Solvation  Ediel_sol  =         0.00000000
  ---------------------------------------------------
  free energy    TOTEN  =       812.73970479 eV

  energy without entropy =      812.73907175  energy(sigma->0) =      812.73949378


--------------------------------------------------------------------------------------------------------




--------------------------------------- Iteration      1(   3)  ---------------------------------------


     EDDAV:  cpu time   59.8297: real time   59.9989
       DOS:  cpu time    0.0026: real time    0.0028
    --------------------------------------------
      LOOP:  cpu time   59.8323: real time   60.0018

 eigenvalue-minimisations  :  9408
 total energy-change (2. order) :-0.1188847E+04  (-0.9629732E+03)
 number of electron     778.0000000 magnetization     231.0000000
 augmentation part      778.0000000 magnetization     231.0000000

 Free energy of the ion-electron system (eV)
  ---------------------------------------------------
  alpha Z        PSCENC =      2156.50569604
  Ewald energy   TEWEN  =    221619.00789272
  -Hartree energ DENC   =   -293647.53543652
  -exchange      EXHF   =         0.00000000
  -V(xc)+E(xc)   XCENC  =      1381.51814271
  PAW double counting   =     64136.80006862   -66038.70876209
  entropy T*S    EENTRO =        -0.00304088
  eigenvalues    EBANDS =      -202.34635201
  atomic energy  EATOM  =     70218.65458108
  Solvation  Ediel_sol  =         0.00000000
  ---------------------------------------------------
  free energy    TOTEN  =      -376.10721033 eV

  energy without entropy =     -376.10416945  energy(sigma->0) =     -376.10619670


--------------------------------------------------------------------------------------------------------




--------------------------------------- Iteration      1(   4)  ---------------------------------------


     EDDAV:  cpu time   71.6489: real time   71.8530
       DOS:  cpu time    0.0049: real time    0.0900
    --------------------------------------------
      LOOP:  cpu time   71.6538: real time   71.9430

 eigenvalue-minimisations  : 11868
 total energy-change (2. order) :-0.1167936E+03  (-0.1067288E+03)
 number of electron     778.0000000 magnetization     231.0000000
 augmentation part      778.0000000 magnetization     231.0000000

 Free energy of the ion-electron system (eV)
  ---------------------------------------------------
  alpha Z        PSCENC =      2156.50569604
  Ewald energy   TEWEN  =    221619.00789272
  -Hartree energ DENC   =   -293647.53543652
  -exchange      EXHF   =         0.00000000
  -V(xc)+E(xc)   XCENC  =      1381.51814271
  PAW double counting   =     64136.80006862   -66038.70876209
  entropy T*S    EENTRO =        -0.00946632
  eigenvalues    EBANDS =      -319.13350259
  atomic energy  EATOM  =     70218.65458108
  Solvation  Ediel_sol  =         0.00000000
  ---------------------------------------------------
  free energy    TOTEN  =      -492.90078635 eV

  energy without entropy =     -492.89132003  energy(sigma->0) =     -492.89763091


--------------------------------------------------------------------------------------------------------




--------------------------------------- Iteration      1(   5)  ---------------------------------------


     EDDAV:  cpu time   68.5944: real time   69.0338
       DOS:  cpu time    0.0029: real time    0.0224
    CHARGE:  cpu time    3.7861: real time    3.8362
    MIXING:  cpu time    0.0112: real time    0.0161
    --------------------------------------------
      LOOP:  cpu time   72.3945: real time   72.9085

 eigenvalue-minimisations  : 11232
 total energy-change (2. order) :-0.4387249E+01  (-0.4350937E+01)
 number of electron     777.9999975 magnetization     216.6356387
 augmentation part      335.1190716 magnetization     183.8307786

 Broyden mixing:
  rms(total) = 0.11565E+02    rms(broyden)= 0.11565E+02
  rms(prec ) = 0.11900E+02
  weight for this iteration     100.00

 Free energy of the ion-electron system (eV)
  ---------------------------------------------------
  alpha Z        PSCENC =      2156.50569604
  Ewald energy   TEWEN  =    221619.00789272
  -Hartree energ DENC   =   -293647.53543652
  -exchange      EXHF   =         0.00000000
  -V(xc)+E(xc)   XCENC  =      1381.51814271
  PAW double counting   =     64136.80006862   -66038.70876209
  entropy T*S    EENTRO =        -0.01000357
  eigenvalues    EBANDS =      -323.52021468
  atomic energy  EATOM  =     70218.65458108
  Solvation  Ediel_sol  =         0.00000000
  ---------------------------------------------------
  free energy    TOTEN  =      -497.28803569 eV

  energy without entropy =     -497.27803212  energy(sigma->0) =     -497.28470116


--------------------------------------------------------------------------------------------------------




--------------------------------------- Iteration      1(   6)  ---------------------------------------


    POTLOK:  cpu time    0.3487: real time    0.4453
    SETDIJ:  cpu time    0.0310: real time    0.0312
    EDDIAG:  cpu time   10.6180: real time   10.6579
  RMM-DIIS:  cpu time   37.1001: real time   37.2070
    ORTHCH:  cpu time    1.2216: real time    1.2255
       DOS:  cpu time    0.0023: real time    0.0023
    CHARGE:  cpu time    3.6322: real time    3.6430
    MIXING:  cpu time    0.0119: real time    0.0539
    --------------------------------------------
      LOOP:  cpu time   52.9659: real time   53.2662

 eigenvalue-minimisations  :  9580
 total energy-change (2. order) :-0.1916065E+03  (-0.9508211E+02)
 number of electron     777.9999957 magnetization     212.7257995
 augmentation part      406.8040542 magnetization     179.7143824

 Broyden mixing:
  rms(total) = 0.20170E+02    rms(broyden)= 0.20170E+02
  rms(prec ) = 0.26319E+02
  weight for this iteration     100.00

 eigenvalues of (default mixing * dielectric matrix)
  average eigenvalue GAMMA=   0.2124
  0.2124

 Free energy of the ion-electron system (eV)
  ---------------------------------------------------
  alpha Z        PSCENC =      2156.50569604
  Ewald energy   TEWEN  =    221619.00789272
  -Hartree energ DENC   =   -292039.39014156
  -exchange      EXHF   =         0.00000000
  -V(xc)+E(xc)   XCENC  =      1335.38901022
  PAW double counting   =     68842.30695058   -70529.74892447
  entropy T*S    EENTRO =        -0.00181700
  eigenvalues    EBANDS =     -2291.61778301
  atomic energy  EATOM  =     70218.65458108
  Solvation  Ediel_sol  =         0.00000000
  ---------------------------------------------------
  free energy    TOTEN  =      -688.89453540 eV

  energy without entropy =     -688.89271840  energy(sigma->0) =     -688.89392973


--------------------------------------------------------------------------------------------------------




--------------------------------------- Iteration      1(   7)  ---------------------------------------


    POTLOK:  cpu time    0.3630: real time    0.3653
    SETDIJ:  cpu time    0.0318: real time    0.0319
    EDDIAG:  cpu time   10.6090: real time   10.6392
  RMM-DIIS:  cpu time   36.5039: real time   36.6074
    ORTHCH:  cpu time    1.2202: real time    1.2239
       DOS:  cpu time    0.0025: real time    0.0025
    CHARGE:  cpu time    3.6382: real time    3.6484
    MIXING:  cpu time    0.0112: real time    0.0114
    --------------------------------------------
      LOOP:  cpu time   52.3797: real time   52.5300

 eigenvalue-minimisations  :  9422
 total energy-change (2. order) : 0.1675849E+03  (-0.1613070E+02)
 number of electron     777.9999971 magnetization     207.9618085
 augmentation part      369.0254139 magnetization     164.7055022

 Broyden mixing:
  rms(total) = 0.14869E+02    rms(broyden)= 0.14869E+02
  rms(prec ) = 0.19839E+02
  weight for this iteration     100.00

 eigenvalues of (default mixing * dielectric matrix)
  average eigenvalue GAMMA=   0.2710
  0.3754  0.1665

 Free energy of the ion-electron system (eV)
  ---------------------------------------------------
  alpha Z        PSCENC =      2156.50569604
  Ewald energy   TEWEN  =    221619.00789272
  -Hartree energ DENC   =   -292704.64051251
  -exchange      EXHF   =         0.00000000
  -V(xc)+E(xc)   XCENC  =      1355.00528515
  PAW double counting   =     69839.75620751   -71682.92966663
  entropy T*S    EENTRO =        -0.01918035
  eigenvalues    EBANDS =     -1322.64994095
  atomic energy  EATOM  =     70218.65458108
  Solvation  Ediel_sol  =         0.00000000
  ---------------------------------------------------
  free energy    TOTEN  =      -521.30963795 eV

  energy without entropy =     -521.29045760  energy(sigma->0) =     -521.30324450


--------------------------------------------------------------------------------------------------------




--------------------------------------- Iteration      1(   8)  ---------------------------------------


    POTLOK:  cpu time    0.3479: real time    0.3499
    SETDIJ:  cpu time    0.0318: real time    0.0319
    EDDIAG:  cpu time   10.6105: real time   10.6416
  RMM-DIIS:  cpu time   36.5501: real time   36.6641
    ORTHCH:  cpu time    1.2189: real time    1.2225
       DOS:  cpu time    0.0024: real time    0.0024
    CHARGE:  cpu time    3.5627: real time    3.5728
    MIXING:  cpu time    0.0112: real time    0.0117
    --------------------------------------------
      LOOP:  cpu time   52.3355: real time   52.4969

 eigenvalue-minimisations  :  9437
 total energy-change (2. order) : 0.3766775E+02  (-0.1153948E+02)
 number of electron     777.9999974 magnetization     200.7847689
 augmentation part      372.9361040 magnetization     163.8405079

 Broyden mixing:
  rms(total) = 0.16344E+02    rms(broyden)= 0.16344E+02
  rms(prec ) = 0.19200E+02
  weight for this iteration     100.00

 eigenvalues of (default mixing * dielectric matrix)
  average eigenvalue GAMMA=   0.3095
  0.5882  0.2587  0.0816

 Free energy of the ion-electron system (eV)
  ---------------------------------------------------
  alpha Z        PSCENC =      2156.50569604
  Ewald energy   TEWEN  =    221619.00789272
  -Hartree energ DENC   =   -292960.25997005
  -exchange      EXHF   =         0.00000000
  -V(xc)+E(xc)   XCENC  =      1361.00321091
  PAW double counting   =     71046.44254903   -72963.14180288
  entropy T*S    EENTRO =         0.01043461
  eigenvalues    EBANDS =      -961.86447607
  atomic energy  EATOM  =     70218.65458108
  Solvation  Ediel_sol  =         0.00000000
  ---------------------------------------------------
  free energy    TOTEN  =      -483.64188461 eV

  energy without entropy =     -483.65231922  energy(sigma->0) =     -483.64536281


--------------------------------------------------------------------------------------------------------




--------------------------------------- Iteration      1(   9)  ---------------------------------------


    POTLOK:  cpu time    0.3476: real time    0.3494
    SETDIJ:  cpu time    0.0319: real time    0.0320
    EDDIAG:  cpu time   10.6416: real time   10.6723
  RMM-DIIS:  cpu time   36.6048: real time   36.7310
    ORTHCH:  cpu time    1.2189: real time    1.2225
       DOS:  cpu time    0.0025: real time    0.0025
    CHARGE:  cpu time    3.6174: real time    3.6274
    MIXING:  cpu time    0.0112: real time    0.0113
    --------------------------------------------
      LOOP:  cpu time   52.4759: real time   52.6484

 eigenvalue-minimisations  :  9451
 total energy-change (2. order) : 0.9719449E+02  (-0.1498494E+02)
 number of electron     777.9999968 magnetization     192.6993942
 augmentation part      375.2396547 magnetization     146.7184891

 Broyden mixing:
  rms(total) = 0.12257E+02    rms(broyden)= 0.12256E+02
  rms(prec ) = 0.13935E+02
  weight for this iteration     100.00

 eigenvalues of (default mixing * dielectric matrix)
  average eigenvalue GAMMA=   0.3598
  0.8662  0.3441  0.1291  0.0999

 Free energy of the ion-electron system (eV)
  ---------------------------------------------------
  alpha Z        PSCENC =      2156.50569604
  Ewald energy   TEWEN  =    221619.00789272
  -Hartree energ DENC   =   -292692.65877462
  -exchange      EXHF   =         0.00000000
  -V(xc)+E(xc)   XCENC  =      1377.89969576
  PAW double counting   =     72441.24873671   -74410.00944978
  entropy T*S    EENTRO =        -0.00619264
  eigenvalues    EBANDS =     -1097.08958256
  atomic energy  EATOM  =     70218.65458108
  Solvation  Ediel_sol  =         0.00000000
  ---------------------------------------------------
  free energy    TOTEN  =      -386.44739729 eV

  energy without entropy =     -386.44120465  energy(sigma->0) =     -386.44533308


[...]
   0.403E+01 0.345E+02 -.286E+04   -.438E+01 -.346E+02 0.286E+04   0.376E+00 0.110E+00 0.198E+00   -.177E-01 -.253E-01 0.180E-02
   -.172E+02 0.835E+01 -.286E+04   0.166E+02 -.794E+01 0.286E+04   0.644E+00 -.450E+00 0.167E+01   0.211E-01 0.448E-01 0.189E-01
   -.196E+01 0.611E+01 -.284E+04   0.287E+01 -.679E+01 0.284E+04   -.893E+00 0.708E+00 0.998E+00   -.111E-01 -.533E-01 -.491E-02
   -.233E+02 -.937E+01 -.289E+04   0.233E+02 0.880E+01 0.289E+04   -.283E-01 0.517E+00 0.164E+01   -.314E-01 0.350E-01 0.539E-01
   0.905E+01 -.226E+02 -.287E+04   -.950E+01 0.227E+02 0.287E+04   0.458E+00 -.597E-01 0.205E+01   0.238E-01 -.665E-01 0.500E-01
   -.221E+02 0.537E+01 -.287E+04   0.220E+02 -.426E+01 0.287E+04   0.800E-01 -.116E+01 0.924E+00   -.309E-01 0.166E-01 0.185E-01
   -.774E+01 -.155E+00 -.283E+04   0.852E+01 0.583E+00 0.283E+04   -.736E+00 -.439E+00 0.194E+01   -.849E-02 0.277E-01 0.780E-01
   -.553E+01 -.755E+01 -.288E+04   0.583E+01 0.730E+01 0.288E+04   -.337E+00 0.246E+00 0.987E+00   0.313E-02 -.179E-01 0.315E-01
   -.129E+02 0.353E+01 -.286E+04   0.132E+02 -.378E+01 0.286E+04   -.225E+00 0.244E+00 0.137E+01   -.734E-02 -.358E-02 -.855E-03
   0.313E+01 -.265E+02 -.286E+04   -.349E+01 0.261E+02 0.286E+04   0.316E+00 0.408E+00 0.118E+01   0.531E-01 0.139E-01 0.637E-01
   0.255E+02 0.156E+02 -.287E+04   -.250E+02 -.153E+02 0.287E+04   -.560E+00 -.247E+00 0.170E+01   0.168E-01 -.229E-01 -.918E-02
   0.275E+02 -.123E+02 -.287E+04   -.270E+02 0.126E+02 0.287E+04   -.410E+00 -.246E+00 0.157E+01   0.715E-02 0.186E-01 0.176E-01
   -.108E+01 -.383E+01 -.285E+04   0.751E+00 0.297E+01 0.285E+04   0.324E+00 0.861E+00 0.149E+01   0.446E-02 -.223E-01 0.161E-01
   0.269E+02 -.886E+01 -.286E+04   -.272E+02 0.920E+01 0.286E+04   0.256E+00 -.402E+00 0.143E+01   0.167E-02 0.219E-01 0.246E-01
   0.683E+02 -.641E+02 -.149E+04   -.670E+02 0.642E+02 0.149E+04   -.125E+01 -.143E+00 0.170E+01   0.135E-01 0.127E-01 0.126E+00
   0.240E+02 -.423E+02 -.148E+04   -.252E+02 0.419E+02 0.147E+04   0.111E+01 0.437E+00 0.244E+01   0.471E-01 0.952E-03 0.633E-01
   0.339E+02 0.243E+02 0.295E+04   -.339E+02 -.247E+02 -.295E+04   0.536E-01 0.246E+00 -.264E+01   -.785E-01 0.135E+00 -.236E-01
   0.255E+02 -.588E+01 0.158E+04   -.266E+02 0.666E+01 -.158E+04   0.970E+00 -.684E+00 0.949E+00   0.175E+00 -.613E-01 -.774E-01
   -.625E+02 0.138E+02 -.146E+04   0.634E+02 -.131E+02 0.145E+04   -.811E+00 -.593E+00 0.258E+01   -.201E-01 -.413E-01 0.624E-01
   -.526E+02 0.593E+02 0.302E+04   0.533E+02 -.582E+02 -.301E+04   -.704E+00 -.110E+01 -.237E+01   0.308E-01 -.142E-01 -.268E-01
   0.938E+01 -.548E+02 0.156E+04   -.915E+01 0.543E+02 -.156E+04   -.310E+00 0.483E+00 -.764E+00   0.156E-01 -.650E-02 0.773E-01
   0.130E+02 0.344E+01 -.286E+04   -.132E+02 -.342E+01 0.286E+04   0.141E+00 -.515E-01 0.107E+01   0.287E-01 0.257E-01 0.107E-01
   -.150E+02 -.239E+00 0.108E+02   0.151E+02 0.552E+00 -.121E+02   -.369E-01 -.369E+00 0.108E+01   -.587E-01 -.120E-01 0.144E+00
   -.126E+02 0.120E+02 -.288E+04   0.121E+02 -.120E+02 0.288E+04   0.560E+00 0.853E-01 0.154E+01   -.474E-02 -.279E-01 0.255E-01
   0.117E+02 0.499E+02 0.258E+02   -.128E+02 -.512E+02 -.262E+02   0.120E+01 0.128E+01 0.219E+00   0.164E-01 0.173E-01 0.121E+00
   -.645E+02 0.639E+01 -.146E+04   0.650E+02 -.759E+01 0.146E+04   -.481E+00 0.123E+01 0.282E+01   -.274E-01 0.332E-01 0.153E+00
   0.288E+02 0.280E+02 -.150E+04   -.287E+02 -.272E+02 0.150E+04   -.219E+00 -.774E+00 0.224E+01   0.114E-01 0.972E-02 0.112E+00
   0.912E+01 -.638E+02 -.635E+02   -.102E+02 0.633E+02 0.638E+02   0.108E+01 0.547E+00 -.335E+00   0.667E-01 -.496E-01 0.158E-01
   -.219E+02 -.184E+02 0.668E+01   0.226E+02 0.191E+02 -.749E+01   -.742E+00 -.762E+00 0.590E+00   -.301E-01 0.173E-01 0.211E+00
   0.186E+02 0.129E+02 -.120E+04   -.187E+02 -.132E+02 0.120E+04   0.659E-01 0.389E+00 0.342E+00   0.185E-01 0.212E-01 0.853E-01
   -.672E+02 -.773E+01 0.237E+04   0.673E+02 0.640E+01 -.237E+04   -.270E+00 0.133E+01 -.288E+01   0.361E-01 0.226E-01 -.306E-01
   0.361E+02 -.202E+02 0.241E+04   -.359E+02 0.186E+02 -.241E+04   -.569E-01 0.167E+01 -.256E+01   -.363E-02 -.278E-01 -.281E-02
   0.266E+02 0.382E+01 0.241E+04   -.266E+02 -.294E+01 -.240E+04   -.409E-01 -.836E+00 -.311E+01   0.906E-01 -.914E-01 -.154E-01
   0.179E+02 0.611E+02 0.125E+04   -.169E+02 -.603E+02 -.125E+04   -.973E+00 -.818E+00 -.125E+00   -.750E-01 -.854E-02 0.351E-01
   0.304E+02 -.652E+02 0.125E+04   -.303E+02 0.648E+02 -.125E+04   -.120E+00 0.292E+00 -.437E+00   -.124E-01 0.882E-01 0.820E-01
   -.568E+02 -.212E+02 -.120E+04   0.570E+02 0.213E+02 0.120E+04   -.138E+00 -.179E+00 0.602E+00   -.257E-02 0.364E-01 0.997E-01
   -.119E+03 0.181E+02 0.242E+04   0.118E+03 -.179E+02 -.242E+04   0.769E+00 -.156E+00 -.300E+01   0.135E+00 -.306E-01 -.432E-01
   -.347E+02 0.513E+02 0.127E+04   0.338E+02 -.507E+02 -.127E+04   0.860E+00 -.532E+00 -.440E+00   -.482E-02 -.636E-01 0.389E-01
   -.524E+02 0.304E+01 -.358E+02   0.521E+02 -.267E+01 0.357E+02   0.228E+00 -.457E+00 -.145E+00   0.419E-01 0.329E-01 0.107E+00
   0.150E+02 -.801E+02 -.121E+04   -.152E+02 0.799E+02 0.121E+04   0.180E+00 0.212E+00 0.953E+00   0.198E-01 -.384E-01 0.284E-01
   0.128E+02 0.280E+02 -.121E+04   -.130E+02 -.280E+02 0.121E+04   0.126E+00 0.411E-02 0.197E+00   -.139E-01 -.816E-02 0.118E+00
   0.329E+01 -.625E+02 0.239E+04   -.416E+01 0.613E+02 -.239E+04   0.837E+00 0.108E+01 -.303E+01   0.558E-01 0.916E-01 -.109E-02
   0.111E+02 -.155E+02 0.269E+04   -.111E+02 0.157E+02 -.269E+04   0.413E-01 -.262E+00 -.253E+01   -.636E-01 0.515E-02 -.423E-01
   0.132E+03 0.386E+02 0.272E+04   -.132E+03 -.378E+02 -.272E+04   0.169E+00 -.881E+00 -.276E+01   0.797E-03 -.829E-02 -.761E-02
   -.481E+02 -.443E+02 0.138E+04   0.476E+02 0.431E+02 -.138E+04   0.521E+00 0.119E+01 -.369E+00   -.161E-01 0.787E-01 0.100E+00
   -.660E+02 0.521E+02 0.222E+02   0.661E+02 -.521E+02 -.231E+02   -.782E-01 -.139E+00 0.653E+00   0.136E-01 0.620E-01 0.148E+00
   -.106E+03 0.122E+02 0.138E+04   0.105E+03 -.118E+02 -.138E+04   0.468E+00 -.465E+00 -.165E+00   0.831E-01 0.275E-01 0.565E-01
   -.157E+02 0.673E+01 0.136E+04   0.159E+02 -.695E+01 -.136E+04   -.132E+00 0.330E+00 -.154E+00   -.896E-01 -.575E-01 0.950E-01
   0.474E+02 0.437E+00 -.137E+04   -.473E+02 -.535E+00 0.137E+04   -.169E+00 0.192E+00 0.125E+01   -.842E-02 -.457E-01 0.707E-01
   0.600E+02 -.794E+02 0.270E+04   -.596E+02 0.791E+02 -.270E+04   -.506E+00 0.233E+00 -.273E+01   -.449E-01 0.613E-01 -.104E-02
   -.134E+02 0.386E+01 0.135E+04   0.135E+02 -.366E+01 -.135E+04   -.133E+00 -.264E+00 -.456E+00   0.146E-01 0.766E-01 0.114E+00
   0.279E+02 -.738E+02 -.161E+02   -.271E+02 0.733E+02 0.164E+02   -.862E+00 0.622E+00 -.422E+00   0.160E-01 -.226E-01 0.535E-01
   0.360E+02 0.409E+02 0.336E+04   -.359E+02 -.400E+02 -.336E+04   0.102E+00 -.921E+00 -.401E+01   -.241E+00 -.653E-01 -.426E-01
   0.576E+02 0.547E+01 0.170E+04   -.578E+02 -.617E+01 -.170E+04   0.156E+00 0.655E+00 -.102E+00   -.502E-02 0.860E-01 -.284E-01
   0.114E+03 -.355E+02 0.167E+04   -.113E+03 0.356E+02 -.167E+04   -.187E+00 -.572E-01 -.139E+00   0.109E-01 -.592E-01 0.238E-01
   0.160E+02 0.654E+02 0.968E+02   -.166E+02 -.653E+02 -.974E+02   0.677E+00 -.190E+00 0.472E+00   -.379E-01 0.370E-02 0.141E+00
   0.109E+02 0.559E+02 -.167E+04   -.103E+02 -.557E+02 0.167E+04   -.610E+00 -.237E+00 0.127E+01   -.246E-01 0.162E-01 0.936E-01
   -.407E+02 0.270E+02 -.164E+04   0.398E+02 -.267E+02 0.164E+04   0.957E+00 -.258E+00 0.209E+01   0.266E-01 -.293E-01 0.939E-01
   0.158E+01 0.102E+03 0.331E+04   -.146E+01 -.103E+03 -.331E+04   -.143E+00 0.440E+00 -.331E+01   -.284E-01 -.153E-01 -.335E-01
   -.233E+02 -.846E+02 0.334E+04   0.223E+02 0.842E+02 -.334E+04   0.982E+00 0.282E+00 -.300E+01   0.140E-01 0.137E+00 -.498E-01
   0.109E+03 0.103E+02 -.518E+02   -.110E+03 -.101E+02 0.520E+02   -.336E-01 -.257E+00 -.453E+00   0.345E-01 0.262E-03 0.776E-01
   -.116E+03 -.262E+02 0.391E+02   0.115E+03 0.262E+02 -.392E+02   0.351E+00 0.878E-01 -.447E-01   -.254E-02 -.639E-01 0.135E+00
   -.817E+01 0.633E+02 0.176E+04   0.791E+01 -.627E+02 -.176E+04   0.297E+00 -.667E+00 -.825E+00   0.153E-01 -.754E-02 0.700E-01
   0.174E+02 -.614E+02 0.403E+02   -.170E+02 0.603E+02 -.410E+02   -.339E+00 0.121E+01 0.444E+00   -.568E-01 -.285E-01 0.173E+00
   0.549E+02 -.220E+02 0.106E+02   -.542E+02 0.217E+02 -.107E+02   -.708E+00 0.304E+00 0.435E-01   -.225E-01 -.230E-01 0.706E-01
   -.786E+02 0.340E+01 0.151E+04   0.780E+02 -.320E+01 -.151E+04   0.463E+00 -.105E+00 -.226E+00   0.716E-01 -.443E-01 0.441E-01
   -.182E+02 0.174E+02 0.159E+04   0.185E+02 -.177E+02 -.159E+04   -.385E+00 0.271E+00 -.485E+00   0.986E-01 -.459E-01 0.333E-01
   -.109E+03 -.802E+01 0.302E+04   0.109E+03 0.806E+01 -.302E+04   -.467E+00 -.138E-01 -.171E+01   0.106E+00 0.493E-02 -.798E-01
   0.699E+02 -.466E+02 0.301E+04   -.702E+02 0.474E+02 -.301E+04   0.496E+00 -.608E+00 -.111E+01   -.153E+00 -.125E+00 -.270E-02
   0.202E+02 -.332E+02 0.152E+04   -.197E+02 0.329E+02 -.152E+04   -.401E+00 0.231E+00 -.456E-01   -.125E+00 0.315E-01 0.101E+00
   0.566E+02 0.680E+01 0.155E+04   -.559E+02 -.679E+01 -.155E+04   -.562E+00 0.962E-01 -.234E+00   -.154E+00 -.515E-01 -.691E-01
   -.335E+02 -.574E+02 -.151E+04   0.334E+02 0.573E+02 0.151E+04   0.108E+00 0.524E-01 0.542E+00   -.624E-01 0.325E-01 0.164E+00
   -.428E+02 0.322E+02 0.300E+04   0.432E+02 -.314E+02 -.300E+04   -.482E+00 -.661E+00 -.207E+01   0.140E-01 -.969E-01 -.808E-01
   -.433E+02 0.796E+02 0.782E+02   0.437E+02 -.793E+02 -.782E+02   -.425E+00 -.360E+00 -.160E+00   -.607E-03 -.330E-01 0.107E+00
   -.112E+00 0.563E+02 -.123E+02   0.220E-01 -.556E+02 0.120E+02   0.151E+00 -.853E+00 -.185E-01   -.244E-01 0.684E-01 0.151E+00
   0.605E+02 -.207E+01 -.283E+02   -.601E+02 0.267E+01 0.282E+02   -.443E+00 -.639E+00 -.819E-01   -.240E-02 0.134E-01 0.121E+00
   0.939E+01 -.615E+02 0.359E+02   -.977E+01 0.610E+02 -.361E+02   0.342E+00 0.487E+00 0.507E-01   0.874E-02 0.330E-01 0.657E-01
   -.336E+01 -.289E+00 -.341E+03   0.357E+01 0.344E+00 0.342E+03   -.225E+00 -.884E-01 -.160E+01   -.138E-02 0.256E-02 0.329E-03
 -----------------------------------------------------------------------------------------------
   -.158E+01 -.522E+00 -.472E+01   -.400E-13 0.411E-13 0.318E-11   0.163E+01 0.630E+00 0.761E+00   -.840E-01 -.595E-01 0.396E+01
 
 
 POSITION                                       TOTAL-FORCE (eV/Angst)
 -----------------------------------------------------------------------------------
     13.20360      8.20029      6.95371        -0.005393      0.003600     -0.008958
      5.20622      8.22495      6.91479         0.003472      0.004036     -0.014663
      5.05203      3.54450      6.99274         0.006976     -0.005837     -0.004857
     14.55369      8.95580      9.29247        -0.009694      0.001181     -0.002397
      3.78561      4.32120      9.32853         0.000679     -0.001398     -0.005727
      6.54952      8.94435      9.24607         0.000409     -0.005142     -0.003225
     11.88167      4.28746      9.30290        -0.012038     -0.006704     -0.000135
      9.19501      8.94807      9.18452         0.003091      0.013505     -0.000534
     10.53842      2.01002      9.22989         0.001864     -0.007282     -0.008959
      2.51119      1.98560      9.21804        -0.000456     -0.005004     -0.004816
     11.88443      8.94954      9.25580         0.001204      0.011214     -0.007184
     13.22530      6.62472      9.30840         0.009415     -0.002986     -0.012649
      5.15478      1.94427      9.26937         0.004446     -0.007115      0.000669
      7.87788      6.63673      9.24914         0.000665     -0.005175     -0.002688
      9.21647      4.30992      9.22974         0.012850      0.001665     -0.004326
      5.15685      6.60040      9.28703         0.005743     -0.010716      0.011564
      7.83518      1.97298      9.21244        -0.001102     -0.005569      0.000973
      7.92158      3.49733      6.94911         0.006133     -0.000739      0.007762
      6.41792      1.16123      6.90091         0.003837      0.002944      0.004726
      6.55899      1.14886      0.96438        -0.003423     -0.004254      0.007464
      3.75747      4.28391      2.83239        -0.011034     -0.016615     -0.017382
      1.19831      1.26601      6.89803         0.007247     -0.005226      0.003979
      1.14464      1.22211      0.77800        -0.002157      0.019189     -0.007652
      6.56687      8.92705      2.92680        -0.013463     -0.004837      0.008013
      6.51105      4.30143      9.29387         0.008440      0.012171      0.001163
      7.84317      5.09593      4.82253         0.013261     -0.012830     -0.055564
     10.52418      6.63570      9.25431        -0.006055     -0.020411      0.004090
     14.51918      7.33687      4.85107         0.038945      0.028004      0.004672
     11.91393      5.81186      7.00032        -0.005419     -0.012090      0.008119
      6.52445      5.88259      6.97185        -0.003988      0.005131     -0.005340
      3.66556      2.59850      4.95871         0.011419     -0.000326     -0.021949
     10.55203      5.13182      4.86368         0.022886     -0.002691     -0.025895
      3.83478      5.88336      7.10795         0.004458      0.000983      0.003305
     13.19219      8.02433      1.00573        -0.012228     -0.009323      0.009404
      5.26821      8.05279      0.90098         0.002154      0.006487      0.008274
      3.88993      5.88755      0.88776         0.001617     -0.003125      0.018925
      7.96781      2.09986      2.87061        -0.020319      0.001558     -0.008078
      9.24633      8.88529      2.89138        -0.008887      0.033124     -0.000038
      2.44467      3.57433      7.09727        -0.003951      0.003003      0.005754
      2.33068      3.55115      0.88683         0.025623     -0.002209     -0.004283
     10.54411      2.00466      2.85564        -0.010384      0.010241     -0.014967
     13.20125      5.07200      4.92596        -0.026702     -0.018652     -0.010969
      3.81511      1.07920      7.03707         0.010760      0.003110      0.005144
      9.20312      5.85861      7.05946        -0.000081     -0.005881      0.006739
      3.79990      1.08422      0.93869        -0.009189      0.005329      0.015614
      9.28005      5.82724      1.01487        -0.024539     -0.004663      0.000168
      5.25238      3.56304      0.92964        -0.012040      0.003827      0.019467
     11.82187      8.82904      2.94048        -0.011669      0.017726      0.013757
     11.87544      7.38555      4.84901        -0.010255     -0.020617     -0.071683
     13.08248      6.55049      2.85969         0.013537     -0.000032      0.013588
      9.21707      4.27951      2.82588         0.013182      0.005181     -0.003937
      7.91011      8.14658      6.98875        -0.000206     -0.000074     -0.007230
      7.97778      8.09308      0.93938        -0.007691      0.021643     -0.011491
     10.58681      6.67050      2.84722         0.003298      0.021000      0.037009
      2.57872      0.24765      5.01085         0.003339      0.008562      0.020011
      7.89204      3.56304      0.82040        -0.000669     -0.005644      0.011136
      5.16267      1.91547      2.95300        -0.010103     -0.005765      0.017536
      5.28297      6.56629      2.94356         0.007024     -0.010796     -0.006071
      7.85418      0.47531      4.84859         0.030046     -0.002392      0.028582
      9.23904      1.20681      6.96633        -0.003051     -0.001109     -0.017042
     10.49912      8.13349      6.96222         0.002234      0.001981     -0.000403
      9.23132      1.14551      0.82560        -0.022850      0.007372      0.009650
     10.55608      8.11953      0.83856        -0.011641      0.004150      0.027072
      5.15595      5.05396      4.92521        -0.000276     -0.011435     -0.045264
     11.83256      2.78488      4.88069         0.001849     -0.016341      0.050216
     14.57347      8.98804      2.87227         0.013684      0.016401     -0.007851
      9.26929      2.70975      4.92992         0.018541     -0.027325      0.001600
      6.49665      2.73164      4.86532        -0.009627      0.000764      0.006232
     11.86943      4.25741      2.84734         0.009104     -0.018235     -0.024914
      2.48289      1.92464      2.85312        -0.027684      0.002627     -0.005581
     11.85493      5.78777      0.92942        -0.004820      0.024791      0.011499
      6.57689      5.84104      0.99111         0.014522      0.008091     -0.009765
      7.99191      6.64267      2.86446         0.002164      0.014823     -0.005996
      6.54439      4.21089      2.82135        -0.008943      0.007611      0.015882
     10.58553      3.55514      7.02800        -0.000096     -0.002373      0.011009
     10.54163      3.50860      0.91916        -0.009233     -0.006587      0.005233
     10.57208      0.50548      4.87385        -0.026787     -0.000344      0.036806
      9.21999      7.42016      4.95848         0.013935      0.003317     -0.032426
      6.61478      7.43446      4.94584         0.023937      0.001929      0.010593
      5.12149      0.26726      4.90165         0.007026      0.007960      0.000754
     10.51322      0.42300     10.20766        -0.016868     -0.030366      0.018742
 -----------------------------------------------------------------------------------
    total drift:                               -0.033238      0.048493     -0.002416


--------------------------------------------------------------------------------------------------------



  FREE ENERGIE OF THE ION-ELECTRON SYSTEM (eV)
  ---------------------------------------------------
  free  energy   TOTEN  =      -509.13595761 eV

  energy  without entropy=     -509.16275056  energy(sigma->0) =     -509.14488860
 
 d Force = 0.9736024E-03[ 0.508E-03, 0.144E-02]  d Energy = 0.9979434E-03-0.243E-04
 d Force =-0.2753570E+02[-0.275E+02,-0.275E+02]  d Ewald  =-0.2753570E+02-0.307E-05


--------------------------------------------------------------------------------------------------------


    POTLOK:  cpu time    0.3910: real time    0.3923


--------------------------------------------------------------------------------------------------------


 Conjugate gradient step on ions:
 trial-energy change:   -0.000998  1 .order   -0.000974   -0.001439   -0.000508
  (g-gl).g = 0.714E-03      g.g   = 0.816E-03  gl.gl    = 0.154E-02
 g(Force)  = 0.816E-03   g(Stress)= 0.000E+00 ortho     = 0.955E-04
 gamma     =   0.46460
 trial     =   1.67303
 opt step  =   2.58576  (harmonic =   2.58576) maximal distance =0.00301273
 next E    =  -509.136072   (d E  =  -0.00111)


--------------------------------------------------------------------------------------------------------


  
 reached required accuracy - stopping structural energy minimisation
     LOOP+:  cpu time  496.7962: real time  499.1017
    4ORBIT:  cpu time    0.0000: real time    0.0000

 total amount of memory used by VASP MPI-rank0   233093. kBytes
=======================================================================

   base      :      30000. kBytes
   nonlr-proj:      33408. kBytes
   fftplans  :      16137. kBytes
   grid      :      49182. kBytes
   one-center:        653. kBytes
   wavefun   :     103713. kBytes
 
  
  
 General timing and accounting informations for this job:
 ========================================================
  
                  Total CPU time used (sec):    12581.181
                            User time (sec):    12246.688
                          System time (sec):      334.493
                         Elapsed time (sec):    12655.709
  
                   Maximum memory used (kb):      421896.
                   Average memory used (kb):           0.
  
                          Minor page faults:      2981617
                          Major page faults:          253
                 Voluntary context switches:        10063
