 vasp.5.4.4.18Apr17-6-g9f103f2a35 (build Oct 25 2019 11:13:22) complex          
  
 executed on             LinuxIFC date 2022.02.13  02:24:30
 running on   48 total cores
 distrk:  each k-point on   48 cores,    1 groups
 distr:  one band on NCORES_PER_BAND=   1 cores,   48 groups


--------------------------------------------------------------------------------------------------------


 INCAR:
 POTCAR:    PAW_PBE Pt 04Feb2005                  
 POTCAR:    PAW_PBE Co 02Aug2007                  
 POTCAR:    PAW_PBE Ni 02Aug2007                  
 POTCAR:    PAW_PBE H 15Jun2001                   

 ----------------------------------------------------------------------------- 
|                                                                             |
|           W    W    AA    RRRRR   N    N  II  N    N   GGGG   !!!           |
|           W    W   A  A   R    R  NN   N  II  NN   N  G    G  !!!           |
|           W    W  A    A  R    R  N N  N  II  N N  N  G       !!!           |
|           W WW W  AAAAAA  RRRRR   N  N N  II  N  N N  G  GGG   !            |
|           WW  WW  A    A  R   R   N   NN  II  N   NN  G    G                |
|           W    W  A    A  R    R  N    N  II  N    N   GGGG   !!!           |
|                                                                             |
|      For optimal performance we recommend to set                            |
|        NCORE= 4 - approx SQRT( number of cores)                             |
|      NCORE specifies how many cores store one orbital (NPAR=cpu/NCORE).     |
|      This setting can  greatly improve the performance of VASP for DFT.     |
|      The default,   NCORE=1            might be grossly inefficient         |
|      on modern multi-core architectures or massively parallel machines.     |
|      Do your own testing !!!!                                               |
|      Unfortunately you need to use the default for GW and RPA calculations. |
|      (for HF NCORE is supported but not extensively tested yet)             |
|                                                                             |
 ----------------------------------------------------------------------------- 

 POTCAR:    PAW_PBE Pt 04Feb2005                  
   VRHFIN =Pt: s1d9                                                             
   LEXCH  = PE                                                                  
   EATOM  =   729.1176 eV,   53.5886 Ry                                         
                                                                                
   TITEL  = PAW_PBE Pt 04Feb2005                                                
   LULTRA =        F    use ultrasoft PP ?                                      
   IUNSCR =        1    unscreen: 0-lin 1-nonlin 2-no                           
   RPACOR =    2.330    partial core radius                                     
   POMASS =  195.080; ZVAL   =   10.000    mass and valenz                      
   RCORE  =    2.600    outmost cutoff radius                                   
   RWIGS  =    2.750; RWIGS  =    1.455    wigner-seitz radius (au A)           
   ENMAX  =  230.283; ENMIN  =  172.712 eV                                      
   ICORE  =        3    local potential                                         
   LCOR   =        T    correct aug charges                                     
   LPAW   =        T    paw PP                                                  
   EAUG   =  358.966                                                            
   DEXC   =    0.000                                                            
   RMAX   =    2.658    core radius for proj-oper                               
   RAUG   =    1.300    factor for augmentation sphere                          
   RDEP   =    2.761    radius for radial grids                                 
   RDEPT  =    2.203    core radius for aug-charge                              
                                                                                
   Atomic configuration                                                         
   16 entries                                                                   
     n  l   j            E        occ.                                          
     1  0  0.50    -78401.1885   2.0000                                         
     2  0  0.50    -13770.7750   2.0000                                         
     2  1  1.50    -11931.0468   6.0000                                         
     3  0  0.50     -3234.7234   2.0000                                         
     3  1  1.50     -2699.2216   6.0000                                         
     3  2  2.50     -2119.5714  10.0000                                         
     4  0  0.50      -695.1528   2.0000                                         
     4  1  1.50      -519.6034   6.0000                                         
     4  2  2.50      -306.6786  10.0000                                         
     4  3  3.50       -70.1041  14.0000                                         
     5  0  0.50      -101.7747   2.0000                                         
     5  1  1.50       -55.9873   6.0000                                         
     5  2  2.50        -6.1423   9.0000                                         
     6  0  0.50        -5.6573   1.0000                                         
     6  1  1.50        -6.8029   0.0000                                         
     5  3  2.50        -1.3606   0.0000                                         
   Description                                                                  
     l       E           TYP  RCUT    TYP  RCUT                                 
     2     -6.1423404     23  2.500                                             
     2     -7.5029230     23  2.500                                             
     0     -5.6573207     23  2.500                                             
     0      0.7416693     23  2.500                                             
     1     -2.7211652     23  2.600                                             
     1     20.4087390     23  2.600                                             
     3     -1.3605826     23  2.500                                             
  local pseudopotential read in
  partial core-charges read in
  partial kinetic energy density read in
  atomic valenz-charges read in
  non local Contribution for L=           2  read in
    real space projection operators read in
  non local Contribution for L=           2  read in
    real space projection operators read in
  non local Contribution for L=           0  read in
    real space projection operators read in
  non local Contribution for L=           0  read in
    real space projection operators read in
  non local Contribution for L=           1  read in
    real space projection operators read in
  non local Contribution for L=           1  read in
    real space projection operators read in
    PAW grid and wavefunctions read in
 
   number of l-projection  operators is LMAX  =           6
   number of lm-projection operators is LMMAX =          18
 
 POTCAR:    PAW_PBE Co 02Aug2007                  
   VRHFIN =Co: d8 s1                                                            
   LEXCH  = PE                                                                  
   EATOM  =   813.3670 eV,   59.7808 Ry                                         
                                                                                
   TITEL  = PAW_PBE Co 02Aug2007                                                
   LULTRA =        F    use ultrasoft PP ?                                      
   IUNSCR =        1    unscreen: 0-lin 1-nonlin 2-no                           
   RPACOR =    2.000    partial core radius                                     
   POMASS =   58.933; ZVAL   =    9.000    mass and valenz                      
   RCORE  =    2.300    outmost cutoff radius                                   
   RWIGS  =    2.460; RWIGS  =    1.302    wigner-seitz radius (au A)           
   ENMAX  =  267.968; ENMIN  =  200.976 eV                                      
   RCLOC  =    1.203    cutoff for local pot                                    
   LCOR   =        T    correct aug charges                                     
   LPAW   =        T    paw PP                                                  
   EAUG   =  477.818                                                            
   DEXC   =    0.000                                                            
   RMAX   =    2.360    core radius for proj-oper                               
   RAUG   =    1.300    factor for augmentation sphere                          
   RDEP   =    2.393    radius for radial grids                                 
   RDEPT  =    1.864    core radius for aug-charge                              
                                                                                
   Atomic configuration                                                         
    9 entries                                                                   
     n  l   j            E        occ.                                          
     1  0  0.50     -7587.6674   2.0000                                         
     2  0  0.50      -893.6084   2.0000                                         
     2  1  1.50      -764.5805   6.0000                                         
     3  0  0.50       -97.5973   2.0000                                         
     3  1  1.50       -60.9648   6.0000                                         
     3  2  2.50        -4.2382   8.0000                                         
     4  0  0.50        -4.3746   1.0000                                         
     4  1  1.50        -4.0817   0.0000                                         
     4  3  2.50        -1.3606   0.0000                                         
   Description                                                                  
     l       E           TYP  RCUT    TYP  RCUT                                 
     2     -4.2382362     23  2.300                                             
     2     -5.5988188     23  2.300                                             
     0     -4.3745797     23  2.300                                             
     0      5.7660125     23  2.300                                             
     1     -2.7211652     23  2.300                                             
     1     16.9860234     23  2.300                                             
  local pseudopotential read in
  partial core-charges read in
  partial kinetic energy density read in
  atomic valenz-charges read in
  non local Contribution for L=           2  read in
    real space projection operators read in
  non local Contribution for L=           2  read in
    real space projection operators read in
  non local Contribution for L=           0  read in
    real space projection operators read in
  non local Contribution for L=           0  read in
    real space projection operators read in
  non local Contribution for L=           1  read in
    real space projection operators read in
  non local Contribution for L=           1  read in
    real space projection operators read in
    PAW grid and wavefunctions read in
 
   number of l-projection  operators is LMAX  =           6
   number of lm-projection operators is LMMAX =          18
 
 POTCAR:    PAW_PBE Ni 02Aug2007                  
   VRHFIN =Ni:                                                                  
   LEXCH  = PE                                                                  
   EATOM  =  1077.6739 eV,   79.2068 Ry                                         
                                                                                
   TITEL  = PAW_PBE Ni 02Aug2007                                                
   LULTRA =        F    use ultrasoft PP ?                                      
   IUNSCR =        1    unscreen: 0-lin 1-nonlin 2-no                           
   RPACOR =    2.000    partial core radius                                     
   POMASS =   58.690; ZVAL   =   10.000    mass and valenz                      
   RCORE  =    2.300    outmost cutoff radius                                   
   RWIGS  =    2.430; RWIGS  =    1.286    wigner-seitz radius (au A)           
   ENMAX  =  269.532; ENMIN  =  202.149 eV                                      
   RCLOC  =    1.201    cutoff for local pot                                    
   LCOR   =        T    correct aug charges                                     
   LPAW   =        T    paw PP                                                  
   EAUG   =  544.565                                                            
   DEXC   =    0.000                                                            
   RMAX   =    2.357    core radius for proj-oper                               
   RAUG   =    1.300    factor for augmentation sphere                          
   RDEP   =    2.390    radius for radial grids                                 
   RDEPT  =    1.838    core radius for aug-charge                              
                                                                                
   Atomic configuration                                                         
    9 entries                                                                   
     n  l   j            E        occ.                                          
     1  0  0.50     -8206.4253   2.0000                                         
     2  0  0.50      -976.1748   2.0000                                         
     2  1  1.50      -839.0571   6.0000                                         
     3  0  0.50      -105.9991   2.0000                                         
     3  1  1.50       -66.4603   6.0000                                         
     3  2  2.50        -4.6458   9.0000                                         
     4  0  0.50        -4.4926   1.0000                                         
     4  1  1.50        -4.0817   0.0000                                         
     4  3  2.50        -1.3606   0.0000                                         
   Description                                                                  
     l       E           TYP  RCUT    TYP  RCUT                                 
     2     -4.6457903     23  2.300                                             
     2     -6.0063729     23  2.300                                             
     0     -4.4925590     23  2.300                                             
     0      5.0102601     23  2.300                                             
     1     -2.7211652     23  2.300                                             
     1     16.5183231     23  2.300                                             
  local pseudopotential read in
  partial core-charges read in
  partial kinetic energy density read in
  atomic valenz-charges read in
  non local Contribution for L=           2  read in
    real space projection operators read in
  non local Contribution for L=           2  read in
    real space projection operators read in
  non local Contribution for L=           0  read in
    real space projection operators read in
  non local Contribution for L=           0  read in
    real space projection operators read in
  non local Contribution for L=           1  read in
    real space projection operators read in
  non local Contribution for L=           1  read in
    real space projection operators read in
    PAW grid and wavefunctions read in
 
   number of l-projection  operators is LMAX  =           6
   number of lm-projection operators is LMMAX =          18
 
 POTCAR:    PAW_PBE H 15Jun2001                   
   VRHFIN =H: ultrasoft test                                                    
   LEXCH  = PE                                                                  
   EATOM  =    12.4884 eV,    0.9179 Ry                                         
                                                                                
   TITEL  = PAW_PBE H 15Jun2001                                                 
   LULTRA =        F    use ultrasoft PP ?                                      
   IUNSCR =        0    unscreen: 0-lin 1-nonlin 2-no                           
   RPACOR =    0.000    partial core radius                                     
   POMASS =    1.000; ZVAL   =    1.000    mass and valenz                      
   RCORE  =    1.100    outmost cutoff radius                                   
   RWIGS  =    0.700; RWIGS  =    0.370    wigner-seitz radius (au A)           
   ENMAX  =  250.000; ENMIN  =  200.000 eV                                      
   RCLOC  =    0.701    cutoff for local pot                                    
   LCOR   =        T    correct aug charges                                     
   LPAW   =        T    paw PP                                                  
   EAUG   =  400.000                                                            
   RMAX   =    1.123    core radius for proj-oper                               
   RAUG   =    1.200    factor for augmentation sphere                          
   RDEP   =    1.112    radius for radial grids                                 
   RDEPT  =    0.926    core radius for aug-charge                              
                                                                                
   Atomic configuration                                                         
    2 entries                                                                   
     n  l   j            E        occ.                                          
     1  0  0.50        -6.4927   1.0000                                         
     2  1  0.50        -3.4015   0.0000                                         
   Description                                                                  
     l       E           TYP  RCUT    TYP  RCUT                                 
     0     -6.4927494     23  1.100                                             
     0      6.8029130     23  1.100                                             
     1     -4.0817478     23  1.100                                             
  local pseudopotential read in
  atomic valenz-charges read in
  non local Contribution for L=           0  read in
    real space projection operators read in
  non local Contribution for L=           0  read in
    real space projection operators read in
  non local Contribution for L=           1  read in
    real space projection operators read in
    PAW grid and wavefunctions read in
 
   number of l-projection  operators is LMAX  =           3
   number of lm-projection operators is LMMAX =           5
 
 Optimization of the real space projectors (new method)

 maximal supplied QI-value         = 14.36
 optimisation between [QCUT,QGAM] = [ 11.92, 23.98] = [ 39.79,161.09] Ry 
 Optimized for a Real-space Cutoff    1.49 Angstroem

   l    n(q)    QCUT    max X(q) W(low)/X(q) W(high)/X(q)  e(spline) 
   2     10    11.920    66.195    0.79E-04    0.18E-03    0.24E-06
   2     10    11.920    64.643    0.81E-04    0.19E-03    0.24E-06
   0     11    11.920    95.520    0.28E-04    0.54E-04    0.18E-06
   0     11    11.920    63.403    0.27E-04    0.52E-04    0.17E-06
   1     10    11.920    19.961    0.18E-04    0.11E-03    0.23E-06
   1     10    11.920    13.289    0.25E-04    0.87E-04    0.19E-06
 Optimization of the real space projectors (new method)

 maximal supplied QI-value         = 16.25
 optimisation between [QCUT,QGAM] = [ 11.86, 23.89] = [ 39.41,159.82] Ry 
 Optimized for a Real-space Cutoff    1.33 Angstroem

   l    n(q)    QCUT    max X(q) W(low)/X(q) W(high)/X(q)  e(spline) 
   2      9    11.864    65.824    0.22E-03    0.53E-03    0.26E-06
   2      9    11.864    61.429    0.22E-03    0.53E-03    0.26E-06
   0      9    11.864    56.174    0.21E-03    0.32E-04    0.15E-06
   0      9    11.864    31.263    0.19E-03    0.30E-04    0.14E-06
   1      9    11.864    19.828    0.63E-04    0.30E-03    0.16E-06
   1      9    11.864    15.139    0.49E-04    0.25E-03    0.13E-06
 Optimization of the real space projectors (new method)

 maximal supplied QI-value         = 16.25
 optimisation between [QCUT,QGAM] = [ 11.86, 23.89] = [ 39.41,159.82] Ry 
 Optimized for a Real-space Cutoff    1.33 Angstroem

   l    n(q)    QCUT    max X(q) W(low)/X(q) W(high)/X(q)  e(spline) 
   2      9    11.864    60.317    0.21E-03    0.51E-03    0.25E-06
   2      9    11.864    55.921    0.21E-03    0.51E-03    0.26E-06
   0      9    11.864    51.690    0.22E-03    0.30E-04    0.17E-06
   0      9    11.864    30.015    0.20E-03    0.28E-04    0.15E-06
   1      9    11.864    18.849    0.76E-04    0.33E-03    0.17E-06
   1      9    11.864    14.624    0.60E-04    0.28E-03    0.15E-06
 Optimization of the real space projectors (new method)

 maximal supplied QI-value         = 34.20
 optimisation between [QCUT,QGAM] = [ 11.97, 23.94] = [ 40.13,160.53] Ry 
 Optimized for a Real-space Cutoff    1.18 Angstroem

   l    n(q)    QCUT    max X(q) W(low)/X(q) W(high)/X(q)  e(spline) 
   0      8    11.971    19.460    0.15E-03    0.31E-03    0.25E-06
   0      8    11.971    12.209    0.13E-03    0.29E-03    0.25E-06
   1      8    11.971     4.655    0.22E-03    0.24E-03    0.21E-06
  PAW_PBE Pt 04Feb2005                  :
 energy of atom  1       EATOM= -729.1176
 kinetic energy error for atom=    0.0021 (will be added to EATOM!!)
  PAW_PBE Co 02Aug2007                  :
 energy of atom  2       EATOM= -813.3670
 kinetic energy error for atom=    0.0026 (will be added to EATOM!!)
  PAW_PBE Ni 02Aug2007                  :
 energy of atom  3       EATOM=-1077.6739
 kinetic energy error for atom=    0.0027 (will be added to EATOM!!)
  PAW_PBE H 15Jun2001                   :
 energy of atom  4       EATOM=  -12.4884
 kinetic energy error for atom=    0.0008 (will be added to EATOM!!)
 
 
 POSCAR: 11.26                                   
  positions in cartesian coordinates
  No initial velocities read in
 exchange correlation table for  LEXCH =        8
   RHO(1)=    0.500       N(1)  =     2000
   RHO(2)=  100.500       N(2)  =     4000
 


--------------------------------------------------------------------------------------------------------


 ion  position               nearest neighbor table
   1  0.788  0.880  0.302-  49 2.48  59 2.56  60 2.65  28 2.70   4 2.74   2 2.74  29 2.75  19 2.80
                            12 2.83  11 2.84  61 2.87  33 2.95
   2  0.031  0.881  0.291-  79 2.48  77 2.54  60 2.72   1 2.74  28 2.75   4 2.80   6 2.86  16 2.89
                            30 2.94  33 3.02  22 3.14  52 3.26
   3  0.275  0.361  0.312-  64 2.56  31 2.62  68 2.64  39 2.66  33 2.70   5 2.74  30 2.75  19 2.80
                            13 2.80  43 2.80  25 2.82  18 2.89
   4  0.879  0.965  0.399-  60 2.70  17 2.71   9 2.72   1 2.74  16 2.74   6 2.75   2 2.80  12 2.82
                            11 2.90
   5  0.110  0.469  0.412-  81 1.92  39 2.62  12 2.70  33 2.72   3 2.74   7 2.75  16 2.80  10 2.82
                            25 2.90  13 3.04
   6  0.131  0.950  0.398-  52 2.59  22 2.72  16 2.74   4 2.75  14 2.77   8 2.78   2 2.86  10 2.91
                             9 2.98
   7  0.872  0.456  0.412-  75 2.55  39 2.58   5 2.75   9 2.77  27 2.78  10 2.80  29 2.82  15 2.85
                            12 2.94
   8  0.376  0.951  0.415-  52 2.54  43 2.55  61 2.69  13 2.75   6 2.78  27 2.78  11 2.84  10 2.86
                            14 2.87
   9  0.864  0.214  0.398-  75 2.60  22 2.68  17 2.72   4 2.72  15 2.75   7 2.77  60 2.81  10 2.93
                             6 2.98
  10  0.125  0.210  0.413-  22 2.62  43 2.70  13 2.76  39 2.79   7 2.80   5 2.82   8 2.86   6 2.91
                             9 2.93
  11  0.628  0.952  0.410-  61 2.64  12 2.72  19 2.73  27 2.75  13 2.77  17 2.78   8 2.84   1 2.84
                             4 2.90
  12  0.876  0.715  0.408-  29 2.67  16 2.70   5 2.70  11 2.72  33 2.80   4 2.82   1 2.83  27 2.83
                             7 2.94
  13  0.378  0.195  0.415-  81 1.85  43 2.69   8 2.75  19 2.75  10 2.76  11 2.77   3 2.80  17 2.87
                            25 2.87   5 3.04
  14  0.373  0.699  0.400-  52 2.53  44 2.55  15 2.72  25 2.77   6 2.77  16 2.81  30 2.86   8 2.87
                            27 2.91
  15  0.618  0.458  0.399-  75 2.54  44 2.60  14 2.72   9 2.75  25 2.76  17 2.85   7 2.85  18 2.86
                            27 2.87
  16  0.116  0.714  0.400-  30 2.66  12 2.70   6 2.74  33 2.74   4 2.74   5 2.80  14 2.81   2 2.89
                            25 2.94
  17  0.631  0.199  0.404-  18 2.69   4 2.71   9 2.72  19 2.78  11 2.78  60 2.79  15 2.85  25 2.85
                            13 2.87
  18  0.538  0.347  0.301-  67 2.46  26 2.60  68 2.66  60 2.68  17 2.69  19 2.69  25 2.84  15 2.86
                             3 2.89  30 2.93  75 3.18
  19  0.526  0.114  0.309-  59 2.48  80 2.51  68 2.57  43 2.61  61 2.64  18 2.69  11 2.73  13 2.75
                            17 2.78   3 2.80   1 2.80  60 2.93
  20  0.546  0.126  0.067-  48 2.50  57 2.52  47 2.52  62 2.53  37 2.60  56 2.66  34 2.70  63 2.89

  21  0.118  0.408  0.119-  47 2.44  40 2.48  36 2.49  69 2.60  57 2.64  42 2.67  64 2.70  70 2.72
                            31 2.74  50 3.30
  22  0.053  0.147  0.310-  77 2.41  65 2.51  55 2.52  43 2.57  10 2.62  39 2.63   9 2.68   6 2.72
                            75 2.91  52 3.05  31 3.06   2 3.14  60 3.21
  23  0.009  0.102  0.049-  40 2.49  62 2.55  70 2.57  41 2.59  45 2.66  76 2.69  24 2.70  35 2.74
                            53 3.07
  24  0.138  0.927  0.142-  79 2.46  35 2.50  77 2.54  58 2.54  53 2.56  55 2.59  38 2.59  73 2.64
                            70 2.65  23 2.70  66 2.83
  25  0.376  0.452  0.408-  81 1.82  15 2.76  14 2.77  30 2.78   3 2.82  18 2.84  17 2.85  13 2.87
                             5 2.90  16 2.94
  26  0.480  0.554  0.230-  74 2.50  44 2.51  73 2.52  51 2.59  79 2.60  18 2.60  30 2.62  78 2.62
                            32 2.66  67 2.70
  27  0.627  0.707  0.413-  44 2.49  61 2.69  11 2.75   8 2.78   7 2.78  29 2.79  12 2.83  15 2.87
                            14 2.91
  28  0.953  0.759  0.204-  58 2.53  50 2.61  66 2.61  42 2.62  36 2.63  33 2.66   1 2.70   2 2.75
                            64 2.80  49 2.88  34 3.22  59 3.23  35 3.30
  29  0.796  0.631  0.311-  39 2.60  32 2.61  49 2.61  75 2.62  42 2.63  33 2.64  44 2.66  12 2.67
                             1 2.75  27 2.79   7 2.82  61 2.82
  30  0.274  0.605  0.302-  79 2.44  33 2.60  64 2.60  26 2.62  16 2.66   3 2.75  25 2.78  14 2.86
                            18 2.93   2 2.94  52 3.31
  31  0.187  0.262  0.225-  70 2.52  57 2.57  65 2.58  55 2.59   3 2.62  39 2.63  43 2.63  42 2.72
                            80 2.73  21 2.74  68 2.76  64 2.79  22 3.06
  32  0.711  0.561  0.214-  69 2.53  51 2.56  54 2.61  29 2.61  49 2.62  26 2.66  65 2.66  50 2.66
                            42 2.68  75 2.68  78 2.71  67 2.73  44 2.75
  33  0.042  0.608  0.305-  42 2.46  64 2.51  39 2.51  30 2.60  29 2.64  28 2.66   3 2.70   5 2.72
                            16 2.74  12 2.80   1 2.95   2 3.02
  34  0.782  0.884  0.080-  48 2.38  35 2.38  50 2.53  66 2.54  36 2.55  62 2.67  20 2.70  28 3.22

  35  0.002  0.866  0.072-  36 2.37  34 2.38  66 2.43  24 2.50  58 2.60  23 2.74  62 2.75  28 3.30

  36  0.006  0.657  0.094-  50 2.33  35 2.37  58 2.38  21 2.49  34 2.55  28 2.63
  37  0.628  0.234  0.150-  41 2.41  56 2.42  59 2.43  67 2.44  62 2.45  68 2.50  51 2.50  74 2.51
                            20 2.60  66 2.60
  38  0.361  0.942  0.135-  53 2.40  45 2.41  63 2.42  57 2.43  48 2.45  55 2.45  54 2.46  78 2.48
                            80 2.54  73 2.59  24 2.59  70 2.83
  39  0.023  0.395  0.316-  42 2.47  33 2.51  65 2.57   7 2.58  75 2.58  29 2.60   5 2.62  31 2.63
                            22 2.63   3 2.66  10 2.79
  40  0.013  0.321  0.044-  69 2.32  76 2.45  21 2.48  23 2.49  70 2.51  45 2.63  71 2.93
  41  0.844  0.228  0.139-  67 2.35  76 2.37  77 2.38  37 2.41  62 2.44  51 2.48  69 2.48  66 2.49
                            65 2.58  23 2.59  70 2.61
  42  0.967  0.520  0.219-  33 2.46  39 2.47  50 2.48  64 2.48  65 2.50  28 2.62  29 2.63  69 2.65
                            21 2.67  32 2.68  31 2.72
  43  0.302  0.099  0.319-  52 2.45  80 2.48  55 2.51   8 2.55  22 2.57  61 2.59  19 2.61  31 2.63
                            13 2.69  10 2.70   3 2.80
  44  0.552  0.648  0.317-  61 2.46  78 2.48  27 2.49  26 2.51  52 2.55  14 2.55  15 2.60  29 2.66
                            75 2.72  32 2.75
  45  0.251  0.091  0.049-  38 2.41  57 2.45  53 2.48  70 2.50  63 2.54  40 2.63  23 2.66
  46  0.529  0.612  0.047-  54 2.37  73 2.44  51 2.45  71 2.47  72 2.53  53 2.63  56 2.72  76 2.87
                            63 3.07
  47  0.334  0.361  0.072-  74 2.29  56 2.44  21 2.44  57 2.50  72 2.50  20 2.52
  48  0.581  0.937  0.137-  49 2.29  63 2.35  34 2.38  54 2.38  80 2.38  38 2.45  59 2.46  20 2.50
                            57 2.63  50 2.74
  49  0.677  0.809  0.223-  48 2.29  50 2.34  61 2.46  78 2.47   1 2.48  59 2.54  80 2.57  29 2.61
                            32 2.62  54 2.79  28 2.88
  50  0.810  0.679  0.140-  36 2.33  49 2.34  54 2.38  71 2.39  42 2.48  69 2.52  34 2.53  28 2.61
                            32 2.66  48 2.74  21 3.30
  51  0.629  0.454  0.133-  56 2.40  76 2.44  46 2.45  41 2.48  37 2.50  67 2.53  32 2.56  26 2.59
                            74 2.59  69 2.66  73 2.78  54 2.83
  52  0.322  0.872  0.316-  55 2.36  79 2.40  61 2.42  78 2.44  43 2.45  14 2.53   8 2.54  44 2.55
                             6 2.59  22 3.05   2 3.26  30 3.31
  53  0.299  0.850  0.050-  73 2.39  38 2.40  45 2.48  24 2.56  63 2.58  46 2.63  72 2.82  23 3.07

  54  0.581  0.726  0.124-  46 2.37  50 2.38  48 2.38  73 2.40  71 2.42  63 2.42  38 2.46  78 2.50
                            32 2.61  49 2.79  51 2.83
  55  0.229  0.013  0.230-  52 2.36  80 2.44  79 2.44  38 2.45  43 2.51  22 2.52  78 2.56  24 2.59
                            31 2.59  77 2.61  70 2.62
  56  0.549  0.361  0.055-  51 2.40  37 2.42  47 2.44  74 2.52  76 2.56  62 2.60  72 2.61  20 2.66
                            46 2.72
  57  0.344  0.167  0.132-  38 2.43  45 2.45  80 2.47  47 2.50  20 2.52  68 2.55  31 2.57  48 2.63
                            21 2.64  70 2.71
  58  0.176  0.684  0.148-  36 2.38  72 2.39  64 2.41  73 2.43  28 2.53  79 2.53  24 2.54  74 2.56
                            35 2.60
  59  0.661  0.042  0.213-  66 2.38  37 2.43  48 2.46  19 2.48  49 2.54  68 2.55   1 2.56  80 2.59
                            60 2.68  28 3.23
  60  0.784  0.117  0.297-  67 2.45  77 2.53   1 2.65  18 2.68  59 2.68   4 2.70   2 2.72  17 2.79
                             9 2.81  19 2.93  22 3.21
  61  0.537  0.874  0.316-  52 2.42  49 2.46  44 2.46  78 2.48  80 2.52  43 2.59  11 2.64  19 2.64
                            27 2.69   8 2.69  29 2.82   1 2.87
  62  0.773  0.123  0.060-  66 2.43  41 2.44  37 2.45  20 2.53  23 2.55  56 2.60  76 2.63  34 2.67
                            35 2.75
  63  0.500  0.898  0.045-  48 2.35  54 2.42  38 2.42  45 2.54  53 2.58  20 2.89  46 3.07
  64  0.196  0.505  0.214-  58 2.41  42 2.48  33 2.51  74 2.52   3 2.56  30 2.60  68 2.66  21 2.70
                            31 2.79  28 2.80
  65  0.935  0.315  0.226-  69 2.40  75 2.41  67 2.41  77 2.43  42 2.50  22 2.51  70 2.53  39 2.57
                            41 2.58  31 2.58  32 2.66
  66  0.858  0.002  0.156-  77 2.38  59 2.38  62 2.43  35 2.43  41 2.49  34 2.54  37 2.60  28 2.61
                            24 2.83
  67  0.721  0.315  0.230-  41 2.35  75 2.39  65 2.41  37 2.44  60 2.45  18 2.46  51 2.53  26 2.70
                            77 2.70  32 2.73
  68  0.430  0.266  0.214-  74 2.43  37 2.50  57 2.55  59 2.55  19 2.57  80 2.64   3 2.64  64 2.66
                            18 2.66  31 2.76
  69  0.877  0.430  0.129-  40 2.32  71 2.34  65 2.40  41 2.48  76 2.49  50 2.52  32 2.53  21 2.60
                            42 2.65  70 2.65  51 2.66
  70  0.096  0.181  0.140-  45 2.50  40 2.51  31 2.52  65 2.53  23 2.57  41 2.61  55 2.62  24 2.65
                            69 2.65  57 2.71  21 2.72  77 2.83  38 2.83
  71  0.760  0.589  0.052-  69 2.34  50 2.39  54 2.42  46 2.47  76 2.56  40 2.93
  72  0.315  0.592  0.059-  58 2.39  74 2.39  73 2.42  47 2.50  46 2.53  56 2.61  53 2.82
  73  0.382  0.701  0.136-  53 2.39  54 2.40  72 2.42  58 2.43  46 2.44  79 2.49  26 2.52  38 2.59
                            78 2.60  24 2.64  74 2.69  51 2.78
  74  0.400  0.454  0.149-  47 2.29  72 2.39  68 2.43  26 2.50  37 2.51  56 2.52  64 2.52  58 2.56
                            51 2.59  73 2.69
  75  0.789  0.401  0.314-  67 2.39  65 2.41  15 2.54   7 2.55  39 2.58   9 2.60  29 2.62  32 2.68
                            44 2.72  22 2.91  18 3.18
  76  0.781  0.351  0.046-  41 2.37  51 2.44  40 2.45  69 2.49  71 2.56  56 2.56  62 2.63  23 2.69
                            46 2.87
  77  0.970  0.084  0.222-  41 2.38  66 2.38  22 2.41  65 2.43  60 2.53   2 2.54  24 2.54  55 2.61
                            67 2.70  70 2.83
  78  0.465  0.795  0.225-  52 2.44  49 2.47  61 2.48  79 2.48  44 2.48  38 2.48  80 2.48  54 2.50
                            55 2.56  73 2.60  26 2.62  32 2.71
  79  0.249  0.786  0.233-  52 2.40  30 2.44  55 2.44  24 2.46  78 2.48   2 2.48  73 2.49  58 2.53
                            26 2.60
  80  0.439  0.028  0.225-  48 2.38  55 2.44  57 2.47  43 2.48  78 2.48  19 2.51  61 2.52  38 2.54
                            49 2.57  59 2.59  68 2.64  31 2.73
  81  0.290  0.372  0.447-  25 1.82  13 1.85   5 1.92
 
  LATTYP: Found a hexagonal cell.
 ALAT       =    11.2227001190
 C/A-ratio  =     1.9603125600
  
  Lattice vectors:
  
 A1 = (   5.6113500595,  -9.7191434021,   0.0000000000)
 A2 = ( -11.2227001190,   0.0000000000,   0.0000000000)
 A3 = (   0.0000000000,   0.0000000000, -22.0000000000)


Analysis of symmetry for initial positions (statically):
=====================================================================
 Subroutine PRICEL returns:
 Original cell was already a primitive cell.
 

 Routine SETGRP: Setting up the symmetry group for a 
 hexagonal supercell.


 Subroutine GETGRP returns: Found  1 space group operations
 (whereof  1 operations were pure point group operations)
 out of a pool of 24 trial point group operations.


The static configuration has the point symmetry C_1 .


Analysis of symmetry for dynamics (positions and initial velocities):
=====================================================================
 Subroutine PRICEL returns:
 Original cell was already a primitive cell.
 

 Routine SETGRP: Setting up the symmetry group for a 
 hexagonal supercell.


 Subroutine GETGRP returns: Found  1 space group operations
 (whereof  1 operations were pure point group operations)
 out of a pool of 24 trial point group operations.


The dynamic configuration has the point symmetry C_1 .


Analysis of constrained symmetry for selective dynamics:
=====================================================================
 Subroutine PRICEL returns:
 Original cell was already a primitive cell.
 

 Routine SETGRP: Setting up the symmetry group for a 
 hexagonal supercell.


 Subroutine GETGRP returns: Found  1 space group operations
 (whereof  1 operations were pure point group operations)
 out of a pool of 24 trial point group operations.


The constrained configuration has the point symmetry C_1 .


Analysis of structural, dynamic, and magnetic symmetry:
=====================================================================
 Subroutine PRICEL returns:
 Original cell was already a primitive cell.
 

 Routine SETGRP: Setting up the symmetry group for a 
 hexagonal supercell.


 Subroutine GETGRP returns: Found  1 space group operations
 (whereof  1 operations were pure point group operations)
 out of a pool of 24 trial point group operations.


The magnetic configuration has the point symmetry C_1 .


 Subroutine INISYM returns: Found  1 space group operations
 (whereof  1 operations are pure point group operations),
 and found     1 'primitive' translations

 
 
 KPOINTS: mesh auto                               

Automatic generation of k-mesh.
Space group operators:
 irot       det(A)        alpha          n_x          n_y          n_z        tau_x        tau_y        tau_z
    1     1.000000     0.000000     1.000000     0.000000     0.000000     0.000000     0.000000     0.000000
 
 Subroutine IBZKPT returns following result:
 ===========================================
 
 Found      4 irreducible k-points:
 
 Following reciprocal coordinates:
            Coordinates               Weight
  0.000000  0.000000  0.000000      1.000000
  0.500000  0.000000  0.000000      1.000000
  0.000000  0.500000  0.000000      1.000000
  0.500000  0.500000  0.000000      1.000000
 
 Following cartesian coordinates:
            Coordinates               Weight
  0.000000  0.000000  0.000000      1.000000
  0.044553 -0.025722  0.000000      1.000000
  0.000000  0.051445  0.000000      1.000000
  0.044553  0.025722  0.000000      1.000000
 
 TETIRR: Found     12 inequivalent tetrahedra from       24
 
 Subroutine IBZKPT_HF returns following result:
 ==============================================
 
 Found      4 k-points in 1st BZ
 the following      4 k-points will be used (e.g. in the exchange kernel)
 Following reciprocal coordinates:   # in IRBZ
  0.000000  0.000000  0.000000    0.25000000   1 t-inv F
  0.500000  0.000000  0.000000    0.25000000   2 t-inv F
  0.000000  0.500000  0.000000    0.25000000   3 t-inv F
  0.500000  0.500000  0.000000    0.25000000   4 t-inv F


--------------------------------------------------------------------------------------------------------




 Dimension of arrays:
   k-points           NKPTS =      4   k-points in BZ     NKDIM =      4   number of bands    NBANDS=    576
   number of dos      NEDOS =    301   number of ions     NIONS =     81
   non local maximal  LDIM  =      6   non local SUM 2l+1 LMDIM =     18
   total plane-waves  NPLWV = ******
   max r-space proj   IRMAX =   7929   max aug-charges    IRDMAX=  34542
   dimension x,y,z NGX =    90 NGY =   90 NGZ =  168
   dimension x,y,z NGXF=   180 NGYF=  180 NGZF=  336
   support grid    NGXF=   180 NGYF=  180 NGZF=  336
   ions per type =              32  23  25   1
   NGX,Y,Z   is equivalent  to a cutoff of  13.33, 13.33, 12.70 a.u.
   NGXF,Y,Z  is equivalent  to a cutoff of  26.66, 26.66, 25.39 a.u.

 SYSTEM =  Pt111                                   
 POSCAR =  11.26                                   

 Startparameter for this run:
   NWRITE =      2    write-flag & timer
   PREC   = accura    normal or accurate (medium, high low for compatibility)
   ISTART =      0    job   : 0-new  1-cont  2-samecut
   ICHARG =      2    charge: 1-file 2-atom 10-const
   ISPIN  =      2    spin polarized calculation?
   LNONCOLLINEAR =      F non collinear calculations
   LSORBIT =      F    spin-orbit coupling
   INIWAV =      1    electr: 0-lowe 1-rand  2-diag
   LASPH  =      F    aspherical Exc in radial PAW
   METAGGA=      F    non-selfconsistent MetaGGA calc.

 Electronic Relaxation 1
   ENCUT  =  550.0 eV  40.42 Ry    6.36 a.u.  21.46 21.46 42.07*2*pi/ulx,y,z
   ENINI  =  550.0     initial cutoff
   ENAUG  =  544.6 eV  augmentation charge cutoff
   NELM   =    200;   NELMIN=  2; NELMDL= -5     # of ELM steps 
   EDIFF  = 0.1E-04   stopping-criterion for ELM
   LREAL  =      T    real-space projection
   NLSPLINE    = F    spline interpolate recip. space projectors
   LCOMPAT=      F    compatible to vasp.4.4
   GGA_COMPAT  = T    GGA compatible to vasp.4.4-vasp.4.6
   LMAXPAW     = -100 max onsite density
   LMAXMIX     =    2 max onsite mixed and CHGCAR
   VOSKOWN=      0    Vosko Wilk Nusair interpolation
   ROPT   =   -0.00025  -0.00025  -0.00025  -0.00025
 Ionic relaxation
   EDIFFG = -.5E-01   stopping-criterion for IOM
   NSW    =   1009    number of steps for IOM
   NBLOCK =      1;   KBLOCK =   1009    inner block; outer block 
   IBRION =      5    ionic relax: 0-MD 1-quasi-New 2-CG
   NFREE  =      2    steps in history (QN), initial steepest desc. (CG)
   ISIF   =      2    stress and relaxation
   IWAVPR =     11    prediction:  0-non 1-charg 2-wave 3-comb
   ISYM   =      2    0-nonsym 1-usesym 2-fastsym
   LCORR  =      T    Harris-Foulkes like correction to forces

   POTIM  = 0.5000    time-step for ionic-motion
   TEIN   =    0.0    initial temperature
   TEBEG  =    0.0;   TEEND  =   0.0 temperature during run
   SMASS  =  -3.00    Nose mass-parameter (am)
   estimated Nose-frequenzy (Omega)   =  0.10E-29 period in steps =****** mass=  -0.288E-26a.u.
   SCALEE = 1.0000    scale energy and forces
   NPACO  =    256;   APACO  = 16.0  distance and # of slots for P.C.
   PSTRESS=    0.0 pullay stress

  Mass of Ions in am
   POMASS = 195.08 58.93 58.69  1.00
  Ionic Valenz
   ZVAL   =  10.00  9.00 10.00  1.00
  Atomic Wigner-Seitz radii
   RWIGS  =  -1.00 -1.00 -1.00 -1.00
  virtual crystal weights 
   VCA    =   1.00  1.00  1.00  1.00
   NELECT =     778.0000    total number of electrons
   NUPDOWN=      -1.0000    fix difference up-down

 DOS related values:
   EMIN   =  10.00;   EMAX   =-10.00  energy-range for DOS
   EFERMI =   0.00
   ISMEAR =    -5;   SIGMA  =   0.10  broadening in eV -4-tet -1-fermi 0-gaus

 Electronic relaxation 2 (details)
   IALGO  =     68    algorithm
   LDIAG  =      T    sub-space diagonalisation (order eigenvalues)
   LSUBROT=      F    optimize rotation matrix (better conditioning)
   TURBO    =      0    0=normal 1=particle mesh
   IRESTART =      0    0=no restart 2=restart with 2 vectors
   NREBOOT  =      0    no. of reboots
   NMIN     =      0    reboot dimension
   EREF     =   0.00    reference energy to select bands
   IMIX   =      4    mixing-type and parameters
     AMIX     =   0.40;   BMIX     =  1.00
     AMIX_MAG =   1.60;   BMIX_MAG =  1.00
     AMIN     =   0.10
     WC   =   100.;   INIMIX=   1;  MIXPRE=   1;  MAXMIX= -45

 Intra band minimization:
   WEIMIN = 0.0010     energy-eigenvalue tresh-hold
   EBREAK =  0.43E-08  absolut break condition
   DEPER  =   0.30     relativ break condition  

   TIME   =   0.40     timestep for ELM

  volume/ion in A,a.u.               =      29.63       199.92
  Fermi-wavevector in a.u.,A,eV,Ry     =   1.124653  2.125287 17.209264  1.264845
  Thomas-Fermi vector in A             =   2.261326
 
 Write flags
   LWAVE        =      F    write WAVECAR
   LDOWNSAMPLE  =      F    k-point downsampling of WAVECAR
   LCHARG       =      F    write CHGCAR
   LVTOT        =      F    write LOCPOT, total local potential
   LVHAR        =      F    write LOCPOT, Hartree potential only
   LELF         =      F    write electronic localiz. function (ELF)
   LORBIT       =      0    0 simple, 1 ext, 2 COOP (PROOUT), +10 PAW based schemes


 Dipole corrections
   LMONO  =      F    monopole corrections only (constant potential shift)
   LDIPOL =      F    correct potential (dipole corrections)
   IDIPOL =      0    1-x, 2-y, 3-z, 4-all directions 
   EPSILON=  1.0000000 bulk dielectric constant

 Exchange correlation treatment:
   GGA     =    --    GGA type
   LEXCH   =     8    internal setting for exchange type
   VOSKOWN=      0    Vosko Wilk Nusair interpolation
   LHFCALC =     F    Hartree Fock is set to
   LHFONE  =     F    Hartree Fock one center treatment
   AEXX    =    0.0000 exact exchange contribution

 Linear response parameters
   LEPSILON=     F    determine dielectric tensor
   LRPA    =     F    only Hartree local field effects (RPA)
   LNABLA  =     F    use nabla operator in PAW spheres
   LVEL    =     F    velocity operator in full k-point grid
   LINTERFAST=   F  fast interpolation
   KINTER  =     0    interpolate to denser k-point grid
   CSHIFT  =0.1000    complex shift for real part using Kramers Kronig
   OMEGAMAX=  -1.0    maximum frequency
   DEG_THRESHOLD= 0.2000000E-02 threshold for treating states as degnerate
   RTIME   =   -0.100 relaxation time in fs
  (WPLASMAI=    0.000 imaginary part of plasma frequency in eV, 0.658/RTIME)
   DFIELD  = 0.0000000 0.0000000 0.0000000 field for delta impulse in time
 
 Orbital magnetization related:
   ORBITALMAG=     F  switch on orbital magnetization
   LCHIMAG   =     F  perturbation theory with respect to B field
   DQ        =  0.001000  dq finite difference perturbation B field
   LLRAUG    =     F  two centre corrections for induced B field



--------------------------------------------------------------------------------------------------------


 finite differences
   using selective dynamics as specified on POSCAR
   WARNING: If single coordinates had been selected the selection of coordinates
            is made according to the corresponding   d i r e c t   coordinates!
            Don't support selection of single cartesian coordinates -- sorry ...
  !
 charge density and potential will be updated during run
 spin polarized calculation
 RMM-DIIS sequential band-by-band and
  variant of blocked Davidson during initial phase
 perform sub-space diagonalisation
    before iterative eigenvector-optimisation
 modified Broyden-mixing scheme, WC =      100.0
 initial mixing is a Kerker type mixing with AMIX =  0.4000 and BMIX =      1.0000
 Hartree-type preconditioning will be used
 using additional bands          187
 real space projection scheme for non local part
 use partial core corrections
 calculate Harris-corrections to forces 
   (improved forces if not selfconsistent)
 use gradient corrections 
 use of overlap-Matrix (Vanderbilt PP)
 Fermi weights with tetrahedron method with Bloechl corrections


--------------------------------------------------------------------------------------------------------


  energy-cutoff  :      550.00
  volume of cell :     2399.65
      direct lattice vectors                 reciprocal lattice vectors
    11.222700119  0.000000000  0.000000000     0.089105116 -0.051444863  0.000000000
     5.611350060  9.719143402  0.000000000     0.000000000  0.102889726  0.000000000
     0.000000000  0.000000000 22.000000000     0.000000000  0.000000000  0.045454545

  length of vectors
    11.222700119 11.222700119 22.000000000     0.102889726  0.102889726  0.045454545


 
 k-points in units of 2pi/SCALE and weight: mesh auto                               
   0.00000000  0.00000000  0.00000000       0.250
   0.04455256 -0.02572243  0.00000000       0.250
   0.00000000  0.05144486  0.00000000       0.250
   0.04455256  0.02572243  0.00000000       0.250
 
 k-points in reciprocal lattice and weights: mesh auto                               
   0.00000000  0.00000000  0.00000000       0.250
   0.50000000  0.00000000  0.00000000       0.250
   0.00000000  0.50000000  0.00000000       0.250
   0.50000000  0.50000000  0.00000000       0.250
 
 position of ions in fractional coordinates (direct lattice) 
   0.78834293  0.87953441  0.30152134
   0.03130434  0.88081499  0.29139182
   0.27499646  0.36074954  0.31171097
   0.87880294  0.96457193  0.39905107
   0.10957132  0.46863106  0.41202013
   0.13093426  0.95012444  0.39750411
   0.87174252  0.45558685  0.41226630
   0.37565932  0.95144505  0.41524172
   0.86403050  0.21431821  0.39765898
   0.12492333  0.21016988  0.41342179
   0.62796629  0.95199026  0.40955615
   0.87563260  0.71538569  0.40795034
   0.37800500  0.19517076  0.41528408
   0.37342631  0.69896116  0.40013814
   0.61782433  0.45821186  0.39932031
   0.11623727  0.71396844  0.39986402
   0.63056561  0.19852488  0.40354748
   0.53780176  0.34713814  0.30088672
   0.52629073  0.11368274  0.30884439
   0.54569241  0.12647739  0.06683304
   0.11791659  0.40792499  0.11908862
   0.05328953  0.14668130  0.31027339
   0.00892895  0.10176852  0.04917651
   0.13783207  0.92691145  0.14197368
   0.37607283  0.45153635  0.40775952
   0.47979716  0.55399880  0.22971747
   0.62742862  0.70733922  0.41343654
   0.95252345  0.75898977  0.20420405
   0.79616114  0.63129534  0.31070626
   0.27425538  0.60535473  0.30215558
   0.18749030  0.26198206  0.22539890
   0.71089206  0.56100734  0.21410215
   0.04176161  0.60750961  0.30483883
   0.78196837  0.88367072  0.08012597
   0.00167860  0.86570870  0.07172203
   0.00649475  0.65686199  0.09367822
   0.62789021  0.23379040  0.14972974
   0.36050112  0.94235243  0.13470415
   0.02262758  0.39487109  0.31634252
   0.01296097  0.32139498  0.04442433
   0.84423970  0.22761319  0.13891977
   0.96744603  0.52048649  0.21885007
   0.30180714  0.09944035  0.31941620
   0.55170824  0.64778715  0.31726374
   0.25085454  0.09128101  0.04878728
   0.52913784  0.61162204  0.04697948
   0.33389242  0.36126594  0.07221963
   0.58147332  0.93651314  0.13694302
   0.67732667  0.80921239  0.22305304
   0.80979447  0.67906481  0.14024348
   0.62937817  0.45366950  0.13325724
   0.32203421  0.87195750  0.31623503
   0.29919813  0.84983568  0.05000644
   0.58103448  0.72612545  0.12392179
   0.22907234  0.01294552  0.22967573
   0.54871865  0.36069037  0.05545242
   0.34411655  0.16690962  0.13164412
   0.17554400  0.68420617  0.14761894
   0.66082635  0.04249037  0.21304482
   0.78446090  0.11729572  0.29674922
   0.53710824  0.87386674  0.31589685
   0.77284397  0.12278263  0.06048458
   0.50030742  0.89844953  0.04455515
   0.19571508  0.50522867  0.21438636
   0.93546177  0.31542046  0.22552712
   0.85824468  0.00195101  0.15611973
   0.72104290  0.31497628  0.22969726
   0.43002289  0.26577701  0.21377066
   0.87703755  0.42955743  0.12878365
   0.09634819  0.18069822  0.13969274
   0.75988870  0.58867799  0.05155611
   0.31527374  0.59151669  0.05925234
   0.38179216  0.70126590  0.13646584
   0.40042658  0.45377032  0.14884727
   0.78930881  0.40145792  0.31371941
   0.78089926  0.35148021  0.04598080
   0.96954404  0.08430315  0.22196820
   0.46486898  0.79463888  0.22533144
   0.24890496  0.78598962  0.23267623
   0.43862206  0.02771317  0.22450195
   0.29034480  0.37212223  0.44666214
 
 position of ions in cartesian coordinates  (Angst):
  13.78271180  8.54832109  6.63346951
   5.29388042  8.56076721  6.41061996
   5.11049477  3.50617655  6.85764125
  15.27509257  9.37481288  8.77912358
   3.85933900  4.55469250  9.06444291
   6.80091675  9.23439564  8.74509042
  12.33976211  4.42791390  9.06985867
   9.55480311  9.24723086  9.13531790
  10.89936969  2.08298946  8.74849751
   2.58131392  2.04267124  9.09527931
  12.38942791  9.25252986  9.01023531
  13.84124157  6.95293608  8.97490750
   5.33740823  1.89689257  9.13624971
   8.11296722  6.79330373  8.80303918
   9.50484436  4.45342681  8.78504690
   5.31082288  6.93916164  8.79700839
   8.19064138  1.92949179  8.87804466
   7.98350145  3.37388536  6.61950786
   6.54431673  1.10489884  6.79457666
   6.83385120  1.22925189  1.47032698
   3.61235247  3.96468152  2.61994962
   1.42113249  1.42561657  6.82601456
   0.67126575  0.98910281  1.08188317
   6.74807265  9.00878530  3.12342105
   6.75428114  4.38854656  8.97070948
   8.49330084  5.38439383  5.05378437
  11.01057116  6.87473129  9.09560377
  14.94884239  7.37673046  4.49248916
  12.47749681  6.13564990  6.83553771
   6.47474320  5.88352947  6.64742281
   3.57422044  2.54624125  4.95877580
  11.12613698  5.45251083  4.71024739
   3.87762714  5.90447302  6.70645429
  13.73438227  8.58852246  1.76277137
   4.87663302  8.41394697  1.57788465
   3.75877116  6.38413590  2.06092090
   8.35850333  2.27224245  3.29405432
   9.33366537  9.15885838  2.96349132
   2.46970249  3.83780872  6.95953551
   1.94891684  3.12368389  0.97733531
  10.75186628  2.21220519  3.05623495
  13.77798860  5.05868282  4.81470165
   3.94508567  0.96647505  7.02715649
   9.82661663  6.29593618  6.97980234
   3.32747495  0.88717326  1.07332023
   9.37038068  5.94444230  1.03354859
   5.77436416  3.51119550  1.58883193
  11.78080373  9.10210551  3.01274644
  12.14220806  7.86485128  4.90716692
  12.89855082  6.59992829  3.08535659
   9.60902083  4.40927897  2.93165935
   8.50695214  8.47467994  6.95717065
   8.12653637  8.25967484  1.10014163
  10.59531978  7.05731733  2.72627938
   2.64345207  0.12581940  5.05286608
   8.18206475  3.50560142  1.21995326
   4.79850516  1.62221856  2.89617069
   5.80939796  6.64989784  3.24761674
   7.65468432  0.41297001  4.68698615
   9.46195675  1.14001394  6.52848278
  10.93137687  8.49323613  6.94973071
   9.36237240  1.19334199  1.33066085
  10.65631497  8.73215981  0.98021322
   5.03146660  4.91038993  4.71649990
  12.26834149  3.06561666  4.96159659
   9.64277050  0.01896212  3.43463404
   9.85949038  3.06129963  5.05333976
   6.31738572  2.58312482  4.70295446
  12.25312658  4.17493029  2.83324027
   2.09524784  1.75623189  3.07324021
  11.83128130  5.72144585  1.13423452
   6.85742987  5.74903551  1.30355140
   8.21978744  6.81570388  3.00224843
   7.04013147  4.41025877  3.27463986
  11.11089703  3.90182706  6.90182704
  10.73607676  3.41608656  1.01157751
  11.35395654  0.81935443  4.88330047
   9.67608211  7.72320924  4.95729164
   7.20384860  7.63914586  5.11887697
   5.07803210  0.26934830  4.93904295
   5.34656072  3.61670935  9.82656710
 


--------------------------------------------------------------------------------------------------------


 k-point  1 :   0.0000 0.0000 0.0000  plane waves:   70321
 k-point  2 :   0.5000 0.0000 0.0000  plane waves:   70264
 k-point  3 :   0.0000 0.5000 0.0000  plane waves:   70264
 k-point  4 :   0.5000 0.5000 0.0000  plane waves:   70264

 maximum and minimum number of plane-waves per node :     70321    70264

 maximum number of plane-waves:     70321
 maximum index in each direction: 
   IXMAX=   21   IYMAX=   21   IZMAX=   42
   IXMIN=  -21   IYMIN=  -21   IZMIN=  -42


 serial   3D FFT for wavefunctions
 parallel 3D FFT for charge:
    minimum data exchange during FFTs selected (reduces bandwidth)


 total amount of memory used by VASP MPI-rank0   379518. kBytes
=======================================================================

   base      :      30000. kBytes
   nonlr-proj:      90632. kBytes
   fftplans  :      13535. kBytes
   grid      :     132462. kBytes
   one-center:       2519. kBytes
   wavefun   :     110370. kBytes
 
     INWAV:  cpu time    0.0001: real time    0.0005
 Broyden mixing: mesh for mixing (old mesh)
   NGX = 43   NGY = 43   NGZ = 85
  (NGX  =180   NGY  =180   NGZ  =336)
  gives a total of 157165 points

 initial charge density was supplied:
 charge density of overlapping atoms calculated
 number of electron     778.0000000 magnetization     206.0000000
 keeping initial charge density in first step


--------------------------------------------------------------------------------------------------------


 Maximum index for non-local projection operator         7666
 Maximum index for augmentation-charges         1121 (set IRDMAX)


--------------------------------------------------------------------------------------------------------


 First call to EWALD:  gamma=   0.132
 Maximum number of real-space cells 4x 4x 2
 Maximum number of reciprocal cells 2x 2x 4

    FEWALD:  cpu time    0.0039: real time    0.0039


--------------------------------------- Iteration      1(   1)  ---------------------------------------


    POTLOK:  cpu time    0.4827: real time    0.4902
    SETDIJ:  cpu time    0.0312: real time    0.0312
     EDDAV:  cpu time   56.0469: real time   56.3244
 BZINTS: Fermi energy: 15.086326;778.000000 electrons
         Band energy:6664.334390;  BLOECHL correction: -0.010754
       DOS:  cpu time    0.0209: real time    0.0336
    --------------------------------------------
      LOOP:  cpu time   56.5817: real time   56.8795

 eigenvalue-minimisations  :  9216
 total energy-change (2. order) : 0.6703526E+04  (-0.3449033E+05)
 number of electron     778.0000000 magnetization     206.0000000
 augmentation part      778.0000000 magnetization     206.0000000

 Free energy of the ion-electron system (eV)
  ---------------------------------------------------
  alpha Z        PSCENC =      1751.32544349
  Ewald energy   TEWEN  =    237364.07255215
  -Hartree energ DENC   =   -307422.00969748
  -exchange      EXHF   =         0.00000000
  -V(xc)+E(xc)   XCENC  =      1334.66075090
  PAW double counting   =     62871.68470781   -64853.88848185
  entropy T*S    EENTRO =         0.00000000
  eigenvalues    EBANDS =      6664.33439029
  atomic energy  EATOM  =     68993.34587830
  Solvation  Ediel_sol  =         0.00000000
  ---------------------------------------------------
  free energy    TOTEN  =      6703.52554361 eV

  energy without entropy =     6703.52554361  energy(sigma->0) =     6703.52554361


--------------------------------------------------------------------------------------------------------




--------------------------------------- Iteration      1(   2)  ---------------------------------------


     EDDAV:  cpu time   56.0444: real time   56.1915
 BZINTS: Fermi energy:  4.441715;778.000000 electrons
         Band energy: 303.946082;  BLOECHL correction: -0.014486
       DOS:  cpu time    0.0242: real time    0.0248
    --------------------------------------------
      LOOP:  cpu time   56.0686: real time   56.2163

 eigenvalue-minimisations  :  9216
 total energy-change (2. order) :-0.6360388E+04  (-0.5775608E+04)
 number of electron     778.0000000 magnetization     206.0000000
 augmentation part      778.0000000 magnetization     206.0000000

 Free energy of the ion-electron system (eV)
  ---------------------------------------------------
  alpha Z        PSCENC =      1751.32544349
  Ewald energy   TEWEN  =    237364.07255215
  -Hartree energ DENC   =   -307422.00969748
  -exchange      EXHF   =         0.00000000
  -V(xc)+E(xc)   XCENC  =      1334.66075090
  PAW double counting   =     62871.68470781   -64853.88848185
  entropy T*S    EENTRO =         0.00000000
  eigenvalues    EBANDS =       303.94608202
  atomic energy  EATOM  =     68993.34587830
  Solvation  Ediel_sol  =         0.00000000
  ---------------------------------------------------
  free energy    TOTEN  =       343.13723535 eV

  energy without entropy =      343.13723535  energy(sigma->0) =      343.13723535


--------------------------------------------------------------------------------------------------------




--------------------------------------- Iteration      1(   3)  ---------------------------------------


     EDDAV:  cpu time   59.6646: real time   59.8228
 BZINTS: Fermi energy:  2.811204;778.000000 electrons
         Band energy:-504.963463;  BLOECHL correction: -0.018022
       DOS:  cpu time    0.0226: real time    0.0370
    --------------------------------------------
      LOOP:  cpu time   59.6871: real time   59.8598

 eigenvalue-minimisations  :  9984
 total energy-change (2. order) :-0.8089095E+03  (-0.6954633E+03)
 number of electron     778.0000000 magnetization     206.0000000
 augmentation part      778.0000000 magnetization     206.0000000

 Free energy of the ion-electron system (eV)
  ---------------------------------------------------
  alpha Z        PSCENC =      1751.32544349
  Ewald energy   TEWEN  =    237364.07255215
  -Hartree energ DENC   =   -307422.00969748
  -exchange      EXHF   =         0.00000000
  -V(xc)+E(xc)   XCENC  =      1334.66075090
  PAW double counting   =     62871.68470781   -64853.88848185
  entropy T*S    EENTRO =         0.00000000
  eigenvalues    EBANDS =      -504.96346329
  atomic energy  EATOM  =     68993.34587830
  Solvation  Ediel_sol  =         0.00000000
  ---------------------------------------------------
  free energy    TOTEN  =      -465.77230997 eV

  energy without entropy =     -465.77230997  energy(sigma->0) =     -465.77230997


--------------------------------------------------------------------------------------------------------




--------------------------------------- Iteration      1(   4)  ---------------------------------------


     EDDAV:  cpu time   61.9289: real time   62.8184
 BZINTS: Fermi energy:  2.735133;778.000000 electrons
         Band energy:-543.939135;  BLOECHL correction: -0.017539
       DOS:  cpu time    0.0244: real time    0.0517
    --------------------------------------------
      LOOP:  cpu time   61.9533: real time   62.8700

 eigenvalue-minimisations  : 10368
 total energy-change (2. order) :-0.3897567E+02  (-0.3806521E+02)
 number of electron     778.0000000 magnetization     206.0000000
 augmentation part      778.0000000 magnetization     206.0000000

 Free energy of the ion-electron system (eV)
  ---------------------------------------------------
  alpha Z        PSCENC =      1751.32544349
  Ewald energy   TEWEN  =    237364.07255215
  -Hartree energ DENC   =   -307422.00969748
  -exchange      EXHF   =         0.00000000
  -V(xc)+E(xc)   XCENC  =      1334.66075090
  PAW double counting   =     62871.68470781   -64853.88848185
  entropy T*S    EENTRO =         0.00000000
  eigenvalues    EBANDS =      -543.93913496
  atomic energy  EATOM  =     68993.34587830
  Solvation  Ediel_sol  =         0.00000000
  ---------------------------------------------------
  free energy    TOTEN  =      -504.74798164 eV

  energy without entropy =     -504.74798164  energy(sigma->0) =     -504.74798164


--------------------------------------------------------------------------------------------------------




--------------------------------------- Iteration      1(   5)  ---------------------------------------


     EDDAV:  cpu time   67.7035: real time   67.8905
 BZINTS: Fermi energy:  2.733993;778.000000 electrons
         Band energy:-544.627173;  BLOECHL correction: -0.017665
       DOS:  cpu time    0.0404: real time    0.0929
    CHARGE:  cpu time    3.0024: real time    3.0104
    MIXING:  cpu time    0.0111: real time    0.0112
    --------------------------------------------
      LOOP:  cpu time   70.7574: real time   71.0050

 eigenvalue-minimisations  : 11664
 total energy-change (2. order) :-0.6880380E+00  (-0.6875445E+00)
 number of electron     778.0000040 magnetization     194.1143545
 augmentation part      338.0729161 magnetization     164.5568705

 Broyden mixing:
  rms(total) = 0.10635E+02    rms(broyden)= 0.10635E+02
  rms(prec ) = 0.11005E+02
  weight for this iteration     100.00

 Free energy of the ion-electron system (eV)
  ---------------------------------------------------
  alpha Z        PSCENC =      1751.32544349
  Ewald energy   TEWEN  =    237364.07255215
  -Hartree energ DENC   =   -307422.00969748
  -exchange      EXHF   =         0.00000000
  -V(xc)+E(xc)   XCENC  =      1334.66075090
  PAW double counting   =     62871.68470781   -64853.88848185
  entropy T*S    EENTRO =         0.00000000
  eigenvalues    EBANDS =      -544.62717300
  atomic energy  EATOM  =     68993.34587830
  Solvation  Ediel_sol  =         0.00000000
  ---------------------------------------------------
  free energy    TOTEN  =      -505.43601968 eV

  energy without entropy =     -505.43601968  energy(sigma->0) =     -505.43601968


--------------------------------------------------------------------------------------------------------




--------------------------------------- Iteration      1(   6)  ---------------------------------------


    POTLOK:  cpu time    0.4492: real time    0.4523
    SETDIJ:  cpu time    0.0312: real time    0.0313
    EDDIAG:  cpu time    9.8598: real time    9.8856
  RMM-DIIS:  cpu time   37.5455: real time   37.6604
    ORTHCH:  cpu time    1.3733: real time    1.3822
 BZINTS: Fermi energy:  1.264349;778.000000 electrons
         Band energy:***********;  BLOECHL correction: -0.020193
       DOS:  cpu time    0.0266: real time    0.0267
    CHARGE:  cpu time    3.0108: real time    3.0186
    MIXING:  cpu time    0.0119: real time    0.0123
    --------------------------------------------
      LOOP:  cpu time   52.3083: real time   52.4694

 eigenvalue-minimisations  :  9402
 total energy-change (2. order) :-0.2485797E+03  (-0.9940097E+02)
 number of electron     778.0000058 magnetization     190.8034859
 augmentation part      408.5244821 magnetization     162.4170116

 Broyden mixing:
  rms(total) = 0.20758E+02    rms(broyden)= 0.20758E+02
  rms(prec ) = 0.25808E+02
  weight for this iteration     100.00

 eigenvalues of (default mixing * dielectric matrix)
  average eigenvalue GAMMA=   0.1757
  0.1757

 Free energy of the ion-electron system (eV)
  ---------------------------------------------------
  alpha Z        PSCENC =      1751.32544349
  Ewald energy   TEWEN  =    237364.07255215
  -Hartree energ DENC   =   -306143.40597828
  -exchange      EXHF   =         0.00000000
  -V(xc)+E(xc)   XCENC  =      1288.90601561
  PAW double counting   =     67909.32982579   -69662.36627415
  entropy T*S    EENTRO =         0.00000000
  eigenvalues    EBANDS =     -2255.22317376
  atomic energy  EATOM  =     68993.34587830
  Solvation  Ediel_sol  =         0.00000000
  ---------------------------------------------------
  free energy    TOTEN  =      -754.01571085 eV

  energy without entropy =     -754.01571085  energy(sigma->0) =     -754.01571085


--------------------------------------------------------------------------------------------------------




--------------------------------------- Iteration      1(   7)  ---------------------------------------


    POTLOK:  cpu time    0.4517: real time    0.4538
    SETDIJ:  cpu time    0.0308: real time    0.0309
    EDDIAG:  cpu time    9.8695: real time    9.8960
  RMM-DIIS:  cpu time   37.0868: real time   37.1861
    ORTHCH:  cpu time    1.3723: real time    1.3759
 BZINTS: Fermi energy:  2.035336;778.000000 electrons
         Band energy:***********;  BLOECHL correction: -0.010213
       DOS:  cpu time    0.0246: real time    0.0247
    CHARGE:  cpu time    3.0100: real time    3.0180
    MIXING:  cpu time    0.0115: real time    0.0116
    --------------------------------------------
      LOOP:  cpu time   51.8572: real time   51.9968

 eigenvalue-minimisations  :  9234
 total energy-change (2. order) : 0.2379653E+03  (-0.1705411E+02)
 number of electron     778.0000048 magnetization     187.8701442
 augmentation part      372.0164427 magnetization     152.8921377

 Broyden mixing:
  rms(total) = 0.14943E+02    rms(broyden)= 0.14943E+02
  rms(prec ) = 0.18147E+02
  weight for this iteration     100.00

 eigenvalues of (default mixing * dielectric matrix)
  average eigenvalue GAMMA=   0.2164
  0.2164  0.2164

 Free energy of the ion-electron system (eV)
  ---------------------------------------------------
  alpha Z        PSCENC =      1751.32544349
  Ewald energy   TEWEN  =    237364.07255215
  -Hartree energ DENC   =   -306743.35559582
  -exchange      EXHF   =         0.00000000
  -V(xc)+E(xc)   XCENC  =      1305.49661664
  PAW double counting   =     68950.51831950   -70867.93269495
  entropy T*S    EENTRO =         0.00000000
  eigenvalues    EBANDS =     -1269.52088059
  atomic energy  EATOM  =     68993.34587830
  Solvation  Ediel_sol  =         0.00000000
  ---------------------------------------------------
  free energy    TOTEN  =      -516.05036128 eV

  energy without entropy =     -516.05036128  energy(sigma->0) =     -516.05036128


--------------------------------------------------------------------------------------------------------




--------------------------------------- Iteration      1(   8)  ---------------------------------------


    POTLOK:  cpu time    0.4505: real time    0.4533
    SETDIJ:  cpu time    0.0309: real time    0.0310
    EDDIAG:  cpu time    9.8718: real time    9.8980
  RMM-DIIS:  cpu time   37.3005: real time   37.3991
    ORTHCH:  cpu time    1.3775: real time    1.3811
 BZINTS: Fermi energy:  1.459496;778.000000 electrons
         Band energy:***********;  BLOECHL correction: -0.033528
       DOS:  cpu time    0.0252: real time    0.0253
    CHARGE:  cpu time    3.0172: real time    3.0249
    MIXING:  cpu time    0.0118: real time    0.0120
    --------------------------------------------
      LOOP:  cpu time   52.0853: real time   52.2247

 eigenvalue-minimisations  :  9264
 total energy-change (2. order) : 0.8444333E+02  (-0.1320622E+02)
 number of electron     778.0000047 magnetization     180.9236589
 augmentation part      380.6266551 magnetization     142.6851018

 Broyden mixing:
  rms(total) = 0.11908E+02    rms(broyden)= 0.11908E+02
  rms(prec ) = 0.13946E+02
  weight for this iteration     100.00

 eigenvalues of (default mixing * dielectric matrix)
  average eigenvalue GAMMA=   0.3142
  0.5648  0.2858  0.0919

 Free energy of the ion-electron system (eV)
  ---------------------------------------------------
  alpha Z        PSCENC =      1751.32544349
  Ewald energy   TEWEN  =    237364.07255215
  -Hartree energ DENC   =   -306604.78722035
  -exchange      EXHF   =         0.00000000
  -V(xc)+E(xc)   XCENC  =      1310.02370803
  PAW double counting   =     69660.66664081   -71600.12989378
  entropy T*S    EENTRO =         0.00000000
  eigenvalues    EBANDS =     -1306.12414288
  atomic energy  EATOM  =     68993.34587830
  Solvation  Ediel_sol  =         0.00000000
  ---------------------------------------------------
  free energy    TOTEN  =      -431.60703423 eV

  energy without entropy =     -431.60703423  energy(sigma->0) =     -431.60703423


--------------------------------------------------------------------------------------------------------




--------------------------------------- Iteration      1(   9)  ---------------------------------------


    POTLOK:  cpu time    0.4515: real time    0.4536
    SETDIJ:  cpu time    0.0312: real time    0.0313
    EDDIAG:  cpu time    9.8798: real time    9.9056
  RMM-DIIS:  cpu time   36.8706: real time   36.9705
    ORTHCH:  cpu time    1.3783: real time    1.3845
 BZINTS: Fermi energy:  1.568490;778.000000 electrons
         Band energy:***********;  BLOECHL correction: -0.028631
       DOS:  cpu time    0.0242: real time    0.0305
    CHARGE:  cpu time    3.0277: real time    3.0607
    MIXING:  cpu time    0.0125: real time    0.0143
    --------------------------------------------
      LOOP:  cpu time   51.6760: real time   51.8538

 eigenvalue-minimisations  :  9230
 total energy-change (2. order) :-0.9880043E+02  (-0.1764503E+02)
 number of electron     778.0000045 magnetization     174.8132564
 augmentation part      380.6031348 magnetization     141.8405367

 Broyden mixing:
  rms(total) = 0.16651E+02    rms(broyden)= 0.16651E+02
  rms(prec ) = 0.19104E+02
  weight for this iteration     100.00

 eigenvalues of (default mixing * dielectric matrix)
  average eigenvalue GAMMA=   0.3422
  0.8386  0.3102  0.1100  0.1100

 Free energy of the ion-electron system (eV)
  ---------------------------------------------------
  alpha Z        PSCENC =      1751.32544349
  Ewald energy   TEWEN  =    237364.07255215
  -Hartree energ DENC   =   -306353.84742727
  -exchange      EXHF   =         0.00000000
  -V(xc)+E(xc)   XCENC  =      1327.05204498
  PAW double counting   =     71269.52858966   -73270.60876516
  entropy T*S    EENTRO =         0.00000000
  eigenvalues    EBANDS =     -1611.27578255
  atomic energy  EATOM  =     68993.34587830
  Solvation  Ediel_sol  =         0.00000000
  ---------------------------------------------------
  free energy    TOTEN  =      -530.40746639 eV

  energy without entropy =     -530.40746639  energy(sigma->0) =     -530.40746639


--------------------------------------------------------------------------------------------------------




--------------------------------------- Iteration      1(  10)  ---------------------------------------


    POTLOK:  cpu time    0.4529: real time    0.4611
    SETDIJ:  cpu time    0.0358: real time    0.0407
    EDDIAG:  cpu time    9.8685: real time    9.9023
  RMM-DIIS:  cpu time   36.9116: real time   37.0098
    ORTHCH:  cpu time    1.3867: real time    1.4195
 BZINTS: Fermi energy:  1.899737;778.000000 electrons
         Band energy:***********;  BLOECHL correction: -0.007417
       DOS:  cpu time    0.0253: real time    0.0254
    CHARGE:  cpu time    3.0183: real time    3.0294
    MIXING:  cpu time    0.0127: real time    0.0128
    --------------------------------------------
      LOOP:  cpu time   51.7115: real time   51.8982

 eigenvalue-minimisations  :  9236
 total energy-change (2. order) : 0.1114513E+03  (-0.1217675E+02)
 number of electron     778.0000050 magnetization     169.3467188
 augmentation part      381.6674921 magnetization     126.3968585

 Broyden mixing:
  rms(total) = 0.10551E+02    rms(broyden)= 0.10550E+02
  rms(prec ) = 0.13510E+02
  weight for this iteration     100.00

 eigenvalues of (default mixing * dielectric matrix)
  average eigenvalue GAMMA=   0.3490
  0.9349  0.4279  0.1464  0.1464  0.0894

 Free energy of the ion-electron system (eV)
  ---------------------------------------------------
  alpha Z        PSCENC =      1751.32544349
  Ewald energy   TEWEN  =    237364.07255215
  -Hartree energ DENC   =   -306754.51397906
  -exchange      EXHF   =         0.00000000
  -V(xc)+E(xc)   XCENC  =      1336.50309061
  PAW double counting   =     72577.48789482   -74639.30856093
  entropy T*S    EENTRO =         0.00000000
  eigenvalues    EBANDS =     -1047.86847521
  atomic energy  EATOM  =     68993.34587830
  Solvation  Ediel_sol  =         0.00000000
  ---------------------------------------------------
  free energy    TOTEN  =      -418.95615583 eV

  energy without entropy =     -418.95615583  energy(sigma->0) =     -418.95615583


--------------------------------------------------------------------------------------------------------




--------------------------------------- Iteration      1(  11)  ---------------------------------------


    POTLOK:  cpu time    0.4511: real time    0.4543
    SETDIJ:  cpu time    0.0311: real time    0.0312
    EDDIAG:  cpu time    9.8866: real time    9.9262
  RMM-DIIS:  cpu time   37.2922: real time   37.4079
    ORTHCH:  cpu time    1.3748: real time    1.3810
 BZINTS: Fermi energy:  1.943530;778.000000 electrons
         Band energy:-737.508036;  BLOECHL correction: -0.070989
       DOS:  cpu time    0.0235: real time    0.0235
    CHARGE:  cpu time    3.0077: real time    3.0181
    MIXING:  cpu time    0.0128: real time    0.0129
    --------------------------------------------
      LOOP:  cpu time   52.0799: real time   52.2551

 eigenvalue-minimisations  :  9265
 total energy-change (2. order) : 0.6144503E+02  (-0.8559255E+01)
 number of electron     778.0000049 magnetization     165.2086996
 augmentation part      373.7205168 magnetization     123.4224786

 Broyden mixing:
  rms(total) = 0.95718E+01    rms(broyden)= 0.95717E+01
  rms(prec ) = 0.10391E+02
  weight for this iteration     100.00

 eigenvalues of (default mixing * dielectric matrix)
  average eigenvalue GAMMA=   0.3524
  1.0583  0.4717  0.1687  0.1687  0.1549  0.0923

 Free energy of the ion-electron system (eV)
  ---------------------------------------------------
  alpha Z        PSCENC =      1751.32544349
  Ewald energy   TEWEN  =    237364.07255215
  -Hartree energ DENC   =   -306967.57685392
  -exchange      EXHF   =         0.00000000
  -V(xc)+E(xc)   XCENC  =      1337.04815630
  PAW double counting   =     73478.25910973   -75576.47737792
  entropy T*S    EENTRO =         0.00000000
  eigenvalues    EBANDS =      -737.50803569
  atomic energy  EATOM  =     68993.34587830
  Solvation  Ediel_sol  =         0.00000000
  ---------------------------------------------------
  free energy    TOTEN  =      -357.51112757 eV

  energy without entropy =     -357.51112757  energy(sigma->0) =     -357.51112757


--------------------------------------------------------------------------------------------------------




--------------------------------------- Iteration      1(  12)  ---------------------------------------


    POTLOK:  cpu time    0.4487: real time    0.4529
    SETDIJ:  cpu time    0.0312: real time    0.0313
    EDDIAG:  cpu time    9.8674: real time    9.9005
  RMM-DIIS:  cpu time   37.3230: real time   37.4436
    ORTHCH:  cpu time    1.3786: real time    1.3822
 BZINTS: Fermi energy:  2.013641;778.000000 electrons
         Band energy:-747.492462;  BLOECHL correction: -0.046443
       DOS:  cpu time    0.0226: real time    0.0227
    CHARGE:  cpu time    3.0178: real time    3.0258
    MIXING:  cpu time    0.0132: real time    0.0134
    --------------------------------------------
      LOOP:  cpu time   52.1024: real time   52.2724

 eigenvalue-minimisations  :  9266
 total energy-change (2. order) :-0.1257266E+02  (-0.5560650E+01)
 number of electron     778.0000045 magnetization     160.6172695
 augmentation part      372.4146770 magnetization     122.0669291

 Broyden mixing:
  rms(total) = 0.11574E+02    rms(broyden)= 0.11574E+02
  rms(prec ) = 0.13007E+02
  weight for this iteration     100.00

 eigenvalues of (default mixing * dielectric matrix)
  average eigenvalue GAMMA=   0.3526
  1.1895  0.4135  0.3641  0.1463  0.1463  0.0948  0.1137

 Free energy of the ion-electron system (eV)
  ---------------------------------------------------
  alpha Z        PSCENC =      1751.32544349
  Ewald energy   TEWEN  =    237364.07255215
  -Hartree energ DENC   =   -306952.01579635
  -exchange      EXHF   =         0.00000000
  -V(xc)+E(xc)   XCENC  =      1332.90502792
  PAW double counting   =     73992.73092860   -76104.95535559
  entropy T*S    EENTRO =         0.00000000
  eigenvalues    EBANDS =      -747.49246193
  atomic energy  EATOM  =     68993.34587830
  Solvation  Ediel_sol  =         0.00000000
  ---------------------------------------------------
  free energy    TOTEN  =      -370.08378340 eV

  energy without entropy =     -370.08378340  energy(sigma->0) =     -370.08378340


--------------------------------------------------------------------------------------------------------




--------------------------------------- Iteration      1(  13)  ---------------------------------------


    POTLOK:  cpu time    0.4476: real time    0.4498
    SETDIJ:  cpu time    0.0313: real time    0.0314
    EDDIAG:  cpu time    9.8756: real time    9.9021
  RMM-DIIS:  cpu time   37.3301: real time   37.4310
    ORTHCH:  cpu time    1.3772: real time    1.3808
 BZINTS: Fermi energy:  2.102458;778.000000 electrons
         Band energy:-633.723375;  BLOECHL correction: -0.048077
       DOS:  cpu time    0.0237: real time    0.0238
    CHARGE:  cpu time    3.0196: real time    3.0274
    MIXING:  cpu time    0.0137: real time    0.0140
    --------------------------------------------
      LOOP:  cpu time   52.1189: real time   52.2603

 eigenvalue-minimisations  :  9266
 total energy-change (2. order) : 0.3084595E+01  (-0.3950625E+01)
 number of electron     778.0000041 magnetization     156.3665092
 augmentation part      372.6487476 magnetization     117.3707544

 Broyden mixing:
  rms(total) = 0.99863E+01    rms(broyden)= 0.99862E+01
  rms(prec ) = 0.11145E+02
  weight for this iteration     100.00

 eigenvalues of (default mixing * dielectric matrix)
  average eigenvalue GAMMA=   0.3510
  1.2733  0.4616  0.4616  0.1494  0.1494  0.1305  0.0952  0.0868

 Free energy of the ion-electron system (eV)
  ---------------------------------------------------
  alpha Z        PSCENC =      1751.32544349
  Ewald energy   TEWEN  =    237364.07255215
  -Hartree energ DENC   =   -307048.86360390
  -exchange      EXHF   =         0.00000000
  -V(xc)+E(xc)   XCENC  =      1329.04721049
  PAW double counting   =     74532.55427292   -76654.75756616
  entropy T*S    EENTRO =         0.00000000
  eigenvalues    EBANDS =      -633.72337521
[...]
      9.826617  6.295936  6.979802            0           0           0  
      3.327475  0.887173  1.073320            0           0           0  
      9.370381  5.944442  1.033549            0           0           0  
      5.774364  3.511196  1.588832            0           0           0  
     11.780804  9.102106  3.012746            0           0           0  
     12.142208  7.864851  4.907167            0           0           0  
     12.898551  6.599928  3.085357            0           0           0  
      9.609021  4.409279  2.931659            0           0           0  
      8.506952  8.474680  6.957171            0           0           0  
      8.126536  8.259675  1.100142            0           0           0  
     10.595320  7.057317  2.726279            0           0           0  
      2.643452  0.125819  5.052866            0           0           0  
      8.182065  3.505601  1.219953            0           0           0  
      4.798505  1.622219  2.896171            0           0           0  
      5.809398  6.649898  3.247617            0           0           0  
      7.654684  0.412970  4.686986            0           0           0  
      9.461957  1.140014  6.528483            0           0           0  
     10.931377  8.493236  6.949731            0           0           0  
      9.362372  1.193342  1.330661            0           0           0  
     10.656315  8.732160  0.980213            0           0           0  
      5.031467  4.910390  4.716500            0           0           0  
     12.268341  3.065617  4.961597            0           0           0  
      9.642770  0.018962  3.434634            0           0           0  
      9.859490  3.061300  5.053340            0           0           0  
      6.317386  2.583125  4.702954            0           0           0  
     12.253127  4.174930  2.833240            0           0           0  
      2.095248  1.756232  3.073240            0           0           0  
     11.831281  5.721446  1.134235            0           0           0  
      6.857430  5.749036  1.303551            0           0           0  
      8.219787  6.815704  3.002248            0           0           0  
      7.040131  4.410259  3.274640            0           0           0  
     11.110897  3.901827  6.901827            0           0           0  
     10.736077  3.416087  1.011578            0           0           0  
     11.353957  0.819354  4.883300            0           0           0  
      9.676082  7.723209  4.957292            0           0           0  
      7.203849  7.639146  5.118877            0           0           0  
      5.078032  0.269348  4.939043            0           0           0  
      5.346561  3.616709  9.826567    -0.307185    0.020391    0.951431  
 
   2 f  =   21.344095 THz   134.108905 2PiTHz  711.962357 cm-1    88.272114 meV
             X         Y         Z           dx          dy          dz
     13.782712  8.548321  6.633470            0           0           0  
      5.293880  8.560767  6.410620            0           0           0  
      5.110495  3.506177  6.857641            0           0           0  
     15.275093  9.374813  8.779124            0           0           0  
      3.859339  4.554692  9.064443            0           0           0  
      6.800917  9.234396  8.745090            0           0           0  
     12.339762  4.427914  9.069859            0           0           0  
      9.554803  9.247231  9.135318            0           0           0  
     10.899370  2.082989  8.748498            0           0           0  
      2.581314  2.042671  9.095279            0           0           0  
     12.389428  9.252530  9.010235            0           0           0  
     13.841242  6.952936  8.974907            0           0           0  
      5.337408  1.896893  9.136250            0           0           0  
      8.112967  6.793304  8.803039            0           0           0  
      9.504844  4.453427  8.785047            0           0           0  
      5.310823  6.939162  8.797008            0           0           0  
      8.190641  1.929492  8.878045            0           0           0  
      7.983501  3.373885  6.619508            0           0           0  
      6.544317  1.104899  6.794577            0           0           0  
      6.833851  1.229252  1.470327            0           0           0  
      3.612352  3.964682  2.619950            0           0           0  
      1.421132  1.425617  6.826015            0           0           0  
      0.671266  0.989103  1.081883            0           0           0  
      6.748073  9.008785  3.123421            0           0           0  
      6.754281  4.388547  8.970709            0           0           0  
      8.493301  5.384394  5.053784            0           0           0  
     11.010571  6.874731  9.095604            0           0           0  
     14.948842  7.376730  4.492489            0           0           0  
     12.477497  6.135650  6.835538            0           0           0  
      6.474743  5.883529  6.647423            0           0           0  
      3.574220  2.546241  4.958776            0           0           0  
     11.126137  5.452511  4.710247            0           0           0  
      3.877627  5.904473  6.706454            0           0           0  
     13.734382  8.588522  1.762771            0           0           0  
      4.876633  8.413947  1.577885            0           0           0  
      3.758771  6.384136  2.060921            0           0           0  
      8.358503  2.272242  3.294054            0           0           0  
      9.333665  9.158858  2.963491            0           0           0  
      2.469702  3.837809  6.959536            0           0           0  
      1.948917  3.123684  0.977335            0           0           0  
     10.751866  2.212205  3.056235            0           0           0  
     13.777989  5.058683  4.814702            0           0           0  
      3.945086  0.966475  7.027156            0           0           0  
      9.826617  6.295936  6.979802            0           0           0  
      3.327475  0.887173  1.073320            0           0           0  
      9.370381  5.944442  1.033549            0           0           0  
      5.774364  3.511196  1.588832            0           0           0  
     11.780804  9.102106  3.012746            0           0           0  
     12.142208  7.864851  4.907167            0           0           0  
     12.898551  6.599928  3.085357            0           0           0  
      9.609021  4.409279  2.931659            0           0           0  
      8.506952  8.474680  6.957171            0           0           0  
      8.126536  8.259675  1.100142            0           0           0  
     10.595320  7.057317  2.726279            0           0           0  
      2.643452  0.125819  5.052866            0           0           0  
      8.182065  3.505601  1.219953            0           0           0  
      4.798505  1.622219  2.896171            0           0           0  
      5.809398  6.649898  3.247617            0           0           0  
      7.654684  0.412970  4.686986            0           0           0  
      9.461957  1.140014  6.528483            0           0           0  
     10.931377  8.493236  6.949731            0           0           0  
      9.362372  1.193342  1.330661            0           0           0  
     10.656315  8.732160  0.980213            0           0           0  
      5.031467  4.910390  4.716500            0           0           0  
     12.268341  3.065617  4.961597            0           0           0  
      9.642770  0.018962  3.434634            0           0           0  
      9.859490  3.061300  5.053340            0           0           0  
      6.317386  2.583125  4.702954            0           0           0  
     12.253127  4.174930  2.833240            0           0           0  
      2.095248  1.756232  3.073240            0           0           0  
     11.831281  5.721446  1.134235            0           0           0  
      6.857430  5.749036  1.303551            0           0           0  
      8.219787  6.815704  3.002248            0           0           0  
      7.040131  4.410259  3.274640            0           0           0  
     11.110897  3.901827  6.901827            0           0           0  
     10.736077  3.416087  1.011578            0           0           0  
     11.353957  0.819354  4.883300            0           0           0  
      9.676082  7.723209  4.957292            0           0           0  
      7.203849  7.639146  5.118877            0           0           0  
      5.078032  0.269348  4.939043            0           0           0  
      5.346561  3.616709  9.826567     0.526078    0.836757    0.151919  
 
   3 f  =   16.840833 THz   105.814076 2PiTHz  561.749712 cm-1    69.648113 meV
             X         Y         Z           dx          dy          dz
     13.782712  8.548321  6.633470            0           0           0  
      5.293880  8.560767  6.410620            0           0           0  
      5.110495  3.506177  6.857641            0           0           0  
     15.275093  9.374813  8.779124            0           0           0  
      3.859339  4.554692  9.064443            0           0           0  
      6.800917  9.234396  8.745090            0           0           0  
     12.339762  4.427914  9.069859            0           0           0  
      9.554803  9.247231  9.135318            0           0           0  
     10.899370  2.082989  8.748498            0           0           0  
      2.581314  2.042671  9.095279            0           0           0  
     12.389428  9.252530  9.010235            0           0           0  
     13.841242  6.952936  8.974907            0           0           0  
      5.337408  1.896893  9.136250            0           0           0  
      8.112967  6.793304  8.803039            0           0           0  
      9.504844  4.453427  8.785047            0           0           0  
      5.310823  6.939162  8.797008            0           0           0  
      8.190641  1.929492  8.878045            0           0           0  
      7.983501  3.373885  6.619508            0           0           0  
      6.544317  1.104899  6.794577            0           0           0  
      6.833851  1.229252  1.470327            0           0           0  
      3.612352  3.964682  2.619950            0           0           0  
      1.421132  1.425617  6.826015            0           0           0  
      0.671266  0.989103  1.081883            0           0           0  
      6.748073  9.008785  3.123421            0           0           0  
      6.754281  4.388547  8.970709            0           0           0  
      8.493301  5.384394  5.053784            0           0           0  
     11.010571  6.874731  9.095604            0           0           0  
     14.948842  7.376730  4.492489            0           0           0  
     12.477497  6.135650  6.835538            0           0           0  
      6.474743  5.883529  6.647423            0           0           0  
      3.574220  2.546241  4.958776            0           0           0  
     11.126137  5.452511  4.710247            0           0           0  
      3.877627  5.904473  6.706454            0           0           0  
     13.734382  8.588522  1.762771            0           0           0  
      4.876633  8.413947  1.577885            0           0           0  
      3.758771  6.384136  2.060921            0           0           0  
      8.358503  2.272242  3.294054            0           0           0  
      9.333665  9.158858  2.963491            0           0           0  
      2.469702  3.837809  6.959536            0           0           0  
      1.948917  3.123684  0.977335            0           0           0  
     10.751866  2.212205  3.056235            0           0           0  
     13.777989  5.058683  4.814702            0           0           0  
      3.945086  0.966475  7.027156            0           0           0  
      9.826617  6.295936  6.979802            0           0           0  
      3.327475  0.887173  1.073320            0           0           0  
      9.370381  5.944442  1.033549            0           0           0  
      5.774364  3.511196  1.588832            0           0           0  
     11.780804  9.102106  3.012746            0           0           0  
     12.142208  7.864851  4.907167            0           0           0  
     12.898551  6.599928  3.085357            0           0           0  
      9.609021  4.409279  2.931659            0           0           0  
      8.506952  8.474680  6.957171            0           0           0  
      8.126536  8.259675  1.100142            0           0           0  
     10.595320  7.057317  2.726279            0           0           0  
      2.643452  0.125819  5.052866            0           0           0  
      8.182065  3.505601  1.219953            0           0           0  
      4.798505  1.622219  2.896171            0           0           0  
      5.809398  6.649898  3.247617            0           0           0  
      7.654684  0.412970  4.686986            0           0           0  
      9.461957  1.140014  6.528483            0           0           0  
     10.931377  8.493236  6.949731            0           0           0  
      9.362372  1.193342  1.330661            0           0           0  
     10.656315  8.732160  0.980213            0           0           0  
      5.031467  4.910390  4.716500            0           0           0  
     12.268341  3.065617  4.961597            0           0           0  
      9.642770  0.018962  3.434634            0           0           0  
      9.859490  3.061300  5.053340            0           0           0  
      6.317386  2.583125  4.702954            0           0           0  
     12.253127  4.174930  2.833240            0           0           0  
      2.095248  1.756232  3.073240            0           0           0  
     11.831281  5.721446  1.134235            0           0           0  
      6.857430  5.749036  1.303551            0           0           0  
      8.219787  6.815704  3.002248            0           0           0  
      7.040131  4.410259  3.274640            0           0           0  
     11.110897  3.901827  6.901827            0           0           0  
     10.736077  3.416087  1.011578            0           0           0  
     11.353957  0.819354  4.883300            0           0           0  
      9.676082  7.723209  4.957292            0           0           0  
      7.203849  7.639146  5.118877            0           0           0  
      5.078032  0.269348  4.939043            0           0           0  
      5.346561  3.616709  9.826567    -0.793019    0.547194   -0.267766  
 
 Finite differences POTIM=  1.500000000000000E-002
  LATTYP: Found a hexagonal cell.
 ALAT       =    11.2227001190
 C/A-ratio  =     1.9603125600
  
  Lattice vectors:
  
 A1 = (   5.6113500595,  -9.7191434021,   0.0000000000)
 A2 = ( -11.2227001190,   0.0000000000,   0.0000000000)
 A3 = (   0.0000000000,   0.0000000000, -22.0000000000)


Analysis of symmetry for initial positions (statically):
=====================================================================
 Subroutine PRICEL returns:
 Original cell was already a primitive cell.
 

 Routine SETGRP: Setting up the symmetry group for a 
 hexagonal supercell.


 Subroutine GETGRP returns: Found  1 space group operations
 (whereof  1 operations were pure point group operations)
 out of a pool of 24 trial point group operations.


The static configuration has the point symmetry C_1 .


Analysis of symmetry for dynamics (positions and initial velocities):
=====================================================================
 Subroutine PRICEL returns:
 Original cell was already a primitive cell.
 

 Routine SETGRP: Setting up the symmetry group for a 
 hexagonal supercell.


 Subroutine GETGRP returns: Found  1 space group operations
 (whereof  1 operations were pure point group operations)
 out of a pool of 24 trial point group operations.


The dynamic configuration has the point symmetry C_1 .


Analysis of constrained symmetry for selective dynamics:
=====================================================================
 Subroutine PRICEL returns:
 Original cell was already a primitive cell.
 

 Routine SETGRP: Setting up the symmetry group for a 
 hexagonal supercell.


 Subroutine GETGRP returns: Found  1 space group operations
 (whereof  1 operations were pure point group operations)
 out of a pool of 24 trial point group operations.


The constrained configuration has the point symmetry C_1 .


Analysis of structural, dynamic, and magnetic symmetry:
=====================================================================
 Subroutine PRICEL returns:
 Original cell was already a primitive cell.
 

 Routine SETGRP: Setting up the symmetry group for a 
 hexagonal supercell.


 Subroutine GETGRP returns: Found  1 space group operations
 (whereof  1 operations were pure point group operations)
 out of a pool of 24 trial point group operations.


The magnetic configuration has the point symmetry C_1 .


 Subroutine INISYM returns: Found  1 space group operations
 (whereof  1 operations are pure point group operations),
 and found     1 'primitive' translations

 
 KPOINTS: mesh auto                               

Automatic generation of k-mesh.
Space group operators:
 irot       det(A)        alpha          n_x          n_y          n_z        tau_x        tau_y        tau_z
    1     1.000000     0.000000     1.000000     0.000000     0.000000     0.000000     0.000000     0.000000
 
 Subroutine IBZKPT returns following result:
 ===========================================
 
 Found      4 irreducible k-points:
 
 Following reciprocal coordinates:
            Coordinates               Weight
  0.000000  0.000000  0.000000      1.000000
  0.500000  0.000000  0.000000      1.000000
  0.000000  0.500000  0.000000      1.000000
  0.500000  0.500000  0.000000      1.000000
 
 Following cartesian coordinates:
            Coordinates               Weight
  0.000000  0.000000  0.000000      1.000000
  0.044553 -0.025722  0.000000      1.000000
  0.000000  0.051445  0.000000      1.000000
  0.044553  0.025722  0.000000      1.000000
 
 TETIRR: Found     12 inequivalent tetrahedra from       24
     LOOP+:  cpu time  546.6780: real time  549.5681
    4ORBIT:  cpu time    0.0000: real time    0.0000
 BZINTS: Fermi energy:  1.516586;778.000000 electrons
         Band energy:-900.084206;  BLOECHL correction: -0.227810

 total amount of memory used by VASP MPI-rank0   379518. kBytes
=======================================================================

   base      :      30000. kBytes
   nonlr-proj:      90632. kBytes
   fftplans  :      13535. kBytes
   grid      :     132462. kBytes
   one-center:       2519. kBytes
   wavefun   :     110370. kBytes
 
  
  
 General timing and accounting informations for this job:
 ========================================================
  
                  Total CPU time used (sec):     8296.728
                            User time (sec):     8258.456
                          System time (sec):       38.271
                         Elapsed time (sec):     8334.614
  
                   Maximum memory used (kb):      731988.
                   Average memory used (kb):           0.
  
                          Minor page faults:      3264460
                          Major page faults:          179
                 Voluntary context switches:         7022
