 vasp.5.4.4.18Apr17-6-g9f103f2a35 (build Oct 25 2019 11:13:22) complex          
  
 executed on             LinuxIFC date 2021.10.30  10:48:49
 running on   48 total cores
 distrk:  each k-point on   48 cores,    1 groups
 distr:  one band on NCORES_PER_BAND=   4 cores,   12 groups


--------------------------------------------------------------------------------------------------------


 INCAR:
 POTCAR:    PAW_PBE Pt 04Feb2005                  
 POTCAR:    PAW_PBE Fe 06Sep2000                  
 POTCAR:    PAW_PBE Co 02Aug2007                  
 POTCAR:    PAW_PBE Cu 22Jun2005                  
 POTCAR:    PAW_PBE Ni 02Aug2007                  
 POTCAR:    PAW_PBE H 15Jun2001                   
 POTCAR:    PAW_PBE Pt 04Feb2005                  
   VRHFIN =Pt: s1d9                                                             
   LEXCH  = PE                                                                  
   EATOM  =   729.1176 eV,   53.5886 Ry                                         
                                                                                
   TITEL  = PAW_PBE Pt 04Feb2005                                                
   LULTRA =        F    use ultrasoft PP ?                                      
   IUNSCR =        1    unscreen: 0-lin 1-nonlin 2-no                           
   RPACOR =    2.330    partial core radius                                     
   POMASS =  195.080; ZVAL   =   10.000    mass and valenz                      
   RCORE  =    2.600    outmost cutoff radius                                   
   RWIGS  =    2.750; RWIGS  =    1.455    wigner-seitz radius (au A)           
   ENMAX  =  230.283; ENMIN  =  172.712 eV                                      
   ICORE  =        3    local potential                                         
   LCOR   =        T    correct aug charges                                     
   LPAW   =        T    paw PP                                                  
   EAUG   =  358.966                                                            
   DEXC   =    0.000                                                            
   RMAX   =    2.658    core radius for proj-oper                               
   RAUG   =    1.300    factor for augmentation sphere                          
   RDEP   =    2.761    radius for radial grids                                 
   RDEPT  =    2.203    core radius for aug-charge                              
                                                                                
   Atomic configuration                                                         
   16 entries                                                                   
     n  l   j            E        occ.                                          
     1  0  0.50    -78401.1885   2.0000                                         
     2  0  0.50    -13770.7750   2.0000                                         
     2  1  1.50    -11931.0468   6.0000                                         
     3  0  0.50     -3234.7234   2.0000                                         
     3  1  1.50     -2699.2216   6.0000                                         
     3  2  2.50     -2119.5714  10.0000                                         
     4  0  0.50      -695.1528   2.0000                                         
     4  1  1.50      -519.6034   6.0000                                         
     4  2  2.50      -306.6786  10.0000                                         
     4  3  3.50       -70.1041  14.0000                                         
     5  0  0.50      -101.7747   2.0000                                         
     5  1  1.50       -55.9873   6.0000                                         
     5  2  2.50        -6.1423   9.0000                                         
     6  0  0.50        -5.6573   1.0000                                         
     6  1  1.50        -6.8029   0.0000                                         
     5  3  2.50        -1.3606   0.0000                                         
   Description                                                                  
     l       E           TYP  RCUT    TYP  RCUT                                 
     2     -6.1423404     23  2.500                                             
     2     -7.5029230     23  2.500                                             
     0     -5.6573207     23  2.500                                             
     0      0.7416693     23  2.500                                             
     1     -2.7211652     23  2.600                                             
     1     20.4087390     23  2.600                                             
     3     -1.3605826     23  2.500                                             
  local pseudopotential read in
  partial core-charges read in
  partial kinetic energy density read in
  atomic valenz-charges read in
  non local Contribution for L=           2  read in
    real space projection operators read in
  non local Contribution for L=           2  read in
    real space projection operators read in
  non local Contribution for L=           0  read in
    real space projection operators read in
  non local Contribution for L=           0  read in
    real space projection operators read in
  non local Contribution for L=           1  read in
    real space projection operators read in
  non local Contribution for L=           1  read in
    real space projection operators read in
    PAW grid and wavefunctions read in
 
   number of l-projection  operators is LMAX  =           6
   number of lm-projection operators is LMMAX =          18
 
 POTCAR:    PAW_PBE Fe 06Sep2000                  
   VRHFIN =Fe:  d7 s1                                                           
   LEXCH  = PE                                                                  
   EATOM  =   594.3153 eV,   43.6809 Ry                                         
                                                                                
   TITEL  = PAW_PBE Fe 06Sep2000                                                
   LULTRA =        F    use ultrasoft PP ?                                      
   IUNSCR =        1    unscreen: 0-lin 1-nonlin 2-no                           
   RPACOR =    2.000    partial core radius                                     
   POMASS =   55.847; ZVAL   =    8.000    mass and valenz                      
   RCORE  =    2.300    outmost cutoff radius                                   
   RWIGS  =    2.460; RWIGS  =    1.302    wigner-seitz radius (au A)           
   ENMAX  =  267.882; ENMIN  =  200.911 eV                                      
   RCLOC  =    1.701    cutoff for local pot                                    
   LCOR   =        T    correct aug charges                                     
   LPAW   =        T    paw PP                                                  
   EAUG   =  511.368                                                            
   DEXC   =    0.000                                                            
   RMAX   =    2.356    core radius for proj-oper                               
   RAUG   =    1.300    factor for augmentation sphere                          
   RDEP   =    2.442    radius for radial grids                                 
   RDEPT  =    1.890    core radius for aug-charge                              
                                                                                
   Atomic configuration                                                         
    9 entries                                                                   
     n  l   j            E        occ.                                          
     1  0  0.50     -6993.8440   2.0000                                         
     2  0  0.50      -814.6047   2.0000                                         
     2  1  1.50      -693.3689   6.0000                                         
     3  0  0.50       -89.4732   2.0000                                         
     3  1  1.50       -55.6373   6.0000                                         
     3  2  2.50        -3.8151   7.0000                                         
     4  0  0.50        -4.2551   1.0000                                         
     4  1  1.50        -3.4015   0.0000                                         
     4  3  2.50        -1.3606   0.0000                                         
   Description                                                                  
     l       E           TYP  RCUT    TYP  RCUT                                 
     2     -3.8151135     23  2.300                                             
     2     -5.1756961     23  2.300                                             
     0     -4.2550963     23  2.300                                             
     0      7.2035603     23  2.300                                             
     1     -2.7211652     23  2.300                                             
     1     18.4316424     23  2.300                                             
  local pseudopotential read in
  partial core-charges read in
  partial kinetic energy density read in
  atomic valenz-charges read in
  non local Contribution for L=           2  read in
    real space projection operators read in
  non local Contribution for L=           2  read in
    real space projection operators read in
  non local Contribution for L=           0  read in
    real space projection operators read in
  non local Contribution for L=           0  read in
    real space projection operators read in
  non local Contribution for L=           1  read in
    real space projection operators read in
  non local Contribution for L=           1  read in
    real space projection operators read in
    PAW grid and wavefunctions read in
 
   number of l-projection  operators is LMAX  =           6
   number of lm-projection operators is LMMAX =          18
 
 POTCAR:    PAW_PBE Co 02Aug2007                  
   VRHFIN =Co: d8 s1                                                            
   LEXCH  = PE                                                                  
   EATOM  =   813.3670 eV,   59.7808 Ry                                         
                                                                                
   TITEL  = PAW_PBE Co 02Aug2007                                                
   LULTRA =        F    use ultrasoft PP ?                                      
   IUNSCR =        1    unscreen: 0-lin 1-nonlin 2-no                           
   RPACOR =    2.000    partial core radius                                     
   POMASS =   58.933; ZVAL   =    9.000    mass and valenz                      
   RCORE  =    2.300    outmost cutoff radius                                   
   RWIGS  =    2.460; RWIGS  =    1.302    wigner-seitz radius (au A)           
   ENMAX  =  267.968; ENMIN  =  200.976 eV                                      
   RCLOC  =    1.203    cutoff for local pot                                    
   LCOR   =        T    correct aug charges                                     
   LPAW   =        T    paw PP                                                  
   EAUG   =  477.818                                                            
   DEXC   =    0.000                                                            
   RMAX   =    2.360    core radius for proj-oper                               
   RAUG   =    1.300    factor for augmentation sphere                          
   RDEP   =    2.393    radius for radial grids                                 
   RDEPT  =    1.864    core radius for aug-charge                              
                                                                                
   Atomic configuration                                                         
    9 entries                                                                   
     n  l   j            E        occ.                                          
     1  0  0.50     -7587.6674   2.0000                                         
     2  0  0.50      -893.6084   2.0000                                         
     2  1  1.50      -764.5805   6.0000                                         
     3  0  0.50       -97.5973   2.0000                                         
     3  1  1.50       -60.9648   6.0000                                         
     3  2  2.50        -4.2382   8.0000                                         
     4  0  0.50        -4.3746   1.0000                                         
     4  1  1.50        -4.0817   0.0000                                         
     4  3  2.50        -1.3606   0.0000                                         
   Description                                                                  
     l       E           TYP  RCUT    TYP  RCUT                                 
     2     -4.2382362     23  2.300                                             
     2     -5.5988188     23  2.300                                             
     0     -4.3745797     23  2.300                                             
     0      5.7660125     23  2.300                                             
     1     -2.7211652     23  2.300                                             
     1     16.9860234     23  2.300                                             
  local pseudopotential read in
  partial core-charges read in
  partial kinetic energy density read in
  atomic valenz-charges read in
  non local Contribution for L=           2  read in
    real space projection operators read in
  non local Contribution for L=           2  read in
    real space projection operators read in
  non local Contribution for L=           0  read in
    real space projection operators read in
  non local Contribution for L=           0  read in
    real space projection operators read in
  non local Contribution for L=           1  read in
    real space projection operators read in
  non local Contribution for L=           1  read in
    real space projection operators read in
    PAW grid and wavefunctions read in
 
   number of l-projection  operators is LMAX  =           6
   number of lm-projection operators is LMMAX =          18
 
 POTCAR:    PAW_PBE Cu 22Jun2005                  
   VRHFIN =Cu: d10 p1                                                           
   LEXCH  = PE                                                                  
   EATOM  =  1390.9808 eV,  102.2342 Ry                                         
                                                                                
   TITEL  = PAW_PBE Cu 22Jun2005                                                
   LULTRA =        F    use ultrasoft PP ?                                      
   IUNSCR =        1    unscreen: 0-lin 1-nonlin 2-no                           
   RPACOR =    2.000    partial core radius                                     
   POMASS =   63.546; ZVAL   =   11.000    mass and valenz                      
   RCORE  =    2.300    outmost cutoff radius                                   
   RWIGS  =    2.200; RWIGS  =    1.164    wigner-seitz radius (au A)           
   ENMAX  =  295.446; ENMIN  =  221.585 eV                                      
   ICORE  =        3    local potential                                         
   LCOR   =        T    correct aug charges                                     
   LPAW   =        T    paw PP                                                  
   EAUG   =  586.980                                                            
   DEXC   =    0.000                                                            
   RMAX   =    2.344    core radius for proj-oper                               
   RAUG   =    1.300    factor for augmentation sphere                          
   RDEP   =    2.302    radius for radial grids                                 
   RDEPT  =    1.771    core radius for aug-charge                              
                                                                                
   Atomic configuration                                                         
    9 entries                                                                   
     n  l   j            E        occ.                                          
     1  0  0.50     -8850.2468   2.0000                                         
     2  0  0.50     -1062.3498   2.0000                                         
     2  1  1.50      -916.8226   6.0000                                         
     3  0  0.50      -114.6929   2.0000                                         
     3  1  1.50       -72.1325   6.0000                                         
     3  2  2.50        -5.0394  10.0000                                         
     4  0  0.50        -4.6097   1.0000                                         
     4  1  0.50        -4.0817   0.0000                                         
     4  3  2.50        -1.3606   0.0000                                         
   Description                                                                  
     l       E           TYP  RCUT    TYP  RCUT                                 
     2     -5.0393973     23  2.200                                             
     2     10.8846608     23  2.200                                             
     0     -4.6097109     23  2.200                                             
     0      8.2520465     23  2.200                                             
     1     -2.7211652     23  2.200                                             
     1     21.7055443     23  2.200                                             
     3      2.7211652     23  2.300                                             
  local pseudopotential read in
  partial core-charges read in
  partial kinetic energy density read in
  atomic valenz-charges read in
  non local Contribution for L=           2  read in
    real space projection operators read in
  non local Contribution for L=           2  read in
    real space projection operators read in
  non local Contribution for L=           0  read in
    real space projection operators read in
  non local Contribution for L=           0  read in
    real space projection operators read in
  non local Contribution for L=           1  read in
    real space projection operators read in
  non local Contribution for L=           1  read in
    real space projection operators read in
    PAW grid and wavefunctions read in
 
   number of l-projection  operators is LMAX  =           6
   number of lm-projection operators is LMMAX =          18
 
 POTCAR:    PAW_PBE Ni 02Aug2007                  
   VRHFIN =Ni:                                                                  
   LEXCH  = PE                                                                  
   EATOM  =  1077.6739 eV,   79.2068 Ry                                         
                                                                                
   TITEL  = PAW_PBE Ni 02Aug2007                                                
   LULTRA =        F    use ultrasoft PP ?                                      
   IUNSCR =        1    unscreen: 0-lin 1-nonlin 2-no                           
   RPACOR =    2.000    partial core radius                                     
   POMASS =   58.690; ZVAL   =   10.000    mass and valenz                      
   RCORE  =    2.300    outmost cutoff radius                                   
   RWIGS  =    2.430; RWIGS  =    1.286    wigner-seitz radius (au A)           
   ENMAX  =  269.532; ENMIN  =  202.149 eV                                      
   RCLOC  =    1.201    cutoff for local pot                                    
   LCOR   =        T    correct aug charges                                     
   LPAW   =        T    paw PP                                                  
   EAUG   =  544.565                                                            
   DEXC   =    0.000                                                            
   RMAX   =    2.357    core radius for proj-oper                               
   RAUG   =    1.300    factor for augmentation sphere                          
   RDEP   =    2.390    radius for radial grids                                 
   RDEPT  =    1.838    core radius for aug-charge                              
                                                                                
   Atomic configuration                                                         
    9 entries                                                                   
     n  l   j            E        occ.                                          
     1  0  0.50     -8206.4253   2.0000                                         
     2  0  0.50      -976.1748   2.0000                                         
     2  1  1.50      -839.0571   6.0000                                         
     3  0  0.50      -105.9991   2.0000                                         
     3  1  1.50       -66.4603   6.0000                                         
     3  2  2.50        -4.6458   9.0000                                         
     4  0  0.50        -4.4926   1.0000                                         
     4  1  1.50        -4.0817   0.0000                                         
     4  3  2.50        -1.3606   0.0000                                         
   Description                                                                  
     l       E           TYP  RCUT    TYP  RCUT                                 
     2     -4.6457903     23  2.300                                             
     2     -6.0063729     23  2.300                                             
     0     -4.4925590     23  2.300                                             
     0      5.0102601     23  2.300                                             
     1     -2.7211652     23  2.300                                             
     1     16.5183231     23  2.300                                             
  local pseudopotential read in
  partial core-charges read in
  partial kinetic energy density read in
  atomic valenz-charges read in
  non local Contribution for L=           2  read in
    real space projection operators read in
  non local Contribution for L=           2  read in
    real space projection operators read in
  non local Contribution for L=           0  read in
    real space projection operators read in
  non local Contribution for L=           0  read in
    real space projection operators read in
  non local Contribution for L=           1  read in
    real space projection operators read in
  non local Contribution for L=           1  read in
    real space projection operators read in
    PAW grid and wavefunctions read in
 
   number of l-projection  operators is LMAX  =           6
   number of lm-projection operators is LMMAX =          18
 
 POTCAR:    PAW_PBE H 15Jun2001                   
   VRHFIN =H: ultrasoft test                                                    
   LEXCH  = PE                                                                  
   EATOM  =    12.4884 eV,    0.9179 Ry                                         
                                                                                
   TITEL  = PAW_PBE H 15Jun2001                                                 
   LULTRA =        F    use ultrasoft PP ?                                      
   IUNSCR =        0    unscreen: 0-lin 1-nonlin 2-no                           
   RPACOR =    0.000    partial core radius                                     
   POMASS =    1.000; ZVAL   =    1.000    mass and valenz                      
   RCORE  =    1.100    outmost cutoff radius                                   
   RWIGS  =    0.700; RWIGS  =    0.370    wigner-seitz radius (au A)           
   ENMAX  =  250.000; ENMIN  =  200.000 eV                                      
   RCLOC  =    0.701    cutoff for local pot                                    
   LCOR   =        T    correct aug charges                                     
   LPAW   =        T    paw PP                                                  
   EAUG   =  400.000                                                            
   RMAX   =    1.123    core radius for proj-oper                               
   RAUG   =    1.200    factor for augmentation sphere                          
   RDEP   =    1.112    radius for radial grids                                 
   RDEPT  =    0.926    core radius for aug-charge                              
                                                                                
   Atomic configuration                                                         
    2 entries                                                                   
     n  l   j            E        occ.                                          
     1  0  0.50        -6.4927   1.0000                                         
     2  1  0.50        -3.4015   0.0000                                         
   Description                                                                  
     l       E           TYP  RCUT    TYP  RCUT                                 
     0     -6.4927494     23  1.100                                             
     0      6.8029130     23  1.100                                             
     1     -4.0817478     23  1.100                                             
  local pseudopotential read in
  atomic valenz-charges read in
  non local Contribution for L=           0  read in
    real space projection operators read in
  non local Contribution for L=           0  read in
    real space projection operators read in
  non local Contribution for L=           1  read in
    real space projection operators read in
    PAW grid and wavefunctions read in
 
   number of l-projection  operators is LMAX  =           3
   number of lm-projection operators is LMMAX =           5
 
 Optimization of the real space projectors (new method)

 maximal supplied QI-value         = 14.36
 optimisation between [QCUT,QGAM] = [ 11.92, 23.98] = [ 39.79,161.09] Ry 
 Optimized for a Real-space Cutoff    1.49 Angstroem

   l    n(q)    QCUT    max X(q) W(low)/X(q) W(high)/X(q)  e(spline) 
   2     10    11.920    66.195    0.79E-04    0.18E-03    0.24E-06
   2     10    11.920    64.643    0.81E-04    0.19E-03    0.24E-06
   0     11    11.920    95.520    0.28E-04    0.54E-04    0.18E-06
   0     11    11.920    63.403    0.27E-04    0.52E-04    0.17E-06
   1     10    11.920    19.961    0.18E-04    0.11E-03    0.23E-06
   1     10    11.920    13.289    0.25E-04    0.87E-04    0.19E-06
 Optimization of the real space projectors (new method)

 maximal supplied QI-value         = 16.25
 optimisation between [QCUT,QGAM] = [ 11.86, 23.89] = [ 39.41,159.82] Ry 
 Optimized for a Real-space Cutoff    1.49 Angstroem

   l    n(q)    QCUT    max X(q) W(low)/X(q) W(high)/X(q)  e(spline) 
   2     10    11.864    80.901    0.13E-03    0.23E-03    0.37E-06
   2     10    11.864    75.754    0.13E-03    0.23E-03    0.38E-06
   0     11    11.864    58.752    0.44E-04    0.11E-04    0.20E-06
   0     11    11.864    30.679    0.36E-04    0.10E-04    0.18E-06
   1     10    11.864    17.977    0.31E-04    0.45E-04    0.10E-06
   1     10    11.864    13.559    0.25E-04    0.37E-04    0.89E-07
 Optimization of the real space projectors (new method)

 maximal supplied QI-value         = 16.25
 optimisation between [QCUT,QGAM] = [ 11.86, 23.89] = [ 39.41,159.82] Ry 
 Optimized for a Real-space Cutoff    1.33 Angstroem

   l    n(q)    QCUT    max X(q) W(low)/X(q) W(high)/X(q)  e(spline) 
   2      9    11.864    65.824    0.22E-03    0.53E-03    0.26E-06
   2      9    11.864    61.429    0.22E-03    0.53E-03    0.26E-06
   0      9    11.864    56.174    0.21E-03    0.32E-04    0.15E-06
   0      9    11.864    31.263    0.19E-03    0.30E-04    0.14E-06
   1      9    11.864    19.828    0.63E-04    0.30E-03    0.16E-06
   1      9    11.864    15.139    0.49E-04    0.25E-03    0.13E-06
 Optimization of the real space projectors (new method)

 maximal supplied QI-value         = 16.25
 optimisation between [QCUT,QGAM] = [ 11.86, 23.89] = [ 39.41,159.82] Ry 
 Optimized for a Real-space Cutoff    1.49 Angstroem

   l    n(q)    QCUT    max X(q) W(low)/X(q) W(high)/X(q)  e(spline) 
   2     10    11.864     4.610    0.10E-03    0.20E-03    0.29E-06
   2     10    11.864     8.522    0.17E-03    0.33E-03    0.50E-06
   0     11    11.864    51.609    0.52E-04    0.55E-04    0.33E-06
   0     11    11.864    27.747    0.46E-04    0.52E-04    0.31E-06
   1     10    11.864    20.408    0.54E-04    0.25E-04    0.21E-06
   1     10    11.864    13.425    0.48E-04    0.22E-04    0.18E-06
 Optimization of the real space projectors (new method)

 maximal supplied QI-value         = 16.25
 optimisation between [QCUT,QGAM] = [ 11.86, 23.89] = [ 39.41,159.82] Ry 
 Optimized for a Real-space Cutoff    1.33 Angstroem

   l    n(q)    QCUT    max X(q) W(low)/X(q) W(high)/X(q)  e(spline) 
   2      9    11.864    60.317    0.21E-03    0.51E-03    0.25E-06
   2      9    11.864    55.921    0.21E-03    0.51E-03    0.26E-06
   0      9    11.864    51.690    0.22E-03    0.30E-04    0.17E-06
   0      9    11.864    30.015    0.20E-03    0.28E-04    0.15E-06
   1      9    11.864    18.849    0.76E-04    0.33E-03    0.17E-06
   1      9    11.864    14.624    0.60E-04    0.28E-03    0.15E-06
 Optimization of the real space projectors (new method)

 maximal supplied QI-value         = 34.20
 optimisation between [QCUT,QGAM] = [ 11.97, 23.94] = [ 40.13,160.53] Ry 
 Optimized for a Real-space Cutoff    1.18 Angstroem

   l    n(q)    QCUT    max X(q) W(low)/X(q) W(high)/X(q)  e(spline) 
   0      8    11.971    19.460    0.15E-03    0.31E-03    0.25E-06
   0      8    11.971    12.209    0.13E-03    0.29E-03    0.25E-06
   1      8    11.971     4.655    0.22E-03    0.24E-03    0.21E-06
  PAW_PBE Pt 04Feb2005                  :
 energy of atom  1       EATOM= -729.1176
 kinetic energy error for atom=    0.0021 (will be added to EATOM!!)
  PAW_PBE Fe 06Sep2000                  :
 energy of atom  2       EATOM= -594.3153
 kinetic energy error for atom=    0.0024 (will be added to EATOM!!)
  PAW_PBE Co 02Aug2007                  :
 energy of atom  3       EATOM= -813.3670
 kinetic energy error for atom=    0.0026 (will be added to EATOM!!)
  PAW_PBE Cu 22Jun2005                  :
 energy of atom  4       EATOM=-1390.9808
 kinetic energy error for atom=    0.0036 (will be added to EATOM!!)
  PAW_PBE Ni 02Aug2007                  :
 energy of atom  5       EATOM=-1077.6739
 kinetic energy error for atom=    0.0027 (will be added to EATOM!!)
  PAW_PBE H 15Jun2001                   :
 energy of atom  6       EATOM=  -12.4884
 kinetic energy error for atom=    0.0008 (will be added to EATOM!!)
 
 
 POSCAR: 11.16                                   
  positions in direct lattice
  velocities in cartesian coordinates
 exchange correlation table for  LEXCH =        8
   RHO(1)=    0.500       N(1)  =     2000
   RHO(2)=  100.500       N(2)  =     4000
 


--------------------------------------------------------------------------------------------------------


 ion  position               nearest neighbor table
   1  0.784  0.881  0.307-  49 2.54  59 2.61  28 2.66   4 2.76  61 2.78  11 2.78  19 2.79  33 2.80
                            29 2.81  60 2.83   2 2.83  12 2.87
   2  0.038  0.880  0.303-  79 2.53  77 2.58  30 2.74  28 2.77  33 2.77  60 2.81   4 2.83   1 2.83
                             6 2.86  22 2.88  52 2.91  16 2.98
   3  0.277  0.374  0.314-  64 2.54  68 2.65  31 2.66  39 2.69   5 2.73  13 2.76  43 2.79  19 2.79
                            25 2.79  33 2.80  30 2.85  18 2.98
   4  0.869  0.966  0.407-  60 2.66  17 2.73   1 2.76   9 2.77  11 2.77   6 2.79  12 2.81   2 2.83
                            16 2.84
   5  0.112  0.470  0.414-  39 2.62  33 2.69  16 2.71  12 2.72   3 2.73   7 2.73  10 2.79  25 2.81
                            13 2.95
   6  0.121  0.963  0.411-  52 2.66  22 2.74   4 2.79   9 2.80   8 2.80  10 2.82  16 2.84  14 2.85
                             2 2.86
   7  0.875  0.456  0.417-  39 2.61  75 2.64   5 2.73   9 2.74  15 2.75  29 2.75  10 2.76  27 2.84
                            12 2.86
   8  0.373  0.959  0.413-  43 2.56  52 2.59  61 2.68  13 2.76  27 2.76  14 2.78  11 2.80  10 2.80
                             6 2.80
   9  0.870  0.214  0.409-  75 2.62  60 2.67   7 2.74  15 2.75  17 2.76   4 2.77  22 2.77   6 2.80
                            10 2.86
  10  0.126  0.213  0.413-  39 2.63  43 2.66  22 2.72  13 2.74   7 2.76   5 2.79   8 2.80   6 2.82
                             9 2.86
  11  0.625  0.958  0.412-  61 2.67  12 2.72  19 2.77   4 2.77  13 2.78  27 2.78   1 2.78   8 2.80
                            17 2.81
  12  0.870  0.714  0.414-  29 2.68  33 2.71   5 2.72  11 2.72  16 2.76  27 2.80   4 2.81   7 2.86
                             1 2.87
  13  0.376  0.205  0.415-  43 2.67  10 2.74  19 2.75   8 2.76   3 2.76  11 2.78  25 2.80  17 2.80
                             5 2.95
  14  0.378  0.709  0.411-  44 2.56  52 2.62  27 2.73  15 2.77   8 2.78  30 2.79  25 2.83   6 2.85
                            16 2.88
  15  0.626  0.462  0.415-  81 1.69  44 2.61  75 2.63  18 2.73   9 2.75   7 2.75  27 2.76  14 2.77
                            17 2.82  25 2.88
  16  0.119  0.710  0.416-  33 2.69   5 2.71  30 2.74  12 2.76  25 2.79   4 2.84   6 2.84  14 2.88
                             2 2.98
  17  0.624  0.210  0.412-  18 2.70  60 2.72   4 2.73   9 2.76  13 2.80  19 2.80  11 2.81  25 2.82
                            15 2.82
  18  0.542  0.379  0.314-  67 2.54  68 2.62  26 2.66  17 2.70  15 2.73  44 2.74  60 2.76  25 2.76
                            75 2.79  30 2.88  19 2.89   3 2.98
  19  0.530  0.127  0.310-  80 2.53  68 2.56  59 2.57  43 2.66  13 2.75  11 2.77   1 2.79  61 2.79
                             3 2.79  17 2.80  18 2.89  60 2.91
  20  0.548  0.126  0.056-  37 2.53  57 2.54  48 2.56  62 2.66  63 2.78  56 2.85  34 2.87  47 2.95
                            45 3.10
  21  0.105  0.437  0.124-  47 2.49  40 2.51  36 2.52  42 2.63  70 2.63  69 2.69  31 2.74  64 2.75
                            57 2.77  50 2.80
  22  0.049  0.132  0.311-  77 2.53  65 2.54  55 2.56  43 2.70  10 2.72  39 2.73   6 2.74   9 2.77
                            52 2.82   2 2.88  75 2.90  60 2.91  31 3.31
  23  0.025  0.125  0.040-  40 2.55  41 2.57  70 2.58  62 2.68  24 2.71  76 2.76  45 2.76  35 2.85
                            53 2.93
  24  0.130  0.955  0.138-  79 2.50  35 2.55  77 2.58  53 2.59  55 2.59  70 2.62  58 2.65  23 2.71
                            73 2.74  38 2.78  66 2.83  41 2.96
  25  0.369  0.459  0.414-  18 2.76  30 2.79  16 2.79   3 2.79  13 2.80   5 2.81  17 2.82  14 2.83
                            15 2.88
  26  0.455  0.557  0.222-  74 2.48  73 2.50  51 2.55  79 2.59  44 2.63  30 2.64  18 2.66  32 2.72
                            78 2.73  67 2.85  68 2.91  64 3.02
  27  0.621  0.711  0.415-  81 1.71  44 2.63  61 2.67  14 2.73  15 2.76  29 2.76   8 2.76  11 2.78
                            12 2.80   7 2.84
  28  0.951  0.771  0.212-  58 2.55  50 2.56  66 2.62  42 2.63  33 2.65   1 2.66  49 2.69   2 2.77
                            64 2.78  59 3.09
  29  0.797  0.624  0.316-  42 2.55  32 2.62  49 2.64  39 2.65  12 2.68  75 2.68  33 2.73   7 2.75
                            27 2.76   1 2.81  61 2.81  44 2.84
  30  0.277  0.629  0.312-  79 2.52  26 2.64  33 2.66  64 2.68   2 2.74  16 2.74  25 2.79  14 2.79
                             3 2.85  18 2.88  52 2.90  44 2.94
  31  0.191  0.272  0.226-  70 2.50  57 2.57  43 2.58  55 2.60  39 2.61  65 2.64   3 2.66  21 2.74
                            42 2.81  80 2.88  64 2.89  68 3.08  22 3.31
  32  0.699  0.556  0.222-  69 2.53  54 2.57  51 2.59  49 2.60  29 2.62  44 2.65  78 2.66  75 2.67
                            42 2.71  26 2.72  65 2.74  67 2.77
  33  0.036  0.633  0.315-  28 2.65  64 2.66  30 2.66   5 2.69  16 2.69  42 2.70  12 2.71  29 2.73
                             2 2.77   1 2.80   3 2.80  39 2.81
  34  0.795  0.860  0.060-  50 2.36  48 2.39  66 2.52  36 2.64  63 2.78  35 2.83  20 2.87  62 2.94
                            71 2.95
  35  0.047  0.861  0.053-  36 2.39  24 2.55  66 2.58  58 2.58  72 2.69  34 2.83  23 2.85  53 2.93
                            62 2.95
  36  0.049  0.647  0.061-  35 2.39  58 2.50  21 2.52  50 2.57  34 2.64  72 2.66  47 2.76
  37  0.626  0.239  0.134-  67 2.49  56 2.50  74 2.51  20 2.53  59 2.54  51 2.54  41 2.55  62 2.55
                            68 2.57  66 2.78
  38  0.381  0.951  0.136-  45 2.39  53 2.44  80 2.45  55 2.48  78 2.51  63 2.53  54 2.55  73 2.57
                            48 2.65  57 2.76  24 2.78  70 2.88
  39  0.031  0.384  0.320-  42 2.60  31 2.61   7 2.61   5 2.62  10 2.63  29 2.65  65 2.67   3 2.69
                            75 2.71  22 2.73  33 2.81  43 3.00
  40  0.991  0.368  0.044-  69 2.32  76 2.41  21 2.51  23 2.55  71 2.58  70 2.61  45 3.10
  41  0.864  0.218  0.133-  77 2.41  76 2.42  67 2.52  69 2.54  37 2.55  65 2.56  23 2.57  62 2.59
                            66 2.64  70 2.68  51 2.78  24 2.96
  42  0.952  0.535  0.222-  50 2.47  29 2.55  39 2.60  21 2.63  28 2.63  65 2.64  69 2.64  33 2.70
                            32 2.71  64 2.74  49 2.79  31 2.81
  43  0.299  0.114  0.319-  55 2.51   8 2.56  31 2.58  80 2.59  52 2.65  19 2.66  10 2.66  13 2.67
                            61 2.70  22 2.70   3 2.79  39 3.00
  44  0.542  0.625  0.320-  14 2.56  15 2.61  78 2.63  27 2.63  26 2.63  32 2.65  75 2.69  18 2.74
                            61 2.75  52 2.77  29 2.84  30 2.94
  45  0.281  0.106  0.052-  38 2.39  70 2.42  53 2.44  57 2.60  63 2.70  23 2.76  40 3.10  20 3.10

  46  0.539  0.630  0.048-  51 2.37  73 2.39  54 2.40  71 2.49  53 2.71  72 2.73  56 2.75  76 2.79
                            63 2.82
  47  0.298  0.402  0.056-  74 2.25  21 2.49  72 2.50  56 2.57  57 2.64  36 2.76  20 2.95
  48  0.623  0.941  0.138-  49 2.33  34 2.39  80 2.48  63 2.51  54 2.53  20 2.56  59 2.60  38 2.65
                            50 2.74  57 2.91  66 2.95
  49  0.703  0.787  0.220-  48 2.33  50 2.44  54 2.51   1 2.54  32 2.60  61 2.63  78 2.63  29 2.64
                            28 2.69  80 2.69  42 2.79
  50  0.849  0.681  0.131-  71 2.36  34 2.36  49 2.44  42 2.47  54 2.49  69 2.54  28 2.56  36 2.57
                            48 2.74  21 2.80
  51  0.617  0.470  0.130-  46 2.37  76 2.43  56 2.53  37 2.54  26 2.55  69 2.59  32 2.59  74 2.59
                            67 2.66  73 2.69  54 2.77  41 2.78
  52  0.299  0.877  0.318-  55 2.41  79 2.42  78 2.55   8 2.59  14 2.62  43 2.65   6 2.66  61 2.67
                            44 2.77  22 2.82  30 2.90   2 2.91
  53  0.301  0.878  0.048-  73 2.42  38 2.44  45 2.44  24 2.59  63 2.67  46 2.71  72 2.83  23 2.93
                            35 2.93
  54  0.609  0.722  0.131-  46 2.40  71 2.46  63 2.47  50 2.49  49 2.51  73 2.52  48 2.53  38 2.55
                            78 2.55  32 2.57  51 2.77  69 2.94
  55  0.234  0.021  0.228-  52 2.41  79 2.48  38 2.48  43 2.51  80 2.52  78 2.53  22 2.56  24 2.59
                            31 2.60  70 2.72  77 2.99
  56  0.535  0.386  0.041-  74 2.48  37 2.50  51 2.53  47 2.57  76 2.59  72 2.69  46 2.75  20 2.85

  57  0.365  0.206  0.138-  68 2.52  20 2.54  31 2.57  80 2.59  45 2.60  47 2.64  38 2.76  21 2.77
                            70 2.86  48 2.91
  58  0.163  0.703  0.145-  72 2.42  79 2.43  64 2.44  36 2.50  28 2.55  73 2.57  35 2.58  24 2.65
                            74 2.68
  59  0.694  0.064  0.219-  66 2.45  37 2.54  19 2.57  60 2.57  48 2.60   1 2.61  68 2.65  67 2.77
                            77 2.85  80 2.87  28 3.09
  60  0.788  0.132  0.311-  77 2.49  67 2.50  59 2.57   4 2.66   9 2.67  17 2.72  18 2.76   2 2.81
                             1 2.83  75 2.86  19 2.91  22 2.91
  61  0.541  0.872  0.316-  78 2.45  80 2.50  49 2.63  27 2.67  52 2.67  11 2.67   8 2.68  43 2.70
                            44 2.75   1 2.78  19 2.79  29 2.81
  62  0.785  0.126  0.043-  66 2.50  37 2.55  41 2.59  76 2.65  20 2.66  23 2.68  34 2.94  35 2.95

  63  0.537  0.883  0.044-  54 2.47  48 2.51  38 2.53  53 2.67  45 2.70  34 2.78  20 2.78  46 2.82
                            71 2.86
  64  0.202  0.525  0.219-  58 2.44   3 2.54  74 2.63  33 2.66  30 2.68  68 2.69  42 2.74  21 2.75
                            28 2.78  31 2.89  26 3.02
  65  0.940  0.305  0.225-  69 2.47  75 2.54  22 2.54  41 2.56  67 2.57  77 2.57  70 2.62  42 2.64
                            31 2.64  39 2.67  32 2.74
  66  0.865  0.981  0.137-  59 2.45  77 2.50  62 2.50  34 2.52  35 2.58  28 2.62  41 2.64  37 2.78
                            24 2.83  48 2.95
  67  0.711  0.303  0.226-  37 2.49  60 2.50  41 2.52  18 2.54  65 2.57  75 2.57  77 2.59  51 2.66
                            32 2.77  59 2.77  26 2.85
  68  0.453  0.297  0.222-  74 2.45  57 2.52  19 2.56  37 2.57  18 2.62  59 2.65   3 2.65  64 2.69
                            26 2.91  31 3.08
  69  0.859  0.448  0.132-  40 2.32  71 2.45  65 2.47  76 2.48  32 2.53  41 2.54  50 2.54  51 2.59
                            42 2.64  21 2.69  70 2.82  54 2.94
  70  0.113  0.198  0.134-  45 2.42  31 2.50  23 2.58  40 2.61  24 2.62  65 2.62  21 2.63  41 2.68
                            55 2.72  69 2.82  57 2.86  38 2.88
  71  0.771  0.610  0.046-  50 2.36  69 2.45  54 2.46  46 2.49  40 2.58  76 2.67  63 2.86  34 2.95

  72  0.296  0.627  0.052-  58 2.42  74 2.47  73 2.49  47 2.50  36 2.66  56 2.69  35 2.69  46 2.73
                            53 2.83
  73  0.384  0.719  0.133-  46 2.39  53 2.42  72 2.49  26 2.50  54 2.52  79 2.53  58 2.57  38 2.57
                            78 2.57  51 2.69  24 2.74  74 2.90
  74  0.393  0.455  0.135-  47 2.25  68 2.45  72 2.47  56 2.48  26 2.48  37 2.51  51 2.59  64 2.63
                            58 2.68  73 2.90
  75  0.787  0.389  0.318-  65 2.54  67 2.57   9 2.62  15 2.63   7 2.64  32 2.67  29 2.68  44 2.69
                            39 2.71  18 2.79  60 2.86  22 2.90
  76  0.775  0.368  0.045-  40 2.41  41 2.42  51 2.43  69 2.48  56 2.59  62 2.65  71 2.67  23 2.76
                            46 2.79
  77  0.945  0.072  0.222-  41 2.41  60 2.49  66 2.50  22 2.53  65 2.57   2 2.58  24 2.58  67 2.59
                            59 2.85  55 2.99
  78  0.463  0.796  0.227-  61 2.45  38 2.51  80 2.52  79 2.53  55 2.53  54 2.55  52 2.55  73 2.57
                            44 2.63  49 2.63  32 2.66  26 2.73
  79  0.235  0.799  0.228-  52 2.42  58 2.43  55 2.48  24 2.50  30 2.52  78 2.53   2 2.53  73 2.53
                            26 2.59
  80  0.459  0.025  0.225-  38 2.45  48 2.48  61 2.50  78 2.52  55 2.52  19 2.53  57 2.59  43 2.59
                            49 2.69  59 2.87  31 2.88
  81  0.623  0.585  0.460-  15 1.69  27 1.71
 
  LATTYP: Found a hexagonal cell.
 ALAT       =    11.1599998474
 C/A-ratio  =     1.9713261918
  
  Lattice vectors:
  
 A1 = (   5.5799999237,  -9.6648433741,   0.0000000000)
 A2 = ( -11.1599998474,   0.0000000000,   0.0000000000)
 A3 = (   0.0000000000,   0.0000000000, -22.0000000000)


Analysis of symmetry for initial positions (statically):
=====================================================================
 Subroutine PRICEL returns:
 Original cell was already a primitive cell.
 

 Routine SETGRP: Setting up the symmetry group for a 
 hexagonal supercell.


 Subroutine GETGRP returns: Found  1 space group operations
 (whereof  1 operations were pure point group operations)
 out of a pool of 24 trial point group operations.


The static configuration has the point symmetry C_1 .


Analysis of symmetry for dynamics (positions and initial velocities):
=====================================================================
 Subroutine PRICEL returns:
 Original cell was already a primitive cell.
 

 Routine SETGRP: Setting up the symmetry group for a 
 hexagonal supercell.


 Subroutine GETGRP returns: Found  1 space group operations
 (whereof  1 operations were pure point group operations)
 out of a pool of 24 trial point group operations.


The dynamic configuration has the point symmetry C_1 .


Analysis of constrained symmetry for selective dynamics:
=====================================================================
 Subroutine PRICEL returns:
 Original cell was already a primitive cell.
 

 Routine SETGRP: Setting up the symmetry group for a 
 hexagonal supercell.


 Subroutine GETGRP returns: Found  1 space group operations
 (whereof  1 operations were pure point group operations)
 out of a pool of 24 trial point group operations.


The constrained configuration has the point symmetry C_1 .


Analysis of structural, dynamic, and magnetic symmetry:
=====================================================================
 Subroutine PRICEL returns:
 Original cell was already a primitive cell.
 

 Routine SETGRP: Setting up the symmetry group for a 
 hexagonal supercell.


 Subroutine GETGRP returns: Found  1 space group operations
 (whereof  1 operations were pure point group operations)
 out of a pool of 24 trial point group operations.


The magnetic configuration has the point symmetry C_1 .


 Subroutine INISYM returns: Found  1 space group operations
 (whereof  1 operations are pure point group operations),
 and found     1 'primitive' translations

 
 
 KPOINTS: mesh auto                               

Automatic generation of k-mesh.
Space group operators:
 irot       det(A)        alpha          n_x          n_y          n_z        tau_x        tau_y        tau_z
    1     1.000000     0.000000     1.000000     0.000000     0.000000     0.000000     0.000000     0.000000
 
 Subroutine IBZKPT returns following result:
 ===========================================
 
 Found      4 irreducible k-points:
 
 Following reciprocal coordinates:
            Coordinates               Weight
  0.000000  0.000000  0.000000      1.000000
  0.500000  0.000000  0.000000      1.000000
  0.000000  0.500000  0.000000      1.000000
  0.500000  0.500000  0.000000      1.000000
 
 Following cartesian coordinates:
            Coordinates               Weight
  0.000000  0.000000  0.000000      1.000000
  0.044803 -0.025867  0.000000      1.000000
  0.000000  0.051734  0.000000      1.000000
  0.044803  0.025867  0.000000      1.000000
 


--------------------------------------------------------------------------------------------------------




 Dimension of arrays:
   k-points           NKPTS =      4   k-points in BZ     NKDIM =      4   number of bands    NBANDS=    588
   number of dos      NEDOS =    301   number of ions     NIONS =     81
   non local maximal  LDIM  =      6   non local SUM 2l+1 LMDIM =     18
   total plane-waves  NPLWV = ******
   max r-space proj   IRMAX =   8018   max aug-charges    IRDMAX=  34929
   dimension x,y,z NGX =    90 NGY =   90 NGZ =  168
   dimension x,y,z NGXF=   180 NGYF=  180 NGZF=  336
   support grid    NGXF=   180 NGYF=  180 NGZF=  336
   ions per type =              32  13  10  13  12   1
   NGX,Y,Z   is equivalent  to a cutoff of  13.41, 13.41, 12.70 a.u.
   NGXF,Y,Z  is equivalent  to a cutoff of  26.81, 26.81, 25.39 a.u.

 SYSTEM =  Pt111                                   
 POSCAR =  11.16                                   

 Startparameter for this run:
   NWRITE =      2    write-flag & timer
   PREC   = accura    normal or accurate (medium, high low for compatibility)
   ISTART =      0    job   : 0-new  1-cont  2-samecut
   ICHARG =      2    charge: 1-file 2-atom 10-const
   ISPIN  =      2    spin polarized calculation?
   LNONCOLLINEAR =      F non collinear calculations
   LSORBIT =      F    spin-orbit coupling
   INIWAV =      1    electr: 0-lowe 1-rand  2-diag
   LASPH  =      F    aspherical Exc in radial PAW
   METAGGA=      F    non-selfconsistent MetaGGA calc.

 Electronic Relaxation 1
   ENCUT  =  550.0 eV  40.42 Ry    6.36 a.u.  21.34 21.34 42.07*2*pi/ulx,y,z
   ENINI  =  550.0     initial cutoff
   ENAUG  =  587.0 eV  augmentation charge cutoff
   NELM   =    200;   NELMIN=  2; NELMDL= -5     # of ELM steps 
   EDIFF  = 0.1E-04   stopping-criterion for ELM
   LREAL  =      T    real-space projection
   NLSPLINE    = F    spline interpolate recip. space projectors
   LCOMPAT=      F    compatible to vasp.4.4
   GGA_COMPAT  = T    GGA compatible to vasp.4.4-vasp.4.6
   LMAXPAW     = -100 max onsite density
   LMAXMIX     =    2 max onsite mixed and CHGCAR
   VOSKOWN=      0    Vosko Wilk Nusair interpolation
   ROPT   =   -0.00025  -0.00025  -0.00025  -0.00025
   ROPT   =   -0.00025  -0.00025
 Ionic relaxation
   EDIFFG = -.5E-01   stopping-criterion for IOM
   NSW    =    300    number of steps for IOM
   NBLOCK =      1;   KBLOCK =    300    inner block; outer block 
   IBRION =      2    ionic relax: 0-MD 1-quasi-New 2-CG
   NFREE  =      1    steps in history (QN), initial steepest desc. (CG)
   ISIF   =      2    stress and relaxation
   IWAVPR =     11    prediction:  0-non 1-charg 2-wave 3-comb
   ISYM   =      2    0-nonsym 1-usesym 2-fastsym
   LCORR  =      T    Harris-Foulkes like correction to forces

   POTIM  = 0.5000    time-step for ionic-motion
   TEIN   =    0.0    initial temperature
   TEBEG  =    0.0;   TEEND  =   0.0 temperature during run
   SMASS  =  -3.00    Nose mass-parameter (am)
   estimated Nose-frequenzy (Omega)   =  0.10E-29 period in steps =****** mass=  -0.285E-26a.u.
   SCALEE = 1.0000    scale energy and forces
   NPACO  =    256;   APACO  = 16.0  distance and # of slots for P.C.
   PSTRESS=    0.0 pullay stress

  Mass of Ions in am
   POMASS = 195.08 55.85 58.93 63.55 58.69  1.00
  Ionic Valenz
   ZVAL   =  10.00  8.00  9.00 11.00 10.00  1.00
  Atomic Wigner-Seitz radii
   RWIGS  =  -1.00 -1.00 -1.00 -1.00 -1.00 -1.00
  virtual crystal weights 
   VCA    =   1.00  1.00  1.00  1.00  1.00  1.00
   NELECT =     778.0000    total number of electrons
   NUPDOWN=      -1.0000    fix difference up-down

 DOS related values:
   EMIN   =  10.00;   EMAX   =-10.00  energy-range for DOS
   EFERMI =   0.00
   ISMEAR =     1;   SIGMA  =   0.10  broadening in eV -4-tet -1-fermi 0-gaus

 Electronic relaxation 2 (details)
   IALGO  =     68    algorithm
   LDIAG  =      T    sub-space diagonalisation (order eigenvalues)
   LSUBROT=      F    optimize rotation matrix (better conditioning)
   TURBO    =      0    0=normal 1=particle mesh
   IRESTART =      0    0=no restart 2=restart with 2 vectors
   NREBOOT  =      0    no. of reboots
   NMIN     =      0    reboot dimension
   EREF     =   0.00    reference energy to select bands
   IMIX   =      4    mixing-type and parameters
     AMIX     =   0.40;   BMIX     =  1.00
     AMIX_MAG =   1.60;   BMIX_MAG =  1.00
     AMIN     =   0.10
     WC   =   100.;   INIMIX=   1;  MIXPRE=   1;  MAXMIX= -45

 Intra band minimization:
   WEIMIN = 0.0010     energy-eigenvalue tresh-hold
   EBREAK =  0.43E-08  absolut break condition
   DEPER  =   0.30     relativ break condition  

   TIME   =   0.40     timestep for ELM

  volume/ion in A,a.u.               =      29.30       197.69
  Fermi-wavevector in a.u.,A,eV,Ry     =   1.128862  2.133240 17.338300  1.274329
  Thomas-Fermi vector in A             =   2.265553
 
 Write flags
   LWAVE        =      F    write WAVECAR
   LDOWNSAMPLE  =      F    k-point downsampling of WAVECAR
   LCHARG       =      F    write CHGCAR
   LVTOT        =      F    write LOCPOT, total local potential
   LVHAR        =      F    write LOCPOT, Hartree potential only
   LELF         =      F    write electronic localiz. function (ELF)
   LORBIT       =      0    0 simple, 1 ext, 2 COOP (PROOUT), +10 PAW based schemes


 Dipole corrections
   LMONO  =      F    monopole corrections only (constant potential shift)
   LDIPOL =      F    correct potential (dipole corrections)
   IDIPOL =      0    1-x, 2-y, 3-z, 4-all directions 
   EPSILON=  1.0000000 bulk dielectric constant

 Exchange correlation treatment:
   GGA     =    --    GGA type
   LEXCH   =     8    internal setting for exchange type
   VOSKOWN=      0    Vosko Wilk Nusair interpolation
   LHFCALC =     F    Hartree Fock is set to
   LHFONE  =     F    Hartree Fock one center treatment
   AEXX    =    0.0000 exact exchange contribution

 Linear response parameters
   LEPSILON=     F    determine dielectric tensor
   LRPA    =     F    only Hartree local field effects (RPA)
   LNABLA  =     F    use nabla operator in PAW spheres
   LVEL    =     F    velocity operator in full k-point grid
   LINTERFAST=   F  fast interpolation
   KINTER  =     0    interpolate to denser k-point grid
   CSHIFT  =0.1000    complex shift for real part using Kramers Kronig
   OMEGAMAX=  -1.0    maximum frequency
   DEG_THRESHOLD= 0.2000000E-02 threshold for treating states as degnerate
   RTIME   =   -0.100 relaxation time in fs
  (WPLASMAI=    0.000 imaginary part of plasma frequency in eV, 0.658/RTIME)
   DFIELD  = 0.0000000 0.0000000 0.0000000 field for delta impulse in time
 
 Orbital magnetization related:
   ORBITALMAG=     F  switch on orbital magnetization
   LCHIMAG   =     F  perturbation theory with respect to B field
   DQ        =  0.001000  dq finite difference perturbation B field
   LLRAUG    =     F  two centre corrections for induced B field



--------------------------------------------------------------------------------------------------------


 conjugate gradient relaxation of ions
   using selective dynamics as specified on POSCAR
 charge density and potential will be updated during run
 spin polarized calculation
 RMM-DIIS sequential band-by-band and
  variant of blocked Davidson during initial phase
 perform sub-space diagonalisation
    before iterative eigenvector-optimisation
 modified Broyden-mixing scheme, WC =      100.0
 initial mixing is a Kerker type mixing with AMIX =  0.4000 and BMIX =      1.0000
 Hartree-type preconditioning will be used
 using additional bands          199
 real space projection scheme for non local part
 use partial core corrections
 calculate Harris-corrections to forces 
   (improved forces if not selfconsistent)
 use gradient corrections 
 use of overlap-Matrix (Vanderbilt PP)
 Methfessel and Paxton  Order N= 1 SIGMA  =   0.10


--------------------------------------------------------------------------------------------------------


  energy-cutoff  :      550.00
  volume of cell :     2372.91
      direct lattice vectors                 reciprocal lattice vectors
    11.159999847  0.000000000  0.000000000     0.089605736 -0.051733896  0.000000000
     5.579999924  9.664843374  0.000000000     0.000000000  0.103467792  0.000000000
     0.000000000  0.000000000 22.000000000     0.000000000  0.000000000  0.045454545

  length of vectors
    11.159999847 11.159999847 22.000000000     0.103467792  0.103467792  0.045454545


 
 k-points in units of 2pi/SCALE and weight: mesh auto                               
   0.00000000  0.00000000  0.00000000       0.250
   0.04480287 -0.02586695  0.00000000       0.250
   0.00000000  0.05173390  0.00000000       0.250
   0.04480287  0.02586695  0.00000000       0.250
 
 k-points in reciprocal lattice and weights: mesh auto                               
   0.00000000  0.00000000  0.00000000       0.250
   0.50000000  0.00000000  0.00000000       0.250
   0.00000000  0.50000000  0.00000000       0.250
   0.50000000  0.50000000  0.00000000       0.250
 
 position of ions in fractional coordinates (direct lattice) 
   0.78410929  0.88122113  0.30659795
   0.03840304  0.87960006  0.30284749
   0.27732428  0.37398042  0.31387666
   0.86879861  0.96608509  0.40745927
   0.11229087  0.47013948  0.41430908
   0.12073658  0.96288658  0.41053626
   0.87477397  0.45590393  0.41685433
   0.37349944  0.95936649  0.41333800
   0.86951628  0.21353289  0.40914837
   0.12621755  0.21312327  0.41312316
   0.62489269  0.95750485  0.41198925
   0.86973501  0.71434514  0.41422466
   0.37554557  0.20541597  0.41513450
   0.37761744  0.70868748  0.41127941
   0.62590870  0.46150495  0.41453403
   0.11921802  0.70952428  0.41568669
   0.62414497  0.20959581  0.41151627
   0.54168697  0.37946542  0.31395151
   0.53035131  0.12660560  0.31046538
   0.54793603  0.12559094  0.05562120
   0.10504726  0.43654782  0.12441709
   0.04891118  0.13217946  0.31082942
   0.02529082  0.12493247  0.04047369
   0.13026485  0.95528544  0.13817680
   0.36938322  0.45920297  0.41417582
   0.45509049  0.55651272  0.22154554
   0.62060076  0.71102090  0.41479308
   0.95094057  0.77081544  0.21154233
   0.79688309  0.62378000  0.31591142
   0.27694840  0.62942757  0.31204279
   0.19082330  0.27236719  0.22566964
   0.69919994  0.55613805  0.22166573
   0.03629339  0.63336247  0.31517552
   0.79467647  0.85972118  0.06032101
   0.04722771  0.86083187  0.05262433
   0.04859995  0.64677341  0.06148323
   0.62562354  0.23868534  0.13390052
   0.38129809  0.95058438  0.13575460
   0.03143427  0.38431543  0.32011046
   0.99126956  0.36841850  0.04402170
   0.86350131  0.21842123  0.13306086
   0.95183731  0.53532270  0.22231013
   0.29911720  0.11420082  0.31900411
   0.54188813  0.62476552  0.31991619
   0.28073741  0.10572062  0.05217040
   0.53898716  0.62972570  0.04826805
   0.29843692  0.40217147  0.05639190
   0.62299507  0.94105548  0.13847503
   0.70309498  0.78725245  0.22023275
   0.84927807  0.68065811  0.13125409
   0.61676727  0.47016329  0.13003533
   0.29855928  0.87742599  0.31799098
   0.30104323  0.87798772  0.04776903
   0.60856387  0.72205278  0.13067254
   0.23442975  0.02118691  0.22845648
   0.53458295  0.38611139  0.04113969
   0.36549861  0.20554464  0.13827492
   0.16323487  0.70328636  0.14532740
   0.69430872  0.06353648  0.21923850
   0.78813215  0.13226489  0.31125350
   0.54073756  0.87174229  0.31618972
   0.78467988  0.12564699  0.04279190
   0.53720865  0.88323237  0.04365230
   0.20177430  0.52532489  0.21944794
   0.93965768  0.30525856  0.22474547
   0.86501396  0.98099372  0.13695687
   0.71102907  0.30256943  0.22580825
   0.45342655  0.29690968  0.22156689
   0.85908571  0.44811144  0.13181704
   0.11348559  0.19767859  0.13378399
   0.77114523  0.60971805  0.04620503
   0.29563368  0.62728335  0.05225088
   0.38421747  0.71875814  0.13293049
   0.39253970  0.45501358  0.13517071
   0.78672471  0.38852826  0.31837949
   0.77506619  0.36811979  0.04526885
   0.94496148  0.07237666  0.22177850
   0.46334471  0.79628971  0.22743685
   0.23540543  0.79883680  0.22766226
   0.45873779  0.02460247  0.22481212
   0.62257633  0.58510576  0.45978570
 
 position of ions in cartesian coordinates  (Angst):
  13.66787336  8.51686418  6.74515493
   5.33674618  8.50119686  6.66264481
   5.18174962  3.61446219  6.90528655
  15.08654704  9.33706104  8.96410384
   3.87654438  4.54382445  9.11479982
   6.72032727  9.30614797  9.03179772
  12.30642124  4.40624009  9.17079522
   9.52151862  9.27212682  9.09343595
  10.89531507  2.06376194  9.00126411
   2.59781571  2.05980304  9.08870950
  12.31667931  9.25413437  9.06376356
  13.69228846  6.90403394  9.11294260
   5.33730961  1.98531315  9.13295904
   8.16868671  6.84935353  9.04814697
   9.56033856  4.46037306  9.11974864
   5.28961844  6.85744100  9.14510719
   8.13500243  2.02571069  9.05335790
   8.16264348  3.66747381  6.90693323
   6.62517977  1.22362329  6.83023844
   6.81576348  1.21381676  1.22366642
   3.60826420  4.21916628  2.73717594
   1.28341012  1.27749377  6.83824733
   0.97936869  1.20745277  0.89042116
   6.78424835  9.23268414  3.03988958
   6.68466922  4.43812475  9.11186815
   8.18415069  5.37860823  4.87400199
  10.89340098  6.87190562  9.12544778
  14.91364670  7.44981051  4.65393115
  12.37390749  6.02873601  6.95005133
   6.60294983  6.08331883  6.86494135
   3.64939690  2.63238621  4.96473217
  10.90632152  5.37498713  4.87664604
   3.93919679  6.12134910  6.93386149
  13.66583347  8.30907059  1.32706224
   5.33050299  8.31980515  1.15773524
   4.15137100  6.25096369  1.35263108
   8.31382275  2.30685640  2.94581151
   9.55954743  9.18724919  2.98660111
   2.49528650  3.71434842  7.04243004
  13.11834335  3.56070709  0.96847749
  10.85546493  2.11100698  2.92733883
  13.60960483  5.17381000  4.89082288
   3.97538851  1.10373308  7.01809042
   9.53366302  6.03826090  7.03815618
   3.72295046  1.02177321  1.14774882
   9.52896595  6.08620024  1.06189717
   5.57467270  3.88692427  1.24062180
  12.20371438  9.09515381  3.04645062
  12.23940849  7.60867166  4.84512043
  13.27601528  6.57845401  2.88758994
   9.50663376  4.54405451  2.86077715
   8.22795853  8.48018480  6.99580163
   8.25881386  8.48561383  1.05091857
  10.82062721  6.97852707  2.87479592
   2.73445892  0.20476814  5.02604247
   8.12044716  3.73170614  0.90507316
   5.22590351  1.98655677  3.04204822
   5.74603891  6.79715252  3.19720269
   8.10301876  0.61407012  4.82324696
   9.53359279  1.27831948  6.84757704
  10.89895295  8.42525268  6.95617375
   9.45813751  1.21435845  0.94142187
  10.92368507  8.53630257  0.96035051
   5.18311405  5.07718277  4.82785464
  12.18992233  2.95027613  4.94440032
  15.12750054  9.48115063  3.01305103
   9.62342168  2.92428613  4.96778154
   6.71699620  2.86958551  4.87447167
  12.08785820  4.33092689  2.89997481
   2.36954570  1.91053259  2.94324780
  12.00820732  5.89282942  1.01651062
   6.79951286  6.06259537  1.14951932
   8.29853726  6.94668484  2.92447067
   6.91971874  4.39763498  2.97375560
  10.94783532  3.75506482  7.00434875
  10.70384693  3.55782008  0.99591470
  10.94963169  0.69950908  4.87912702
   9.61422348  7.69601536  5.00361061
   7.08463382  7.72063255  5.00856972
   5.25679540  0.23777902  4.94586657
  10.21284187  5.65495550 10.11528542
 


--------------------------------------------------------------------------------------------------------


 k-point  1 :   0.0000 0.0000 0.0000  plane waves:   69505
 k-point  2 :   0.5000 0.0000 0.0000  plane waves:   69454
 k-point  3 :   0.0000 0.5000 0.0000  plane waves:   69454
 k-point  4 :   0.5000 0.5000 0.0000  plane waves:   69454

 maximum and minimum number of plane-waves per node :     17422    17318

 maximum number of plane-waves:     69505
 maximum index in each direction: 
   IXMAX=   21   IYMAX=   21   IZMAX=   42
   IXMIN=  -21   IYMIN=  -21   IZMIN=  -42


 real space projection operators:
  total allocation   :      79976.34 KBytes
  max/ min on nodes  :      20455.98      19525.30


 parallel 3D FFT for wavefunctions:
    minimum data exchange during FFTs selected (reduces bandwidth)
 parallel 3D FFT for charge:
    minimum data exchange during FFTs selected (reduces bandwidth)


 total amount of memory used by VASP MPI-rank0   251625. kBytes
=======================================================================

   base      :      30000. kBytes
   nonlr-proj:      36168. kBytes
   fftplans  :      18294. kBytes
   grid      :      55120. kBytes
   one-center:        653. kBytes
   wavefun   :     111390. kBytes
 
     INWAV:  cpu time    0.0001: real time    0.0000
 Broyden mixing: mesh for mixing (old mesh)
   NGX = 43   NGY = 43   NGZ = 85
  (NGX  =180   NGY  =180   NGZ  =336)
  gives a total of 157165 points

 initial charge density was supplied:
 charge density of overlapping atoms calculated
 number of electron     778.0000000 magnetization     231.0000000
 keeping initial charge density in first step


--------------------------------------------------------------------------------------------------------


 Maximum index for non-local projection operator         2138
 Maximum index for augmentation-charges         1127 (set IRDMAX)


--------------------------------------------------------------------------------------------------------


 First call to EWALD:  gamma=   0.133
 Maximum number of real-space cells 4x 4x 2
 Maximum number of reciprocal cells 2x 2x 4

    FEWALD:  cpu time    0.0043: real time    0.0051


--------------------------------------- Iteration      1(   1)  ---------------------------------------


    POTLOK:  cpu time    0.4326: real time    0.5663
    SETDIJ:  cpu time    0.0341: real time    0.0454
     EDDAV:  cpu time   66.7226: real time   66.9422
       DOS:  cpu time    0.0022: real time    0.0222
    --------------------------------------------
      LOOP:  cpu time   67.1916: real time   67.5762

 eigenvalue-minimisations  :  9408
 total energy-change (2. order) : 0.7562883E+04  (-0.3274099E+05)
 number of electron     778.0000000 magnetization     231.0000000
 augmentation part      778.0000000 magnetization     231.0000000

 Free energy of the ion-electron system (eV)
  ---------------------------------------------------
  alpha Z        PSCENC =      2004.68801245
  Ewald energy   TEWEN  =    221737.39884331
  -Hartree energ DENC   =   -293280.40403692
  -exchange      EXHF   =         0.00000000
  -V(xc)+E(xc)   XCENC  =      1373.16313275
  PAW double counting   =     64136.80006862   -66038.70876209
  entropy T*S    EENTRO =        -0.00616543
  eigenvalues    EBANDS =      7411.29684025
  atomic energy  EATOM  =     70218.65458108
  Solvation  Ediel_sol  =         0.00000000
  ---------------------------------------------------
  free energy    TOTEN  =      7562.88251402 eV

  energy without entropy =     7562.88867944  energy(sigma->0) =     7562.88456916


--------------------------------------------------------------------------------------------------------




--------------------------------------- Iteration      1(   2)  ---------------------------------------


     EDDAV:  cpu time   66.7011: real time   66.9277
       DOS:  cpu time    0.0025: real time    0.0027
    --------------------------------------------
      LOOP:  cpu time   66.7036: real time   66.9304

 eigenvalue-minimisations  :  9408
 total energy-change (2. order) :-0.6817377E+04  (-0.6118808E+04)
 number of electron     778.0000000 magnetization     231.0000000
 augmentation part      778.0000000 magnetization     231.0000000

 Free energy of the ion-electron system (eV)
  ---------------------------------------------------
  alpha Z        PSCENC =      2004.68801245
  Ewald energy   TEWEN  =    221737.39884331
  -Hartree energ DENC   =   -293280.40403692
  -exchange      EXHF   =         0.00000000
  -V(xc)+E(xc)   XCENC  =      1373.16313275
  PAW double counting   =     64136.80006862   -66038.70876209
  entropy T*S    EENTRO =         0.00024289
  eigenvalues    EBANDS =       593.91343568
  atomic energy  EATOM  =     70218.65458108
  Solvation  Ediel_sol  =         0.00000000
  ---------------------------------------------------
  free energy    TOTEN  =       745.50551777 eV

  energy without entropy =      745.50527488  energy(sigma->0) =      745.50543681


--------------------------------------------------------------------------------------------------------




--------------------------------------- Iteration      1(   3)  ---------------------------------------


     EDDAV:  cpu time   66.6034: real time   66.8226
       DOS:  cpu time    0.0025: real time    0.0165
    --------------------------------------------
      LOOP:  cpu time   66.6060: real time   66.8391

 eigenvalue-minimisations  :  9408
 total energy-change (2. order) :-0.1121456E+04  (-0.9098895E+03)
 number of electron     778.0000000 magnetization     231.0000000
 augmentation part      778.0000000 magnetization     231.0000000

 Free energy of the ion-electron system (eV)
  ---------------------------------------------------
  alpha Z        PSCENC =      2004.68801245
  Ewald energy   TEWEN  =    221737.39884331
  -Hartree energ DENC   =   -293280.40403692
  -exchange      EXHF   =         0.00000000
  -V(xc)+E(xc)   XCENC  =      1373.16313275
  PAW double counting   =     64136.80006862   -66038.70876209
  entropy T*S    EENTRO =        -0.00415056
  eigenvalues    EBANDS =      -527.53834707
  atomic energy  EATOM  =     70218.65458108
  Solvation  Ediel_sol  =         0.00000000
  ---------------------------------------------------
  free energy    TOTEN  =      -375.95065844 eV

  energy without entropy =     -375.94650788  energy(sigma->0) =     -375.94927492


--------------------------------------------------------------------------------------------------------




--------------------------------------- Iteration      1(   4)  ---------------------------------------


     EDDAV:  cpu time   80.5196: real time   80.8661
       DOS:  cpu time    0.0029: real time    0.0035
    --------------------------------------------
      LOOP:  cpu time   80.5225: real time   80.8696

 eigenvalue-minimisations  : 12012
 total energy-change (2. order) :-0.1121104E+03  (-0.1018672E+03)
 number of electron     778.0000000 magnetization     231.0000000
 augmentation part      778.0000000 magnetization     231.0000000

 Free energy of the ion-electron system (eV)
  ---------------------------------------------------
  alpha Z        PSCENC =      2004.68801245
  Ewald energy   TEWEN  =    221737.39884331
  -Hartree energ DENC   =   -293280.40403692
  -exchange      EXHF   =         0.00000000
  -V(xc)+E(xc)   XCENC  =      1373.16313275
  PAW double counting   =     64136.80006862   -66038.70876209
  entropy T*S    EENTRO =         0.00202029
  eigenvalues    EBANDS =      -639.65487970
  atomic energy  EATOM  =     70218.65458108
  Solvation  Ediel_sol  =         0.00000000
  ---------------------------------------------------
  free energy    TOTEN  =      -488.06102022 eV

  energy without entropy =     -488.06304050  energy(sigma->0) =     -488.06169365


--------------------------------------------------------------------------------------------------------




--------------------------------------- Iteration      1(   5)  ---------------------------------------


     EDDAV:  cpu time   76.5007: real time   76.7969
       DOS:  cpu time    0.0032: real time    0.0147
    CHARGE:  cpu time    4.4407: real time    4.4692
    MIXING:  cpu time    0.0114: real time    0.0115
    --------------------------------------------
      LOOP:  cpu time   80.9561: real time   81.2923

 eigenvalue-minimisations  : 11244
 total energy-change (2. order) :-0.4322586E+01  (-0.4284387E+01)
 number of electron     778.0000013 magnetization     216.7211620
 augmentation part      335.6617855 magnetization     183.4603732

 Broyden mixing:
  rms(total) = 0.11174E+02    rms(broyden)= 0.11174E+02
  rms(prec ) = 0.11569E+02
  weight for this iteration     100.00

 Free energy of the ion-electron system (eV)
  ---------------------------------------------------
  alpha Z        PSCENC =      2004.68801245
  Ewald energy   TEWEN  =    221737.39884331
  -Hartree energ DENC   =   -293280.40403692
  -exchange      EXHF   =         0.00000000
  -V(xc)+E(xc)   XCENC  =      1373.16313275
  PAW double counting   =     64136.80006862   -66038.70876209
  entropy T*S    EENTRO =         0.00283847
  eigenvalues    EBANDS =      -643.97828435
  atomic energy  EATOM  =     70218.65458108
  Solvation  Ediel_sol  =         0.00000000
  ---------------------------------------------------
  free energy    TOTEN  =      -492.38360668 eV

  energy without entropy =     -492.38644515  energy(sigma->0) =     -492.38455284


--------------------------------------------------------------------------------------------------------




--------------------------------------- Iteration      1(   6)  ---------------------------------------


    POTLOK:  cpu time    0.4227: real time    0.4917
    SETDIJ:  cpu time    0.0335: real time    0.0337
    EDDIAG:  cpu time   11.9904: real time   12.0328
  RMM-DIIS:  cpu time   43.1420: real time   43.2753
    ORTHCH:  cpu time    1.3216: real time    1.3260
       DOS:  cpu time    0.0023: real time    0.0023
    CHARGE:  cpu time    4.3255: real time    4.3374
    MIXING:  cpu time    0.0123: real time    0.0127
    --------------------------------------------
      LOOP:  cpu time   61.2502: real time   61.5119

 eigenvalue-minimisations  :  9690
 total energy-change (2. order) :-0.2690437E+03  (-0.1042042E+03)
 number of electron     778.0000020 magnetization     213.2232546
 augmentation part      407.6679421 magnetization     177.9531507

 Broyden mixing:
  rms(total) = 0.21580E+02    rms(broyden)= 0.21580E+02
  rms(prec ) = 0.28454E+02
  weight for this iteration     100.00

 eigenvalues of (default mixing * dielectric matrix)
  average eigenvalue GAMMA=   0.1867
  0.1867

 Free energy of the ion-electron system (eV)
  ---------------------------------------------------
  alpha Z        PSCENC =      2004.68801245
  Ewald energy   TEWEN  =    221737.39884331
  -Hartree energ DENC   =   -291673.46664506
  -exchange      EXHF   =         0.00000000
  -V(xc)+E(xc)   XCENC  =      1332.23440115
  PAW double counting   =     68343.84771985   -70018.66913424
  entropy T*S    EENTRO =        -0.01701522
  eigenvalues    EBANDS =     -2706.09803520
  atomic energy  EATOM  =     70218.65458108
  Solvation  Ediel_sol  =         0.00000000
  ---------------------------------------------------
  free energy    TOTEN  =      -761.42727188 eV

  energy without entropy =     -761.41025667  energy(sigma->0) =     -761.42160014


--------------------------------------------------------------------------------------------------------




--------------------------------------- Iteration      1(   7)  ---------------------------------------


    POTLOK:  cpu time    0.4122: real time    0.4148
    SETDIJ:  cpu time    0.0336: real time    0.0336
    EDDIAG:  cpu time   12.0272: real time   12.0629
  RMM-DIIS:  cpu time   41.9820: real time   42.1569
    ORTHCH:  cpu time    1.3115: real time    1.3191
       DOS:  cpu time    0.0027: real time    0.0027
    CHARGE:  cpu time    4.3110: real time    4.3272
    MIXING:  cpu time    0.0127: real time    0.0128
    --------------------------------------------
      LOOP:  cpu time   60.0929: real time   60.3301

 eigenvalue-minimisations  :  9428
 total energy-change (2. order) : 0.2857373E+03  (-0.1598270E+02)
 number of electron     778.0000019 magnetization     208.4420463
 augmentation part      375.5812295 magnetization     164.4656469

 Broyden mixing:
  rms(total) = 0.13760E+02    rms(broyden)= 0.13760E+02
  rms(prec ) = 0.17413E+02
  weight for this iteration     100.00

 eigenvalues of (default mixing * dielectric matrix)
  average eigenvalue GAMMA=   0.2583
  0.3396  0.1771

 Free energy of the ion-electron system (eV)
  ---------------------------------------------------
  alpha Z        PSCENC =      2004.68801245
  Ewald energy   TEWEN  =    221737.39884331
  -Hartree energ DENC   =   -292321.15394553
  -exchange      EXHF   =         0.00000000
  -V(xc)+E(xc)   XCENC  =      1349.87562348
  PAW double counting   =     69245.57335586   -71067.71180564
  entropy T*S    EENTRO =         0.00477813
  eigenvalues    EBANDS =     -1643.01943049
  atomic energy  EATOM  =     70218.65458108
  Solvation  Ediel_sol  =         0.00000000
  ---------------------------------------------------
  free energy    TOTEN  =      -475.68998737 eV

  energy without entropy =     -475.69476549  energy(sigma->0) =     -475.69158008


--------------------------------------------------------------------------------------------------------




--------------------------------------- Iteration      1(   8)  ---------------------------------------


    POTLOK:  cpu time    0.4118: real time    0.4143
    SETDIJ:  cpu time    0.0331: real time    0.0332
    EDDIAG:  cpu time   11.9790: real time   12.0169
  RMM-DIIS:  cpu time   42.0696: real time   42.1998
    ORTHCH:  cpu time    1.3175: real time    1.3212
       DOS:  cpu time    0.0025: real time    0.0026
    CHARGE:  cpu time    4.2247: real time    4.2363
    MIXING:  cpu time    0.0127: real time    0.0130
    --------------------------------------------
      LOOP:  cpu time   60.0509: real time   60.2371

 eigenvalue-minimisations  :  9429
 total energy-change (2. order) : 0.1221006E+02  (-0.1538080E+02)
 number of electron     778.0000012 magnetization     201.1712035
 augmentation part      376.4677485 magnetization     162.8187719

 Broyden mixing:
  rms(total) = 0.15763E+02    rms(broyden)= 0.15763E+02
  rms(prec ) = 0.18398E+02
  weight for this iteration     100.00

 eigenvalues of (default mixing * dielectric matrix)
  average eigenvalue GAMMA=   0.3177
  0.5943  0.2717  0.0872

 Free energy of the ion-electron system (eV)
  ---------------------------------------------------
  alpha Z        PSCENC =      2004.68801245
  Ewald energy   TEWEN  =    221737.39884331
  -Hartree energ DENC   =   -292515.14536320
  -exchange      EXHF   =         0.00000000
  -V(xc)+E(xc)   XCENC  =      1358.05083836
  PAW double counting   =     70382.15170155   -72285.49824552
  entropy T*S    EENTRO =        -0.00281284
  eigenvalues    EBANDS =     -1363.77747815
  atomic energy  EATOM  =     70218.65458108
  Solvation  Ediel_sol  =         0.00000000
  ---------------------------------------------------
  free energy    TOTEN  =      -463.47992296 eV

  energy without entropy =     -463.47711012  energy(sigma->0) =     -463.47898535


--------------------------------------------------------------------------------------------------------




--------------------------------------- Iteration      1(   9)  ---------------------------------------


    POTLOK:  cpu time    0.4182: real time    0.4640
    SETDIJ:  cpu time    0.0329: real time    0.0329
    EDDIAG:  cpu time   11.9677: real time   12.0356
  RMM-DIIS:  cpu time   42.1826: real time   42.3294
    ORTHCH:  cpu time    1.3141: real time    1.3177
       DOS:  cpu time    0.0026: real time    0.0026
    CHARGE:  cpu time    4.2443: real time    4.2560
    MIXING:  cpu time    0.0159: real time    0.0160
    --------------------------------------------
      LOOP:  cpu time   60.1782: real time   60.4542

 eigenvalue-minimisations  :  9445
 total energy-change (2. order) : 0.5812005E+02  (-0.1664855E+02)
 number of electron     778.0000014 magnetization     193.8043358
 augmentation part      378.9457376 magnetization     145.2703054

 Broyden mixing:
  rms(total) = 0.13182E+02    rms(broyden)= 0.13182E+02
  rms(prec ) = 0.14956E+02
  weight for this iteration     100.00

 eigenvalues of (default mixing * dielectric matrix)
  average eigenvalue GAMMA=   0.3478
  0.8028  0.3641  0.1121  0.1121

 Free energy of the ion-electron system (eV)
  ---------------------------------------------------
  alpha Z        PSCENC =      2004.68801245
  Ewald energy   TEWEN  =    221737.39884331
  -Hartree energ DENC   =   -292350.81106760
  -exchange      EXHF   =         0.00000000
  -V(xc)+E(xc)   XCENC  =      1376.05903854
  PAW double counting   =     71682.70746601   -73644.52593634
  entropy T*S    EENTRO =         0.00320600
  eigenvalues    EBANDS =     -1429.53402022
  atomic energy  EATOM  =     70218.65458108
  Solvation  Ediel_sol  =         0.00000000
  ---------------------------------------------------
  free energy    TOTEN  =      -405.35987677 eV

  energy without entropy =     -405.36308278  energy(sigma->0) =     -405.36094544


--------------------------------------------------------------------------------------------------------




--------------------------------------- Iteration      1(  10)  ---------------------------------------


    POTLOK:  cpu time    0.4122: real time    0.4146
    SETDIJ:  cpu time    0.0330: real time    0.0331
    EDDIAG:  cpu time   11.9931: real time   12.0288
  RMM-DIIS:  cpu time   42.2026: real time   42.3375
    ORTHCH:  cpu time    1.3122: real time    1.3157
       DOS:  cpu time    0.0025: real time    0.0025
[...]
   -.112E+02 0.487E+02 -.271E+04   0.115E+02 -.482E+02 0.271E+04   -.414E+00 -.509E+00 0.150E+01   0.306E-01 -.104E-01 -.156E-01
   -.316E+02 0.481E+01 -.273E+04   0.307E+02 -.375E+01 0.273E+04   0.871E+00 -.108E+01 0.227E+01   0.520E-01 0.140E-01 0.290E-01
   0.361E+02 -.162E+01 -.272E+04   -.360E+02 0.107E+01 0.272E+04   -.130E+00 0.636E+00 0.197E+01   0.585E-01 -.927E-01 -.131E+00
   -.302E+02 -.156E+02 -.280E+04   0.313E+02 0.139E+02 0.279E+04   -.109E+01 0.169E+01 0.292E+01   -.177E-03 0.146E-01 0.330E-02
   0.226E+02 -.246E+02 -.281E+04   -.231E+02 0.252E+02 0.281E+04   0.582E+00 -.492E+00 0.287E+01   -.854E-01 -.928E-01 -.131E+00
   -.307E+02 0.403E+02 -.276E+04   0.303E+02 -.401E+02 0.276E+04   0.389E+00 -.117E+00 0.202E+01   -.173E-01 -.603E-01 -.805E-02
   0.110E+01 0.306E+01 -.275E+04   -.307E+00 -.259E+01 0.275E+04   -.757E+00 -.389E+00 0.261E+01   -.375E-02 -.570E-01 -.116E-01
   -.457E+02 -.175E+02 -.277E+04   0.459E+02 0.169E+02 0.277E+04   -.177E+00 0.649E+00 0.167E+01   0.424E-02 0.554E-02 -.344E-01
   -.323E+02 -.687E+01 -.273E+04   0.324E+02 0.671E+01 0.273E+04   -.199E+00 0.126E+00 0.202E+01   0.236E-01 0.327E-01 0.137E-01
   -.288E+01 -.466E+02 -.277E+04   0.270E+01 0.458E+02 0.277E+04   0.148E+00 0.836E+00 0.207E+01   0.291E-01 0.130E-01 -.183E-01
   0.559E+02 0.249E+02 -.274E+04   -.556E+02 -.241E+02 0.274E+04   -.276E+00 -.844E+00 0.266E+01   -.237E-01 0.541E-01 -.143E+00
   0.494E+02 0.169E+02 -.279E+04   -.486E+02 -.159E+02 0.279E+04   -.726E+00 -.968E+00 0.474E+00   -.694E-01 0.574E-01 -.302E-01
   -.602E-01 -.144E+02 -.272E+04   -.424E+00 0.136E+02 0.272E+04   0.386E+00 0.738E+00 0.192E+01   0.957E-01 0.216E-01 -.287E-01
   0.326E+02 0.273E+01 -.277E+04   -.323E+02 -.246E+01 0.277E+04   -.227E+00 -.290E+00 0.212E+01   -.113E-01 -.352E-03 -.763E-02
   0.889E+02 -.558E+02 -.147E+04   -.873E+02 0.562E+02 0.146E+04   -.158E+01 -.445E+00 0.115E+01   -.308E-01 0.726E-01 -.430E-01
   0.124E+02 -.365E+02 -.141E+04   -.135E+02 0.362E+02 0.141E+04   0.114E+01 0.316E+00 0.242E+01   -.104E-01 -.872E-02 -.373E-01
   0.867E+02 0.251E+02 0.276E+04   -.860E+02 -.255E+02 -.276E+04   -.814E+00 0.400E+00 -.306E+01   0.753E-04 -.131E-01 0.564E-02
   -.526E+02 -.514E+02 0.171E+04   0.516E+02 0.518E+02 -.171E+04   0.106E+01 -.405E+00 0.156E+01   -.177E-01 0.172E-01 0.163E-01
   -.370E+02 0.230E+02 -.140E+04   0.378E+02 -.224E+02 0.140E+04   -.825E+00 -.308E+00 0.220E+01   0.376E-01 -.169E+00 -.231E-01
   -.741E+02 0.987E+02 0.291E+04   0.746E+02 -.973E+02 -.291E+04   -.532E+00 -.159E+01 -.255E+01   -.641E-02 0.109E-01 0.444E-02
   0.612E+02 -.435E+02 0.146E+04   -.609E+02 0.430E+02 -.146E+04   -.336E+00 0.550E+00 -.732E+00   0.449E-01 -.920E-01 0.120E+00
   0.174E+02 -.791E+01 -.274E+04   -.180E+02 0.761E+01 0.274E+04   0.513E+00 0.248E+00 0.202E+01   0.244E-01 0.596E-01 -.231E-01
   0.402E+02 0.289E+02 -.641E+02   -.401E+02 -.287E+02 0.634E+02   -.262E+00 -.420E+00 0.675E+00   -.469E-02 0.155E+00 0.409E-01
   -.302E+02 0.536E+01 -.279E+04   0.298E+02 -.506E+01 0.279E+04   0.467E+00 -.346E+00 0.134E+01   -.825E-01 0.269E-01 -.665E-01
   -.174E+02 0.157E+02 0.222E+03   0.162E+02 -.174E+02 -.222E+03   0.115E+01 0.176E+01 -.550E+00   0.294E-01 0.262E-01 -.162E-01
   -.855E+02 -.666E+01 -.143E+04   0.861E+02 0.549E+01 0.143E+04   -.511E+00 0.118E+01 0.250E+01   -.774E-01 0.635E-01 -.664E-01
   0.494E+02 0.212E+02 -.140E+04   -.499E+02 -.206E+02 0.140E+04   0.356E+00 -.685E+00 0.196E+01   0.132E+00 0.136E+00 -.563E-01
   -.364E+02 -.778E+02 -.418E+02   0.355E+02 0.775E+02 0.421E+02   0.933E+00 0.394E+00 -.281E+00   0.186E-01 -.411E-01 -.129E-01
   -.439E+02 -.214E+02 -.157E+02   0.446E+02 0.219E+02 0.153E+02   -.610E+00 -.689E+00 0.423E+00   -.713E-01 0.109E+00 -.250E-01
   0.984E+01 0.109E+01 -.110E+04   -.980E+01 -.115E+01 0.110E+04   -.102E+00 0.985E-01 0.224E+00   0.599E-01 0.379E-01 -.139E-01
   -.737E+02 0.363E+02 0.220E+04   0.746E+02 -.372E+02 -.220E+04   -.921E+00 0.887E+00 -.312E+01   -.233E-01 -.242E-01 0.145E-01
   0.587E+02 0.391E+01 0.226E+04   -.591E+02 -.549E+01 -.226E+04   0.540E+00 0.166E+01 -.300E+01   -.104E-02 0.157E-02 0.284E-01
   0.978E+02 0.338E+02 0.217E+04   -.968E+02 -.324E+02 -.217E+04   -.949E+00 -.145E+01 -.240E+01   -.260E-01 0.878E-02 0.223E-01
   0.689E+02 0.910E+02 0.119E+04   -.680E+02 -.903E+02 -.119E+04   -.910E+00 -.763E+00 -.727E-01   -.501E-02 0.134E-01 0.158E-01
   0.823E+01 -.106E+03 0.120E+04   -.810E+01 0.106E+03 -.120E+04   -.187E+00 0.555E+00 -.645E+00   -.355E-02 -.736E-01 0.893E-01
   -.691E+02 -.234E+02 -.116E+04   0.693E+02 0.236E+02 0.116E+04   -.133E+00 -.216E+00 0.106E+00   0.477E-02 -.173E-01 -.263E-01
   -.243E+03 -.151E+02 0.236E+04   0.241E+03 0.146E+02 -.236E+04   0.270E+01 0.426E+00 -.410E+01   -.229E-01 0.273E-01 0.301E-02
   -.377E+02 0.761E+02 0.122E+04   0.369E+02 -.757E+02 -.122E+04   0.887E+00 -.544E+00 -.589E+00   0.407E-05 0.127E-01 0.492E-03
   -.991E+02 -.189E+02 0.594E+01   0.988E+02 0.193E+02 -.565E+01   0.289E+00 -.434E+00 -.308E+00   -.318E-01 0.299E-01 -.448E-01
   0.122E+02 -.907E+02 -.119E+04   -.123E+02 0.907E+02 0.119E+04   0.188E+00 0.112E+00 0.484E+00   -.317E-01 -.122E+00 -.456E-01
   0.297E+02 0.129E+02 -.122E+04   -.297E+02 -.134E+02 0.122E+04   0.682E-01 0.271E+00 -.268E+00   -.912E-01 0.115E+00 -.662E-01
   -.549E+02 -.143E+03 0.228E+04   0.532E+02 0.140E+03 -.228E+04   0.168E+01 0.292E+01 -.338E+01   0.115E-01 -.821E-02 0.187E-01
   0.197E+02 -.473E+02 0.265E+04   -.197E+02 0.476E+02 -.265E+04   -.927E-01 -.289E+00 -.310E+01   0.340E-01 0.851E-02 0.462E-01
   0.237E+03 0.784E+02 0.255E+04   -.236E+03 -.767E+02 -.254E+04   -.906E+00 -.171E+01 -.295E+01   0.851E-02 -.297E-02 0.149E-01
   -.947E+02 -.640E+02 0.131E+04   0.939E+02 0.631E+02 -.131E+04   0.837E+00 0.100E+01 -.178E-01   -.423E-01 -.545E-01 0.497E-01
   -.126E+03 0.200E+02 0.338E+02   0.126E+03 -.199E+02 -.340E+02   -.350E-01 -.129E+00 0.209E+00   -.847E-01 0.446E-03 -.138E-01
   -.192E+03 -.113E+02 0.140E+04   0.192E+03 0.119E+02 -.140E+04   -.234E+00 -.708E+00 -.550E-02   -.586E-01 0.103E-01 0.103E-01
   -.722E+01 0.541E+01 0.132E+04   0.737E+01 -.578E+01 -.132E+04   -.162E+00 0.369E+00 -.305E+00   -.264E-02 0.920E-01 0.961E-02
   0.705E+02 0.151E+02 -.137E+04   -.702E+02 -.149E+02 0.137E+04   -.324E+00 -.104E+00 0.432E+00   -.293E-01 -.915E-01 -.962E-01
   0.880E+02 -.627E+02 0.263E+04   -.872E+02 0.630E+02 -.262E+04   -.930E+00 -.247E+00 -.319E+01   0.362E-01 -.474E-01 0.626E-01
   -.652E+02 -.158E+02 0.136E+04   0.653E+02 0.162E+02 -.136E+04   -.618E-01 -.363E+00 -.532E+00   -.478E-01 -.962E-02 0.390E-01
   0.529E+02 -.103E+03 -.286E+02   -.521E+02 0.103E+03 0.288E+02   -.797E+00 0.475E+00 -.458E+00   -.567E-02 -.205E+00 0.906E-01
   0.105E+03 0.651E+02 0.328E+04   -.105E+03 -.642E+02 -.327E+04   0.201E-01 -.993E+00 -.441E+01   0.467E-01 0.364E-01 0.773E-02
   0.476E+02 -.310E+02 0.166E+04   -.481E+02 0.304E+02 -.166E+04   0.477E+00 0.686E+00 0.274E+00   -.139E-02 -.370E-01 0.470E-01
   0.226E+03 -.377E+02 0.143E+04   -.226E+03 0.383E+02 -.143E+04   0.232E+00 -.592E+00 0.313E+00   0.104E+00 0.453E-01 0.132E+00
   0.356E+02 0.110E+03 0.141E+03   -.363E+02 -.109E+03 -.140E+03   0.644E+00 -.516E+00 -.326E+00   -.257E-01 -.198E-01 0.140E-01
   0.733E+01 0.840E+02 -.158E+04   -.686E+01 -.841E+02 0.158E+04   -.439E+00 0.275E-01 0.596E+00   -.107E-01 -.326E-01 -.105E-01
   -.612E+02 0.227E+02 -.164E+04   0.608E+02 -.226E+02 0.164E+04   0.741E+00 -.303E-02 0.139E+01   -.173E+00 -.442E-01 -.111E+00
   0.454E+02 0.178E+03 0.320E+04   -.451E+02 -.177E+03 -.320E+04   -.316E+00 -.337E+00 -.375E+01   -.427E-02 0.781E-02 -.143E-02
   -.849E+02 -.102E+03 0.324E+04   0.838E+02 0.102E+03 -.324E+04   0.111E+01 -.395E+00 -.412E+01   -.401E-02 -.737E-01 0.391E-01
   0.133E+03 -.940E+01 0.708E+02   -.133E+03 0.929E+01 -.699E+02   0.277E+00 -.286E-01 -.105E+01   0.101E+00 0.532E-01 -.359E-02
   -.148E+03 -.160E+02 -.292E+02   0.148E+03 0.156E+02 0.295E+02   0.403E+00 0.401E+00 -.339E+00   -.359E-02 -.293E-02 -.251E-01
   0.146E+02 0.176E+03 0.163E+04   -.146E+02 -.175E+03 -.162E+04   0.120E+00 -.925E+00 -.114E+01   0.180E-02 -.325E-01 0.256E-01
   0.557E+02 -.421E+02 -.137E+02   -.552E+02 0.409E+02 0.137E+02   -.448E+00 0.129E+01 -.148E+00   -.429E-01 0.515E-01 0.434E-02
   0.879E+02 -.352E+01 0.214E+02   -.874E+02 0.332E+01 -.210E+02   -.635E+00 0.166E+00 -.370E+00   0.154E-01 0.263E-01 0.235E-01
   -.144E+03 -.260E+02 0.148E+04   0.144E+03 0.263E+02 -.148E+04   0.507E+00 -.318E+00 -.685E+00   -.273E-01 0.670E-01 -.108E-01
   -.764E+02 -.882E+00 0.153E+04   0.769E+02 0.582E+00 -.153E+04   -.518E+00 0.313E+00 -.633E+00   0.714E-02 -.250E-01 0.260E-01
   -.215E+03 -.698E+02 0.295E+04   0.214E+03 0.692E+02 -.294E+04   0.681E+00 0.548E+00 -.312E+01   -.547E-01 0.209E-01 0.331E-01
   0.131E+03 -.728E+02 0.291E+04   -.131E+03 0.730E+02 -.290E+04   0.765E+00 -.150E+00 -.134E+01   0.647E-01 0.119E-01 0.555E-01
   0.391E+02 -.428E+02 0.150E+04   -.388E+02 0.427E+02 -.150E+04   -.366E+00 0.125E+00 0.590E-01   0.372E-01 0.922E-02 0.145E+00
   0.133E+03 0.292E+02 0.141E+04   -.132E+03 -.293E+02 -.141E+04   -.103E+01 0.310E-01 -.781E+00   0.450E-01 0.548E-01 0.685E-01
   -.319E+02 -.334E+02 -.152E+04   0.318E+02 0.336E+02 0.152E+04   0.143E+00 -.232E+00 0.339E-01   -.569E-01 0.376E-01 -.507E-01
   -.461E+02 0.259E+02 0.292E+04   0.463E+02 -.253E+02 -.292E+04   -.255E+00 -.617E+00 -.181E+01   -.571E-02 0.620E-01 -.556E-03
   -.444E+02 0.158E+03 0.580E+02   0.447E+02 -.158E+03 -.574E+02   -.332E+00 -.151E+00 -.638E+00   0.475E-01 -.809E-01 0.327E-01
   -.103E+02 0.502E+02 -.744E+02   0.104E+02 -.494E+02 0.742E+02   0.982E-01 -.857E+00 -.342E-01   -.127E+00 0.459E-02 0.745E-01
   0.150E+03 -.912E+01 -.109E+03   -.150E+03 0.983E+01 0.109E+03   -.243E+00 -.762E+00 -.435E+00   0.125E+00 0.140E-02 0.125E+00
   -.428E+02 -.109E+03 0.265E+02   0.424E+02 0.108E+03 -.265E+02   0.387E+00 0.473E+00 -.909E-01   -.513E-01 -.994E-01 0.162E-01
   -.137E+01 -.188E+01 -.330E+03   0.162E+01 0.214E+01 0.332E+03   -.221E+00 -.280E+00 -.177E+01   -.632E-02 0.263E-02 -.130E-02
 -----------------------------------------------------------------------------------------------
   -.233E+01 0.713E+00 0.646E+01   0.201E-12 -.241E-12 0.147E-10   0.236E+01 -.673E+00 -.651E+01   -.474E-01 -.112E-01 0.675E-01
 
 
 POSITION                                       TOTAL-FORCE (eV/Angst)
 -----------------------------------------------------------------------------------
     13.66723      8.51395      6.75005        -0.004248     -0.003839     -0.003960
      5.33337      8.50218      6.64225        -0.001458      0.000333      0.009576
      5.18228      3.61610      6.91042         0.003749     -0.002362     -0.008735
     15.13128      9.32175      8.97491        -0.016026      0.007182      0.006333
      3.87861      4.54545      9.12735         0.003981     -0.007252     -0.003345
      6.71933      9.25476      8.97981         0.009199      0.002629      0.017242
     12.32836      4.38350      9.16103         0.003444     -0.001398     -0.004750
      9.49798      9.29090      9.10030         0.003439     -0.000775      0.007655
     10.90818      2.03112      8.99319         0.001755     -0.004233     -0.008697
      2.60657      2.06233      9.09133         0.003085      0.008597     -0.010819
     12.31968      9.26003      9.05964        -0.009739     -0.002090     -0.004422
     13.71910      6.91570      9.10868         0.000496      0.000415      0.013825
      5.34435      1.97955      9.13043        -0.001037     -0.007792      0.004798
      8.10533      6.89907      9.04373         0.002557     -0.004824     -0.002684
      9.51148      4.44609      9.17524         0.015822      0.018535      0.007719
      5.29760      6.87866      9.07336        -0.000818     -0.001609      0.003126
      8.14219      2.02046      9.05358        -0.004180     -0.000948      0.008769
      8.17768      3.66801      6.91456        -0.005508      0.011525     -0.027308
      6.63584      1.22582      6.83020        -0.001452     -0.007233      0.000833
      6.81576      1.21382      1.22367         0.018855     -0.016916      0.003533
      3.60826      4.21917      2.73718        -0.015022      0.008161      0.008908
      1.29124      1.29563      6.83045        -0.002157      0.003428      0.010768
      0.97937      1.20745      0.89042        -0.013907      0.027071      0.002763
      6.78425      9.23268      3.03989         0.005551      0.008914      0.037311
      6.67197      4.44221      9.11635        -0.009305      0.012636      0.003887
      8.18415      5.37861      4.87400         0.040668     -0.004996      0.047442
     10.89913      6.91580      9.18445        -0.007265     -0.013048     -0.003795
     14.91365      7.44981      4.65393         0.010150     -0.011508     -0.030841
     12.35798      6.03510      6.95789         0.000530     -0.006525     -0.012874
      6.61735      6.06617      6.85085        -0.003786      0.007984      0.008117
      3.64940      2.63239      4.96473        -0.008089      0.018049     -0.036185
     10.90632      5.37499      4.87665        -0.056347      0.000921      0.003445
      3.94412      6.12749      6.93821         0.007452      0.001605      0.012673
     13.66583      8.30907      1.32706        -0.019721     -0.009217      0.004271
      5.33050      8.31981      1.15774         0.001184     -0.011289     -0.009267
      4.15137      6.25096      1.35263        -0.011596     -0.008027     -0.008341
      8.31382      2.30686      2.94581        -0.012952     -0.028031     -0.010217
      9.55955      9.18725      2.98660        -0.005766      0.009076     -0.006321
      2.50008      3.72336      7.04130        -0.015028     -0.001823     -0.007955
     13.11834      3.56071      0.96848        -0.005003     -0.000786      0.006380
     10.85546      2.11101      2.92734        -0.005591     -0.007851      0.005311
     13.60960      5.17381      4.89082        -0.026004      0.006909      0.032947
      3.98418      1.10624      7.01493         0.001650      0.003457      0.007826
      9.54643      6.03790      7.06809        -0.003801     -0.008682      0.012668
      3.72295      1.02177      1.14775         0.011483      0.019331      0.002822
      9.52897      6.08620      1.06190         0.010431     -0.026971     -0.017357
      5.57467      3.88692      1.24062         0.001014      0.031145     -0.003514
     12.20371      9.09515      3.04645         0.002926     -0.006611      0.014469
     12.23941      7.60867      4.84512        -0.017522      0.004099     -0.001477
     13.27602      6.57845      2.88759        -0.008710      0.005888      0.010431
      9.50663      4.54405      2.86078        -0.016160      0.003542      0.032342
      8.22530      8.49909      6.98353         0.006142     -0.006186     -0.001649
      8.25881      8.48561      1.05092        -0.014878      0.024996     -0.026900
     10.82063      6.97853      2.87480         0.011002     -0.002712      0.013792
      2.73446      0.20477      5.02604         0.016538      0.017495     -0.040363
      8.12045      3.73171      0.90507        -0.015186     -0.019838     -0.000287
      5.22590      1.98656      3.04205         0.002100      0.020119     -0.015497
      5.74604      6.79715      3.19720         0.003032     -0.010576      0.019300
      8.10302      0.61407      4.82325         0.007311     -0.006979     -0.008964
      9.53009      1.27338      6.84942         0.010078      0.002644     -0.003249
     10.89617      8.42566      6.96233         0.007011     -0.002626     -0.004070
      9.45814      1.21436      0.94142         0.005690      0.010770      0.007688
     10.92369      8.53630      0.96035         0.022507      0.003908     -0.003386
      5.18311      5.07718      4.82785        -0.001834     -0.018711     -0.012791
     12.18992      2.95028      4.94440        -0.000861      0.031082     -0.010933
     15.12750      9.48115      3.01305         0.018076      0.016800      0.010742
      9.62342      2.92429      4.96778         0.005236     -0.007887     -0.003749
      6.71700      2.86959      4.87447        -0.018474     -0.026288     -0.046021
     12.08786      4.33093      2.89997         0.000918     -0.008900     -0.000736
      2.36955      1.91053      2.94325         0.007045     -0.018195     -0.007831
     12.00821      5.89283      1.01651        -0.005412     -0.000364     -0.015299
      6.79951      6.06260      1.14952         0.023468     -0.020367      0.002107
      8.29854      6.94668      2.92447         0.018919      0.024378      0.006962
      6.91972      4.39763      2.97376         0.007502      0.002722      0.012137
     10.93797      3.76671      7.01395         0.000030      0.002601     -0.005055
     10.70385      3.55782      0.99591        -0.021130     -0.009616     -0.004505
     10.94963      0.69951      4.87913         0.001215     -0.005711     -0.030478
      9.61422      7.69602      5.00361        -0.003626     -0.013242      0.020810
      7.08463      7.72063      5.00857         0.002638     -0.002632      0.006647
      5.25680      0.23778      4.94587         0.027262      0.029297      0.014831
     10.22533      5.59942     10.22403         0.026458     -0.020781      0.001422
 -----------------------------------------------------------------------------------
    total drift:                               -0.016373      0.029659      0.016530


--------------------------------------------------------------------------------------------------------



  FREE ENERGIE OF THE ION-ELECTRON SYSTEM (eV)
  ---------------------------------------------------
  free  energy   TOTEN  =      -502.81701790 eV

  energy  without entropy=     -502.83082967  energy(sigma->0) =     -502.82162182
 
 d Force = 0.9358572E-03[ 0.203E-03, 0.167E-02]  d Energy = 0.8579325E-03 0.779E-04
 d Force = 0.1207865E+02[ 0.121E+02, 0.121E+02]  d Ewald  = 0.1207866E+02-0.989E-05


--------------------------------------------------------------------------------------------------------


    POTLOK:  cpu time    0.4584: real time    0.4605


--------------------------------------------------------------------------------------------------------


 Conjugate gradient step on ions:
 trial-energy change:   -0.000858  1 .order   -0.000936   -0.001669   -0.000203
  (g-gl).g = 0.695E-03      g.g   = 0.934E-03  gl.gl    = 0.210E-02
 g(Force)  = 0.934E-03   g(Stress)= 0.000E+00 ortho     = 0.513E-04
 gamma     =   0.33167
 trial     =   1.75479
 opt step  =   2.15436  (harmonic =   1.99788) maximal distance =0.00920868
 next E    =  -502.817040   (d E  =  -0.00088)


--------------------------------------------------------------------------------------------------------


  
 reached required accuracy - stopping structural energy minimisation
     LOOP+:  cpu time  738.3931: real time  741.7175
    4ORBIT:  cpu time    0.0000: real time    0.0000

 total amount of memory used by VASP MPI-rank0   251625. kBytes
=======================================================================

   base      :      30000. kBytes
   nonlr-proj:      36168. kBytes
   fftplans  :      18294. kBytes
   grid      :      55120. kBytes
   one-center:        653. kBytes
   wavefun   :     111390. kBytes
 
  
  
 General timing and accounting informations for this job:
 ========================================================
  
                  Total CPU time used (sec):    14974.868
                            User time (sec):    14579.232
                          System time (sec):      395.636
                         Elapsed time (sec):    15193.087
  
                   Maximum memory used (kb):      441144.
                   Average memory used (kb):           0.
  
                          Minor page faults:      3340099
                          Major page faults:          216
                 Voluntary context switches:         9329
