 vasp.5.4.4.18Apr17-6-g9f103f2a35 (build Oct 25 2019 11:13:22) complex          
  
 executed on             LinuxIFC date 2022.02.05  09:06:07
 running on   48 total cores
 distrk:  each k-point on   48 cores,    1 groups
 distr:  one band on NCORES_PER_BAND=   1 cores,   48 groups


--------------------------------------------------------------------------------------------------------


 INCAR:
 POTCAR:    PAW_PBE Pt 04Feb2005                  
 POTCAR:    PAW_PBE Fe 06Sep2000                  
 POTCAR:    PAW_PBE Co 02Aug2007                  
 POTCAR:    PAW_PBE Cu 22Jun2005                  
 POTCAR:    PAW_PBE Ni 02Aug2007                  
 POTCAR:    PAW_PBE H 15Jun2001                   

 ----------------------------------------------------------------------------- 
|                                                                             |
|           W    W    AA    RRRRR   N    N  II  N    N   GGGG   !!!           |
|           W    W   A  A   R    R  NN   N  II  NN   N  G    G  !!!           |
|           W    W  A    A  R    R  N N  N  II  N N  N  G       !!!           |
|           W WW W  AAAAAA  RRRRR   N  N N  II  N  N N  G  GGG   !            |
|           WW  WW  A    A  R   R   N   NN  II  N   NN  G    G                |
|           W    W  A    A  R    R  N    N  II  N    N   GGGG   !!!           |
|                                                                             |
|      For optimal performance we recommend to set                            |
|        NCORE= 4 - approx SQRT( number of cores)                             |
|      NCORE specifies how many cores store one orbital (NPAR=cpu/NCORE).     |
|      This setting can  greatly improve the performance of VASP for DFT.     |
|      The default,   NCORE=1            might be grossly inefficient         |
|      on modern multi-core architectures or massively parallel machines.     |
|      Do your own testing !!!!                                               |
|      Unfortunately you need to use the default for GW and RPA calculations. |
|      (for HF NCORE is supported but not extensively tested yet)             |
|                                                                             |
 ----------------------------------------------------------------------------- 

 POTCAR:    PAW_PBE Pt 04Feb2005                  
   VRHFIN =Pt: s1d9                                                             
   LEXCH  = PE                                                                  
   EATOM  =   729.1176 eV,   53.5886 Ry                                         
                                                                                
   TITEL  = PAW_PBE Pt 04Feb2005                                                
   LULTRA =        F    use ultrasoft PP ?                                      
   IUNSCR =        1    unscreen: 0-lin 1-nonlin 2-no                           
   RPACOR =    2.330    partial core radius                                     
   POMASS =  195.080; ZVAL   =   10.000    mass and valenz                      
   RCORE  =    2.600    outmost cutoff radius                                   
   RWIGS  =    2.750; RWIGS  =    1.455    wigner-seitz radius (au A)           
   ENMAX  =  230.283; ENMIN  =  172.712 eV                                      
   ICORE  =        3    local potential                                         
   LCOR   =        T    correct aug charges                                     
   LPAW   =        T    paw PP                                                  
   EAUG   =  358.966                                                            
   DEXC   =    0.000                                                            
   RMAX   =    2.658    core radius for proj-oper                               
   RAUG   =    1.300    factor for augmentation sphere                          
   RDEP   =    2.761    radius for radial grids                                 
   RDEPT  =    2.203    core radius for aug-charge                              
                                                                                
   Atomic configuration                                                         
   16 entries                                                                   
     n  l   j            E        occ.                                          
     1  0  0.50    -78401.1885   2.0000                                         
     2  0  0.50    -13770.7750   2.0000                                         
     2  1  1.50    -11931.0468   6.0000                                         
     3  0  0.50     -3234.7234   2.0000                                         
     3  1  1.50     -2699.2216   6.0000                                         
     3  2  2.50     -2119.5714  10.0000                                         
     4  0  0.50      -695.1528   2.0000                                         
     4  1  1.50      -519.6034   6.0000                                         
     4  2  2.50      -306.6786  10.0000                                         
     4  3  3.50       -70.1041  14.0000                                         
     5  0  0.50      -101.7747   2.0000                                         
     5  1  1.50       -55.9873   6.0000                                         
     5  2  2.50        -6.1423   9.0000                                         
     6  0  0.50        -5.6573   1.0000                                         
     6  1  1.50        -6.8029   0.0000                                         
     5  3  2.50        -1.3606   0.0000                                         
   Description                                                                  
     l       E           TYP  RCUT    TYP  RCUT                                 
     2     -6.1423404     23  2.500                                             
     2     -7.5029230     23  2.500                                             
     0     -5.6573207     23  2.500                                             
     0      0.7416693     23  2.500                                             
     1     -2.7211652     23  2.600                                             
     1     20.4087390     23  2.600                                             
     3     -1.3605826     23  2.500                                             
  local pseudopotential read in
  partial core-charges read in
  partial kinetic energy density read in
  atomic valenz-charges read in
  non local Contribution for L=           2  read in
    real space projection operators read in
  non local Contribution for L=           2  read in
    real space projection operators read in
  non local Contribution for L=           0  read in
    real space projection operators read in
  non local Contribution for L=           0  read in
    real space projection operators read in
  non local Contribution for L=           1  read in
    real space projection operators read in
  non local Contribution for L=           1  read in
    real space projection operators read in
    PAW grid and wavefunctions read in
 
   number of l-projection  operators is LMAX  =           6
   number of lm-projection operators is LMMAX =          18
 
 POTCAR:    PAW_PBE Fe 06Sep2000                  
   VRHFIN =Fe:  d7 s1                                                           
   LEXCH  = PE                                                                  
   EATOM  =   594.3153 eV,   43.6809 Ry                                         
                                                                                
   TITEL  = PAW_PBE Fe 06Sep2000                                                
   LULTRA =        F    use ultrasoft PP ?                                      
   IUNSCR =        1    unscreen: 0-lin 1-nonlin 2-no                           
   RPACOR =    2.000    partial core radius                                     
   POMASS =   55.847; ZVAL   =    8.000    mass and valenz                      
   RCORE  =    2.300    outmost cutoff radius                                   
   RWIGS  =    2.460; RWIGS  =    1.302    wigner-seitz radius (au A)           
   ENMAX  =  267.882; ENMIN  =  200.911 eV                                      
   RCLOC  =    1.701    cutoff for local pot                                    
   LCOR   =        T    correct aug charges                                     
   LPAW   =        T    paw PP                                                  
   EAUG   =  511.368                                                            
   DEXC   =    0.000                                                            
   RMAX   =    2.356    core radius for proj-oper                               
   RAUG   =    1.300    factor for augmentation sphere                          
   RDEP   =    2.442    radius for radial grids                                 
   RDEPT  =    1.890    core radius for aug-charge                              
                                                                                
   Atomic configuration                                                         
    9 entries                                                                   
     n  l   j            E        occ.                                          
     1  0  0.50     -6993.8440   2.0000                                         
     2  0  0.50      -814.6047   2.0000                                         
     2  1  1.50      -693.3689   6.0000                                         
     3  0  0.50       -89.4732   2.0000                                         
     3  1  1.50       -55.6373   6.0000                                         
     3  2  2.50        -3.8151   7.0000                                         
     4  0  0.50        -4.2551   1.0000                                         
     4  1  1.50        -3.4015   0.0000                                         
     4  3  2.50        -1.3606   0.0000                                         
   Description                                                                  
     l       E           TYP  RCUT    TYP  RCUT                                 
     2     -3.8151135     23  2.300                                             
     2     -5.1756961     23  2.300                                             
     0     -4.2550963     23  2.300                                             
     0      7.2035603     23  2.300                                             
     1     -2.7211652     23  2.300                                             
     1     18.4316424     23  2.300                                             
  local pseudopotential read in
  partial core-charges read in
  partial kinetic energy density read in
  atomic valenz-charges read in
  non local Contribution for L=           2  read in
    real space projection operators read in
  non local Contribution for L=           2  read in
    real space projection operators read in
  non local Contribution for L=           0  read in
    real space projection operators read in
  non local Contribution for L=           0  read in
    real space projection operators read in
  non local Contribution for L=           1  read in
    real space projection operators read in
  non local Contribution for L=           1  read in
    real space projection operators read in
    PAW grid and wavefunctions read in
 
   number of l-projection  operators is LMAX  =           6
   number of lm-projection operators is LMMAX =          18
 
 POTCAR:    PAW_PBE Co 02Aug2007                  
   VRHFIN =Co: d8 s1                                                            
   LEXCH  = PE                                                                  
   EATOM  =   813.3670 eV,   59.7808 Ry                                         
                                                                                
   TITEL  = PAW_PBE Co 02Aug2007                                                
   LULTRA =        F    use ultrasoft PP ?                                      
   IUNSCR =        1    unscreen: 0-lin 1-nonlin 2-no                           
   RPACOR =    2.000    partial core radius                                     
   POMASS =   58.933; ZVAL   =    9.000    mass and valenz                      
   RCORE  =    2.300    outmost cutoff radius                                   
   RWIGS  =    2.460; RWIGS  =    1.302    wigner-seitz radius (au A)           
   ENMAX  =  267.968; ENMIN  =  200.976 eV                                      
   RCLOC  =    1.203    cutoff for local pot                                    
   LCOR   =        T    correct aug charges                                     
   LPAW   =        T    paw PP                                                  
   EAUG   =  477.818                                                            
   DEXC   =    0.000                                                            
   RMAX   =    2.360    core radius for proj-oper                               
   RAUG   =    1.300    factor for augmentation sphere                          
   RDEP   =    2.393    radius for radial grids                                 
   RDEPT  =    1.864    core radius for aug-charge                              
                                                                                
   Atomic configuration                                                         
    9 entries                                                                   
     n  l   j            E        occ.                                          
     1  0  0.50     -7587.6674   2.0000                                         
     2  0  0.50      -893.6084   2.0000                                         
     2  1  1.50      -764.5805   6.0000                                         
     3  0  0.50       -97.5973   2.0000                                         
     3  1  1.50       -60.9648   6.0000                                         
     3  2  2.50        -4.2382   8.0000                                         
     4  0  0.50        -4.3746   1.0000                                         
     4  1  1.50        -4.0817   0.0000                                         
     4  3  2.50        -1.3606   0.0000                                         
   Description                                                                  
     l       E           TYP  RCUT    TYP  RCUT                                 
     2     -4.2382362     23  2.300                                             
     2     -5.5988188     23  2.300                                             
     0     -4.3745797     23  2.300                                             
     0      5.7660125     23  2.300                                             
     1     -2.7211652     23  2.300                                             
     1     16.9860234     23  2.300                                             
  local pseudopotential read in
  partial core-charges read in
  partial kinetic energy density read in
  atomic valenz-charges read in
  non local Contribution for L=           2  read in
    real space projection operators read in
  non local Contribution for L=           2  read in
    real space projection operators read in
  non local Contribution for L=           0  read in
    real space projection operators read in
  non local Contribution for L=           0  read in
    real space projection operators read in
  non local Contribution for L=           1  read in
    real space projection operators read in
  non local Contribution for L=           1  read in
    real space projection operators read in
    PAW grid and wavefunctions read in
 
   number of l-projection  operators is LMAX  =           6
   number of lm-projection operators is LMMAX =          18
 
 POTCAR:    PAW_PBE Cu 22Jun2005                  
   VRHFIN =Cu: d10 p1                                                           
   LEXCH  = PE                                                                  
   EATOM  =  1390.9808 eV,  102.2342 Ry                                         
                                                                                
   TITEL  = PAW_PBE Cu 22Jun2005                                                
   LULTRA =        F    use ultrasoft PP ?                                      
   IUNSCR =        1    unscreen: 0-lin 1-nonlin 2-no                           
   RPACOR =    2.000    partial core radius                                     
   POMASS =   63.546; ZVAL   =   11.000    mass and valenz                      
   RCORE  =    2.300    outmost cutoff radius                                   
   RWIGS  =    2.200; RWIGS  =    1.164    wigner-seitz radius (au A)           
   ENMAX  =  295.446; ENMIN  =  221.585 eV                                      
   ICORE  =        3    local potential                                         
   LCOR   =        T    correct aug charges                                     
   LPAW   =        T    paw PP                                                  
   EAUG   =  586.980                                                            
   DEXC   =    0.000                                                            
   RMAX   =    2.344    core radius for proj-oper                               
   RAUG   =    1.300    factor for augmentation sphere                          
   RDEP   =    2.302    radius for radial grids                                 
   RDEPT  =    1.771    core radius for aug-charge                              
                                                                                
   Atomic configuration                                                         
    9 entries                                                                   
     n  l   j            E        occ.                                          
     1  0  0.50     -8850.2468   2.0000                                         
     2  0  0.50     -1062.3498   2.0000                                         
     2  1  1.50      -916.8226   6.0000                                         
     3  0  0.50      -114.6929   2.0000                                         
     3  1  1.50       -72.1325   6.0000                                         
     3  2  2.50        -5.0394  10.0000                                         
     4  0  0.50        -4.6097   1.0000                                         
     4  1  0.50        -4.0817   0.0000                                         
     4  3  2.50        -1.3606   0.0000                                         
   Description                                                                  
     l       E           TYP  RCUT    TYP  RCUT                                 
     2     -5.0393973     23  2.200                                             
     2     10.8846608     23  2.200                                             
     0     -4.6097109     23  2.200                                             
     0      8.2520465     23  2.200                                             
     1     -2.7211652     23  2.200                                             
     1     21.7055443     23  2.200                                             
     3      2.7211652     23  2.300                                             
  local pseudopotential read in
  partial core-charges read in
  partial kinetic energy density read in
  atomic valenz-charges read in
  non local Contribution for L=           2  read in
    real space projection operators read in
  non local Contribution for L=           2  read in
    real space projection operators read in
  non local Contribution for L=           0  read in
    real space projection operators read in
  non local Contribution for L=           0  read in
    real space projection operators read in
  non local Contribution for L=           1  read in
    real space projection operators read in
  non local Contribution for L=           1  read in
    real space projection operators read in
    PAW grid and wavefunctions read in
 
   number of l-projection  operators is LMAX  =           6
   number of lm-projection operators is LMMAX =          18
 
 POTCAR:    PAW_PBE Ni 02Aug2007                  
   VRHFIN =Ni:                                                                  
   LEXCH  = PE                                                                  
   EATOM  =  1077.6739 eV,   79.2068 Ry                                         
                                                                                
   TITEL  = PAW_PBE Ni 02Aug2007                                                
   LULTRA =        F    use ultrasoft PP ?                                      
   IUNSCR =        1    unscreen: 0-lin 1-nonlin 2-no                           
   RPACOR =    2.000    partial core radius                                     
   POMASS =   58.690; ZVAL   =   10.000    mass and valenz                      
   RCORE  =    2.300    outmost cutoff radius                                   
   RWIGS  =    2.430; RWIGS  =    1.286    wigner-seitz radius (au A)           
   ENMAX  =  269.532; ENMIN  =  202.149 eV                                      
   RCLOC  =    1.201    cutoff for local pot                                    
   LCOR   =        T    correct aug charges                                     
   LPAW   =        T    paw PP                                                  
   EAUG   =  544.565                                                            
   DEXC   =    0.000                                                            
   RMAX   =    2.357    core radius for proj-oper                               
   RAUG   =    1.300    factor for augmentation sphere                          
   RDEP   =    2.390    radius for radial grids                                 
   RDEPT  =    1.838    core radius for aug-charge                              
                                                                                
   Atomic configuration                                                         
    9 entries                                                                   
     n  l   j            E        occ.                                          
     1  0  0.50     -8206.4253   2.0000                                         
     2  0  0.50      -976.1748   2.0000                                         
     2  1  1.50      -839.0571   6.0000                                         
     3  0  0.50      -105.9991   2.0000                                         
     3  1  1.50       -66.4603   6.0000                                         
     3  2  2.50        -4.6458   9.0000                                         
     4  0  0.50        -4.4926   1.0000                                         
     4  1  1.50        -4.0817   0.0000                                         
     4  3  2.50        -1.3606   0.0000                                         
   Description                                                                  
     l       E           TYP  RCUT    TYP  RCUT                                 
     2     -4.6457903     23  2.300                                             
     2     -6.0063729     23  2.300                                             
     0     -4.4925590     23  2.300                                             
     0      5.0102601     23  2.300                                             
     1     -2.7211652     23  2.300                                             
     1     16.5183231     23  2.300                                             
  local pseudopotential read in
  partial core-charges read in
  partial kinetic energy density read in
  atomic valenz-charges read in
  non local Contribution for L=           2  read in
    real space projection operators read in
  non local Contribution for L=           2  read in
    real space projection operators read in
  non local Contribution for L=           0  read in
    real space projection operators read in
  non local Contribution for L=           0  read in
    real space projection operators read in
  non local Contribution for L=           1  read in
    real space projection operators read in
  non local Contribution for L=           1  read in
    real space projection operators read in
    PAW grid and wavefunctions read in
 
   number of l-projection  operators is LMAX  =           6
   number of lm-projection operators is LMMAX =          18
 
 POTCAR:    PAW_PBE H 15Jun2001                   
   VRHFIN =H: ultrasoft test                                                    
   LEXCH  = PE                                                                  
   EATOM  =    12.4884 eV,    0.9179 Ry                                         
                                                                                
   TITEL  = PAW_PBE H 15Jun2001                                                 
   LULTRA =        F    use ultrasoft PP ?                                      
   IUNSCR =        0    unscreen: 0-lin 1-nonlin 2-no                           
   RPACOR =    0.000    partial core radius                                     
   POMASS =    1.000; ZVAL   =    1.000    mass and valenz                      
   RCORE  =    1.100    outmost cutoff radius                                   
   RWIGS  =    0.700; RWIGS  =    0.370    wigner-seitz radius (au A)           
   ENMAX  =  250.000; ENMIN  =  200.000 eV                                      
   RCLOC  =    0.701    cutoff for local pot                                    
   LCOR   =        T    correct aug charges                                     
   LPAW   =        T    paw PP                                                  
   EAUG   =  400.000                                                            
   RMAX   =    1.123    core radius for proj-oper                               
   RAUG   =    1.200    factor for augmentation sphere                          
   RDEP   =    1.112    radius for radial grids                                 
   RDEPT  =    0.926    core radius for aug-charge                              
                                                                                
   Atomic configuration                                                         
    2 entries                                                                   
     n  l   j            E        occ.                                          
     1  0  0.50        -6.4927   1.0000                                         
     2  1  0.50        -3.4015   0.0000                                         
   Description                                                                  
     l       E           TYP  RCUT    TYP  RCUT                                 
     0     -6.4927494     23  1.100                                             
     0      6.8029130     23  1.100                                             
     1     -4.0817478     23  1.100                                             
  local pseudopotential read in
  atomic valenz-charges read in
  non local Contribution for L=           0  read in
    real space projection operators read in
  non local Contribution for L=           0  read in
    real space projection operators read in
  non local Contribution for L=           1  read in
    real space projection operators read in
    PAW grid and wavefunctions read in
 
   number of l-projection  operators is LMAX  =           3
   number of lm-projection operators is LMMAX =           5
 
 Optimization of the real space projectors (new method)

 maximal supplied QI-value         = 14.36
 optimisation between [QCUT,QGAM] = [ 11.92, 23.98] = [ 39.79,161.09] Ry 
 Optimized for a Real-space Cutoff    1.49 Angstroem

   l    n(q)    QCUT    max X(q) W(low)/X(q) W(high)/X(q)  e(spline) 
   2     10    11.920    66.195    0.79E-04    0.18E-03    0.24E-06
   2     10    11.920    64.643    0.81E-04    0.19E-03    0.24E-06
   0     11    11.920    95.520    0.28E-04    0.54E-04    0.18E-06
   0     11    11.920    63.403    0.27E-04    0.52E-04    0.17E-06
   1     10    11.920    19.961    0.18E-04    0.11E-03    0.23E-06
   1     10    11.920    13.289    0.25E-04    0.87E-04    0.19E-06
 Optimization of the real space projectors (new method)

 maximal supplied QI-value         = 16.25
 optimisation between [QCUT,QGAM] = [ 11.86, 23.89] = [ 39.41,159.82] Ry 
 Optimized for a Real-space Cutoff    1.49 Angstroem

   l    n(q)    QCUT    max X(q) W(low)/X(q) W(high)/X(q)  e(spline) 
   2     10    11.864    80.901    0.13E-03    0.23E-03    0.37E-06
   2     10    11.864    75.754    0.13E-03    0.23E-03    0.38E-06
   0     11    11.864    58.752    0.44E-04    0.11E-04    0.20E-06
   0     11    11.864    30.679    0.36E-04    0.10E-04    0.18E-06
   1     10    11.864    17.977    0.31E-04    0.45E-04    0.10E-06
   1     10    11.864    13.559    0.25E-04    0.37E-04    0.89E-07
 Optimization of the real space projectors (new method)

 maximal supplied QI-value         = 16.25
 optimisation between [QCUT,QGAM] = [ 11.86, 23.89] = [ 39.41,159.82] Ry 
 Optimized for a Real-space Cutoff    1.33 Angstroem

   l    n(q)    QCUT    max X(q) W(low)/X(q) W(high)/X(q)  e(spline) 
   2      9    11.864    65.824    0.22E-03    0.53E-03    0.26E-06
   2      9    11.864    61.429    0.22E-03    0.53E-03    0.26E-06
   0      9    11.864    56.174    0.21E-03    0.32E-04    0.15E-06
   0      9    11.864    31.263    0.19E-03    0.30E-04    0.14E-06
   1      9    11.864    19.828    0.63E-04    0.30E-03    0.16E-06
   1      9    11.864    15.139    0.49E-04    0.25E-03    0.13E-06
 Optimization of the real space projectors (new method)

 maximal supplied QI-value         = 16.25
 optimisation between [QCUT,QGAM] = [ 11.86, 23.89] = [ 39.41,159.82] Ry 
 Optimized for a Real-space Cutoff    1.49 Angstroem

   l    n(q)    QCUT    max X(q) W(low)/X(q) W(high)/X(q)  e(spline) 
   2     10    11.864     4.610    0.10E-03    0.20E-03    0.29E-06
   2     10    11.864     8.522    0.17E-03    0.33E-03    0.50E-06
   0     11    11.864    51.609    0.52E-04    0.55E-04    0.33E-06
   0     11    11.864    27.747    0.46E-04    0.52E-04    0.31E-06
   1     10    11.864    20.408    0.54E-04    0.25E-04    0.21E-06
   1     10    11.864    13.425    0.48E-04    0.22E-04    0.18E-06
 Optimization of the real space projectors (new method)

 maximal supplied QI-value         = 16.25
 optimisation between [QCUT,QGAM] = [ 11.86, 23.89] = [ 39.41,159.82] Ry 
 Optimized for a Real-space Cutoff    1.33 Angstroem

   l    n(q)    QCUT    max X(q) W(low)/X(q) W(high)/X(q)  e(spline) 
   2      9    11.864    60.317    0.21E-03    0.51E-03    0.25E-06
   2      9    11.864    55.921    0.21E-03    0.51E-03    0.26E-06
   0      9    11.864    51.690    0.22E-03    0.30E-04    0.17E-06
   0      9    11.864    30.015    0.20E-03    0.28E-04    0.15E-06
   1      9    11.864    18.849    0.76E-04    0.33E-03    0.17E-06
   1      9    11.864    14.624    0.60E-04    0.28E-03    0.15E-06
 Optimization of the real space projectors (new method)

 maximal supplied QI-value         = 34.20
 optimisation between [QCUT,QGAM] = [ 11.97, 23.94] = [ 40.13,160.53] Ry 
 Optimized for a Real-space Cutoff    1.18 Angstroem

   l    n(q)    QCUT    max X(q) W(low)/X(q) W(high)/X(q)  e(spline) 
   0      8    11.971    19.460    0.15E-03    0.31E-03    0.25E-06
   0      8    11.971    12.209    0.13E-03    0.29E-03    0.25E-06
   1      8    11.971     4.655    0.22E-03    0.24E-03    0.21E-06
  PAW_PBE Pt 04Feb2005                  :
 energy of atom  1       EATOM= -729.1176
 kinetic energy error for atom=    0.0021 (will be added to EATOM!!)
  PAW_PBE Fe 06Sep2000                  :
 energy of atom  2       EATOM= -594.3153
 kinetic energy error for atom=    0.0024 (will be added to EATOM!!)
  PAW_PBE Co 02Aug2007                  :
 energy of atom  3       EATOM= -813.3670
 kinetic energy error for atom=    0.0026 (will be added to EATOM!!)
  PAW_PBE Cu 22Jun2005                  :
 energy of atom  4       EATOM=-1390.9808
 kinetic energy error for atom=    0.0036 (will be added to EATOM!!)
  PAW_PBE Ni 02Aug2007                  :
 energy of atom  5       EATOM=-1077.6739
 kinetic energy error for atom=    0.0027 (will be added to EATOM!!)
  PAW_PBE H 15Jun2001                   :
 energy of atom  6       EATOM=  -12.4884
 kinetic energy error for atom=    0.0008 (will be added to EATOM!!)
 
 
 POSCAR: 10.66                                   
  positions in cartesian coordinates
  No initial velocities read in
 exchange correlation table for  LEXCH =        8
   RHO(1)=    0.500       N(1)  =     2000
   RHO(2)=  100.500       N(2)  =     4000
 


--------------------------------------------------------------------------------------------------------


 ion  position               nearest neighbor table
   1  0.787  0.879  0.316-  49 2.61  28 2.62  59 2.64  19 2.66  61 2.68  33 2.68  29 2.69  60 2.70
                             2 2.75  11 2.76   4 2.80  12 2.84
   2  0.043  0.883  0.315-  79 2.55  77 2.59  60 2.65  30 2.67  28 2.67  52 2.68  33 2.70  22 2.71
                             1 2.75   6 2.77   4 2.81  16 2.88
   3  0.279  0.381  0.319-  64 2.57  39 2.58  33 2.61  31 2.63  68 2.71  19 2.72  30 2.74  43 2.74
                             5 2.77  13 2.79  18 2.84  25 2.85
   4  0.874  0.963  0.422-   6 2.64  17 2.65   9 2.65  11 2.65  12 2.68  16 2.69  60 2.78   1 2.80
                             2 2.81
   5  0.122  0.463  0.426-  10 2.64  12 2.64  16 2.64   7 2.65  25 2.69  13 2.71  39 2.72  33 2.72
                             3 2.77
   6  0.123  0.960  0.422-  81 1.77   4 2.64  16 2.65   9 2.69  14 2.69   8 2.73  10 2.73   2 2.77
                            52 2.80  22 2.88
   7  0.875  0.459  0.425-  15 2.63  10 2.64   9 2.65   5 2.65  27 2.67  39 2.68  12 2.68  75 2.75
                            29 2.78
   8  0.380  0.958  0.422-  81 1.85  27 2.62  43 2.63  11 2.64  14 2.66  13 2.67  61 2.73   6 2.73
                            10 2.73  52 2.74
   9  0.872  0.213  0.419-  15 2.64  17 2.64   7 2.65   4 2.65  75 2.67   6 2.69  10 2.70  60 2.71
                            22 2.79
  10  0.124  0.215  0.423-  81 1.97   7 2.64   5 2.64  13 2.66  39 2.68   9 2.70   6 2.73  43 2.73
                             8 2.73  22 2.80
  11  0.626  0.960  0.422-   8 2.64  12 2.65   4 2.65  17 2.66  13 2.66  27 2.67   1 2.76  61 2.82
                            19 2.82
  12  0.875  0.711  0.425-   5 2.64  11 2.65  16 2.66  27 2.67   7 2.68   4 2.68  33 2.69  29 2.80
                             1 2.84
  13  0.376  0.210  0.423-  10 2.66  17 2.66  11 2.66   8 2.67  25 2.67   5 2.71  43 2.74   3 2.79
                            19 2.80
  14  0.378  0.710  0.422-  27 2.63  15 2.65   8 2.66  25 2.66  44 2.67   6 2.69  16 2.70  52 2.74
                            30 2.75
  15  0.627  0.462  0.421-   7 2.63   9 2.64  27 2.64  14 2.65  17 2.68  44 2.69  25 2.69  75 2.71
                            18 2.76
  16  0.125  0.710  0.424-   5 2.64  25 2.65   6 2.65  12 2.66  33 2.67   4 2.69  14 2.70  30 2.81
                             2 2.88
  17  0.625  0.211  0.421-   9 2.64   4 2.65  13 2.66  11 2.66  25 2.67  15 2.68  18 2.75  60 2.77
                            19 2.86
  18  0.548  0.376  0.316-  67 2.56  60 2.61  75 2.63  68 2.65  26 2.66  44 2.67  30 2.73  19 2.75
                            17 2.75  15 2.76   3 2.84  25 2.87
  19  0.534  0.125  0.314-  80 2.54  68 2.57  43 2.59  59 2.60   1 2.66  61 2.66   3 2.72  18 2.75
                            60 2.79  13 2.80  11 2.82  17 2.86
  20  0.549  0.122  0.042-  37 2.55  57 2.55  48 2.57  62 2.66  63 2.70  34 2.71  45 2.73  47 2.74
                            56 2.74
  21  0.120  0.460  0.128-  40 2.52  36 2.53  47 2.53  42 2.60  64 2.62  69 2.62  70 2.66  50 2.67
                            58 2.71  31 2.72  57 2.74  74 2.75
  22  0.044  0.136  0.314-  65 2.52  55 2.54  77 2.58  43 2.59  39 2.60  75 2.64   2 2.71  60 2.72
                            52 2.75   9 2.79  10 2.80   6 2.88  31 3.40
  23  0.042  0.131  0.034-  70 2.57  40 2.60  41 2.61  45 2.64  62 2.65  76 2.65  24 2.69  35 2.76
                            53 2.81
  24  0.131  0.958  0.132-  79 2.51  77 2.54  35 2.57  53 2.58  55 2.59  70 2.64  38 2.66  58 2.66
                            73 2.67  23 2.69  66 2.73  41 2.75
  25  0.375  0.462  0.425-  16 2.65  14 2.66  17 2.67  13 2.67   5 2.69  15 2.69  30 2.83   3 2.85
                            18 2.87
  26  0.455  0.546  0.219-  73 2.50  74 2.55  51 2.55  79 2.63  30 2.65  64 2.66  18 2.66  68 2.69
                            78 2.69  32 2.70  44 2.74  67 2.75
  27  0.625  0.710  0.423-   8 2.62  14 2.63  15 2.64   7 2.67  12 2.67  11 2.67  44 2.70  61 2.76
                            29 2.78
  28  0.956  0.789  0.221-  58 2.55  50 2.57  66 2.57  42 2.62   1 2.62  49 2.63  64 2.66   2 2.67
                            33 2.70  59 2.74  79 2.81  77 2.82
  29  0.795  0.622  0.319-  42 2.55  39 2.56  75 2.60  32 2.62  33 2.67  49 2.68  44 2.68   1 2.69
                            61 2.70  27 2.78   7 2.78  12 2.80
  30  0.291  0.631  0.317-  79 2.55  64 2.60  52 2.64  26 2.65  44 2.65   2 2.67  33 2.67  18 2.73
                             3 2.74  14 2.75  16 2.81  25 2.83
  31  0.203  0.278  0.226-  70 2.51  55 2.57  65 2.59  57 2.60  43 2.61   3 2.63  39 2.66  80 2.71
                            21 2.72  42 2.74  68 2.79  64 2.84  22 3.40
  32  0.706  0.549  0.221-  54 2.54  69 2.56  51 2.58  49 2.60  29 2.62  42 2.63  78 2.64  65 2.65
                            75 2.68  44 2.68  26 2.70  67 2.72
  33  0.041  0.631  0.324-   3 2.61  39 2.67  29 2.67  16 2.67  30 2.67   1 2.68  12 2.69   2 2.70
                            64 2.70  28 2.70  42 2.72   5 2.72
  34  0.796  0.862  0.044-  50 2.39  66 2.51  48 2.52  36 2.55  71 2.58  63 2.62  20 2.71  62 2.79
                            35 2.80
  35  0.057  0.865  0.039-  58 2.54  72 2.55  36 2.56  24 2.57  66 2.62  53 2.68  23 2.76  62 2.76
                            34 2.80
  36  0.044  0.632  0.039-  21 2.53  34 2.55  35 2.56  58 2.58  50 2.59  47 2.67  72 2.69  71 2.74
                            40 2.76
  37  0.628  0.224  0.129-  51 2.51  67 2.52  56 2.52  74 2.53  20 2.55  68 2.56  59 2.56  41 2.57
                            62 2.59  66 2.69  57 2.76  48 2.95
  38  0.383  0.954  0.131-  53 2.46  80 2.47  45 2.47  78 2.53  73 2.56  63 2.56  48 2.56  54 2.58
                            55 2.59  57 2.65  24 2.66  70 2.70
  39  0.036  0.384  0.324-  29 2.56   3 2.58  22 2.60  75 2.61  42 2.65  31 2.66  33 2.67  10 2.68
                             7 2.68   5 2.72  65 2.74  43 2.82
  40  0.028  0.381  0.039-  69 2.42  21 2.52  71 2.54  76 2.54  70 2.56  23 2.60  36 2.76  45 2.84
                            47 2.85
  41  0.872  0.215  0.129-  76 2.45  65 2.52  77 2.53  67 2.53  37 2.57  62 2.57  69 2.59  23 2.61
                            51 2.61  70 2.68  66 2.68  24 2.75
  42  0.955  0.544  0.224-  50 2.55  29 2.55  69 2.59  21 2.60  28 2.62  32 2.63  39 2.65  65 2.65
                            49 2.66  64 2.69  33 2.72  31 2.74
  43  0.297  0.115  0.322-  55 2.54  52 2.56  61 2.58  19 2.59  22 2.59  31 2.61   8 2.63  80 2.67
                            10 2.73  13 2.74   3 2.74  39 2.82
  44  0.541  0.629  0.321-  61 2.59  52 2.61  78 2.62  30 2.65  18 2.67  14 2.67  29 2.68  75 2.68
                            32 2.68  15 2.69  27 2.70  26 2.74
  45  0.296  0.116  0.041-  38 2.47  70 2.49  57 2.57  53 2.58  23 2.64  63 2.65  20 2.73  47 2.83
                            40 2.84
  46  0.549  0.625  0.045-  51 2.38  73 2.39  54 2.41  71 2.57  53 2.59  63 2.60  76 2.62  56 2.63
                            72 2.66
  47  0.294  0.382  0.040-  74 2.41  21 2.53  57 2.64  72 2.65  56 2.66  36 2.67  20 2.74  45 2.83
                            40 2.85
  48  0.626  0.948  0.133-  49 2.40  54 2.48  80 2.49  34 2.52  59 2.55  63 2.56  38 2.56  20 2.57
                            50 2.58  57 2.68  66 2.72  37 2.95
  49  0.707  0.793  0.220-  48 2.40  50 2.48  54 2.49  80 2.56  32 2.60   1 2.61  78 2.63  28 2.63
                            61 2.64  42 2.66  29 2.68  59 2.73
  50  0.865  0.704  0.130-  34 2.39  71 2.42  49 2.48  54 2.49  42 2.55  28 2.57  48 2.58  69 2.58
                            36 2.59  21 2.67  66 2.81  58 2.90
  51  0.627  0.460  0.128-  46 2.38  76 2.44  56 2.51  37 2.51  26 2.55  32 2.58  41 2.61  67 2.62
                            73 2.63  69 2.64  74 2.65  54 2.72
  52  0.298  0.875  0.318-  55 2.43  79 2.53  78 2.53  61 2.55  43 2.56  44 2.61  30 2.64   2 2.68
                             8 2.74  14 2.74  22 2.75   6 2.80
  53  0.307  0.869  0.042-  73 2.42  38 2.46  63 2.57  24 2.58  45 2.58  46 2.59  72 2.61  35 2.68
                            23 2.81
  54  0.627  0.715  0.129-  46 2.41  71 2.46  63 2.48  48 2.48  49 2.49  50 2.49  32 2.54  38 2.58
                            73 2.58  78 2.62  69 2.70  51 2.72
  55  0.225  0.027  0.228-  52 2.43  78 2.47  79 2.50  80 2.53  22 2.54  43 2.54  31 2.57  38 2.59
                            24 2.59  70 2.73  77 2.74  65 2.90
  56  0.544  0.381  0.036-  74 2.50  51 2.51  37 2.52  76 2.61  46 2.63  72 2.64  47 2.66  62 2.72
                            20 2.74
  57  0.379  0.204  0.133-  68 2.46  80 2.54  20 2.55  45 2.57  31 2.60  47 2.64  38 2.65  74 2.66
                            70 2.66  48 2.68  21 2.74  37 2.76
  58  0.137  0.705  0.133-  72 2.46  64 2.50  35 2.54  28 2.55  79 2.57  36 2.58  74 2.66  24 2.66
                            73 2.70  21 2.71  50 2.90
  59  0.705  0.050  0.220-  66 2.52  48 2.55  37 2.56  19 2.60  67 2.61  68 2.61  60 2.61   1 2.64
                            77 2.69  80 2.71  49 2.73  28 2.74
  60  0.793  0.130  0.316-  67 2.52  77 2.57  59 2.61  18 2.61   2 2.65  75 2.66   1 2.70   9 2.71
                            22 2.72  17 2.77   4 2.78  19 2.79
  61  0.539  0.873  0.317-  78 2.49  80 2.53  52 2.55  43 2.58  44 2.59  49 2.64  19 2.66   1 2.68
                            29 2.70   8 2.73  27 2.76  11 2.82
  62  0.797  0.123  0.036-  66 2.53  41 2.57  37 2.59  23 2.65  20 2.66  76 2.68  56 2.72  35 2.76
                            34 2.79
  63  0.546  0.870  0.037-  54 2.48  38 2.56  48 2.56  53 2.57  46 2.60  34 2.62  71 2.63  45 2.65
                            20 2.70
  64  0.208  0.542  0.224-  58 2.50   3 2.57  30 2.60  21 2.62  28 2.66  26 2.66  68 2.66  74 2.67
                            42 2.69  33 2.70  79 2.76  31 2.84
  65  0.951  0.297  0.222-  22 2.52  69 2.52  41 2.52  67 2.56  77 2.58  31 2.59  75 2.60  70 2.61
                            32 2.65  42 2.65  39 2.74  55 2.90
  66  0.872  0.964  0.130-  34 2.51  59 2.52  62 2.53  28 2.57  77 2.58  35 2.62  41 2.68  37 2.69
                            48 2.72  24 2.73  50 2.81
  67  0.715  0.290  0.224-  37 2.52  60 2.52  41 2.53  77 2.55  65 2.56  18 2.56  59 2.61  75 2.62
                            51 2.62  32 2.72  68 2.74  26 2.75
  68  0.457  0.292  0.221-  57 2.46  74 2.53  37 2.56  19 2.57  59 2.61  18 2.65  64 2.66  26 2.69
                             3 2.71  67 2.74  80 2.78  31 2.79
  69  0.875  0.457  0.129-  40 2.42  71 2.45  76 2.46  65 2.52  32 2.56  50 2.58  41 2.59  42 2.59
                            21 2.62  51 2.64  70 2.68  54 2.70
  70  0.128  0.206  0.129-  45 2.49  31 2.51  40 2.56  23 2.57  65 2.61  24 2.64  21 2.66  57 2.66
                            41 2.68  69 2.68  38 2.70  55 2.73
  71  0.792  0.622  0.041-  50 2.42  69 2.45  54 2.46  40 2.54  46 2.57  34 2.58  76 2.61  63 2.63
                            36 2.74
  72  0.298  0.629  0.044-  74 2.46  58 2.46  73 2.47  35 2.55  53 2.61  56 2.64  47 2.65  46 2.66
                            36 2.69
  73  0.386  0.713  0.130-  46 2.39  53 2.42  72 2.47  26 2.50  78 2.55  38 2.56  54 2.58  79 2.63
                            51 2.63  24 2.67  58 2.70  74 2.80
  74  0.382  0.451  0.127-  47 2.41  72 2.46  56 2.50  37 2.53  68 2.53  26 2.55  51 2.65  57 2.66
                            58 2.66  64 2.67  21 2.75  73 2.80
  75  0.793  0.379  0.320-  65 2.60  29 2.60  39 2.61  67 2.62  18 2.63  22 2.64  60 2.66   9 2.67
                            44 2.68  32 2.68  15 2.71   7 2.75
  76  0.791  0.377  0.041-  51 2.44  41 2.45  69 2.46  40 2.54  56 2.61  71 2.61  46 2.62  23 2.65
                            62 2.68
  77  0.956  0.053  0.222-  41 2.53  24 2.54  67 2.55  60 2.57  65 2.58  66 2.58  22 2.58   2 2.59
                            59 2.69  79 2.74  55 2.74  28 2.82
  78  0.459  0.796  0.225-  55 2.47  61 2.49  80 2.50  52 2.53  38 2.53  73 2.55  79 2.59  54 2.62
                            44 2.62  49 2.63  32 2.64  26 2.69
  79  0.215  0.798  0.225-  55 2.50  24 2.51  52 2.53   2 2.55  30 2.55  58 2.57  78 2.59  73 2.63
                            26 2.63  77 2.74  64 2.76  28 2.81
  80  0.462  0.029  0.223-  38 2.47  48 2.49  78 2.50  61 2.53  55 2.53  57 2.54  19 2.54  49 2.56
                            43 2.67  59 2.71  31 2.71  68 2.78
  81  0.212  0.029  0.467-   6 1.77   8 1.85  10 1.97
 
  LATTYP: Found a hexagonal cell.
 ALAT       =    10.6599998474
 C/A-ratio  =     2.0637898982
  
  Lattice vectors:
  
 A1 = (   5.3299999237,  -9.2318306722,   0.0000000000)
 A2 = ( -10.6599998474,   0.0000000000,   0.0000000000)
 A3 = (   0.0000000000,   0.0000000000, -22.0000000000)


Analysis of symmetry for initial positions (statically):
=====================================================================
 Subroutine PRICEL returns:
 Original cell was already a primitive cell.
 

 Routine SETGRP: Setting up the symmetry group for a 
 hexagonal supercell.


 Subroutine GETGRP returns: Found  1 space group operations
 (whereof  1 operations were pure point group operations)
 out of a pool of 24 trial point group operations.


The static configuration has the point symmetry C_1 .


Analysis of symmetry for dynamics (positions and initial velocities):
=====================================================================
 Subroutine PRICEL returns:
 Original cell was already a primitive cell.
 

 Routine SETGRP: Setting up the symmetry group for a 
 hexagonal supercell.


 Subroutine GETGRP returns: Found  1 space group operations
 (whereof  1 operations were pure point group operations)
 out of a pool of 24 trial point group operations.


The dynamic configuration has the point symmetry C_1 .


Analysis of constrained symmetry for selective dynamics:
=====================================================================
 Subroutine PRICEL returns:
 Original cell was already a primitive cell.
 

 Routine SETGRP: Setting up the symmetry group for a 
 hexagonal supercell.


 Subroutine GETGRP returns: Found  1 space group operations
 (whereof  1 operations were pure point group operations)
 out of a pool of 24 trial point group operations.


The constrained configuration has the point symmetry C_1 .


Analysis of structural, dynamic, and magnetic symmetry:
=====================================================================
 Subroutine PRICEL returns:
 Original cell was already a primitive cell.
 

 Routine SETGRP: Setting up the symmetry group for a 
 hexagonal supercell.


 Subroutine GETGRP returns: Found  1 space group operations
 (whereof  1 operations were pure point group operations)
 out of a pool of 24 trial point group operations.


The magnetic configuration has the point symmetry C_1 .


 Subroutine INISYM returns: Found  1 space group operations
 (whereof  1 operations are pure point group operations),
 and found     1 'primitive' translations

 
 
 KPOINTS: mesh auto                               

Automatic generation of k-mesh.
Space group operators:
 irot       det(A)        alpha          n_x          n_y          n_z        tau_x        tau_y        tau_z
    1     1.000000     0.000000     1.000000     0.000000     0.000000     0.000000     0.000000     0.000000
 
 Subroutine IBZKPT returns following result:
 ===========================================
 
 Found      4 irreducible k-points:
 
 Following reciprocal coordinates:
            Coordinates               Weight
  0.000000  0.000000  0.000000      1.000000
  0.500000 -0.000000  0.000000      1.000000
  0.000000  0.500000  0.000000      1.000000
  0.500000  0.500000  0.000000      1.000000
 
 Following cartesian coordinates:
            Coordinates               Weight
  0.000000  0.000000  0.000000      1.000000
  0.046904 -0.027080  0.000000      1.000000
  0.000000  0.054160  0.000000      1.000000
  0.046904  0.027080  0.000000      1.000000
 
 TETIRR: Found     12 inequivalent tetrahedra from       24
 
 Subroutine IBZKPT_HF returns following result:
 ==============================================
 
 Found      4 k-points in 1st BZ
 the following      4 k-points will be used (e.g. in the exchange kernel)
 Following reciprocal coordinates:   # in IRBZ
  0.000000  0.000000  0.000000    0.25000000   1 t-inv F
  0.500000 -0.000000  0.000000    0.25000000   2 t-inv F
  0.000000  0.500000  0.000000    0.25000000   3 t-inv F
  0.500000  0.500000  0.000000    0.25000000   4 t-inv F


--------------------------------------------------------------------------------------------------------




 Dimension of arrays:
   k-points           NKPTS =      4   k-points in BZ     NKDIM =      4   number of bands    NBANDS=    624
   number of dos      NEDOS =    301   number of ions     NIONS =     81
   non local maximal  LDIM  =      6   non local SUM 2l+1 LMDIM =     18
   total plane-waves  NPLWV = ******
   max r-space proj   IRMAX =   7657   max aug-charges    IRDMAX=  33358
   dimension x,y,z NGX =    84 NGY =   84 NGZ =  168
   dimension x,y,z NGXF=   168 NGYF=  168 NGZF=  336
   support grid    NGXF=   168 NGYF=  168 NGZF=  336
   ions per type =              32  13  10  13  12   1
   NGX,Y,Z   is equivalent  to a cutoff of  13.10, 13.10, 12.70 a.u.
   NGXF,Y,Z  is equivalent  to a cutoff of  26.20, 26.20, 25.39 a.u.

 SYSTEM =  Pt111                                   
 POSCAR =  10.66                                   

 Startparameter for this run:
   NWRITE =      2    write-flag & timer
   PREC   = accura    normal or accurate (medium, high low for compatibility)
   ISTART =      0    job   : 0-new  1-cont  2-samecut
   ICHARG =      2    charge: 1-file 2-atom 10-const
   ISPIN  =      2    spin polarized calculation?
   LNONCOLLINEAR =      F non collinear calculations
   LSORBIT =      F    spin-orbit coupling
   INIWAV =      1    electr: 0-lowe 1-rand  2-diag
   LASPH  =      F    aspherical Exc in radial PAW
   METAGGA=      F    non-selfconsistent MetaGGA calc.

 Electronic Relaxation 1
   ENCUT  =  550.0 eV  40.42 Ry    6.36 a.u.  20.38 20.38 42.07*2*pi/ulx,y,z
   ENINI  =  550.0     initial cutoff
   ENAUG  =  587.0 eV  augmentation charge cutoff
   NELM   =    200;   NELMIN=  2; NELMDL= -5     # of ELM steps 
   EDIFF  = 0.1E-04   stopping-criterion for ELM
   LREAL  =      T    real-space projection
   NLSPLINE    = F    spline interpolate recip. space projectors
   LCOMPAT=      F    compatible to vasp.4.4
   GGA_COMPAT  = T    GGA compatible to vasp.4.4-vasp.4.6
   LMAXPAW     = -100 max onsite density
   LMAXMIX     =    2 max onsite mixed and CHGCAR
   VOSKOWN=      0    Vosko Wilk Nusair interpolation
   ROPT   =   -0.00025  -0.00025  -0.00025  -0.00025
   ROPT   =   -0.00025  -0.00025
 Ionic relaxation
   EDIFFG = -.5E-01   stopping-criterion for IOM
   NSW    =   1009    number of steps for IOM
   NBLOCK =      1;   KBLOCK =   1009    inner block; outer block 
   IBRION =      5    ionic relax: 0-MD 1-quasi-New 2-CG
   NFREE  =      2    steps in history (QN), initial steepest desc. (CG)
   ISIF   =      2    stress and relaxation
   IWAVPR =     11    prediction:  0-non 1-charg 2-wave 3-comb
   ISYM   =      2    0-nonsym 1-usesym 2-fastsym
   LCORR  =      T    Harris-Foulkes like correction to forces

   POTIM  = 0.5000    time-step for ionic-motion
   TEIN   =    0.0    initial temperature
   TEBEG  =    0.0;   TEEND  =   0.0 temperature during run
   SMASS  =  -3.00    Nose mass-parameter (am)
   estimated Nose-frequenzy (Omega)   =  0.10E-29 period in steps =****** mass=  -0.260E-26a.u.
   SCALEE = 1.0000    scale energy and forces
   NPACO  =    256;   APACO  = 16.0  distance and # of slots for P.C.
   PSTRESS=    0.0 pullay stress

  Mass of Ions in am
   POMASS = 195.08 55.85 58.93 63.55 58.69  1.00
  Ionic Valenz
   ZVAL   =  10.00  8.00  9.00 11.00 10.00  1.00
  Atomic Wigner-Seitz radii
   RWIGS  =  -1.00 -1.00 -1.00 -1.00 -1.00 -1.00
  virtual crystal weights 
   VCA    =   1.00  1.00  1.00  1.00  1.00  1.00
   NELECT =     778.0000    total number of electrons
   NUPDOWN=      -1.0000    fix difference up-down

 DOS related values:
   EMIN   =  10.00;   EMAX   =-10.00  energy-range for DOS
   EFERMI =   0.00
   ISMEAR =    -5;   SIGMA  =   0.10  broadening in eV -4-tet -1-fermi 0-gaus

 Electronic relaxation 2 (details)
   IALGO  =     68    algorithm
   LDIAG  =      T    sub-space diagonalisation (order eigenvalues)
   LSUBROT=      F    optimize rotation matrix (better conditioning)
   TURBO    =      0    0=normal 1=particle mesh
   IRESTART =      0    0=no restart 2=restart with 2 vectors
   NREBOOT  =      0    no. of reboots
   NMIN     =      0    reboot dimension
   EREF     =   0.00    reference energy to select bands
   IMIX   =      4    mixing-type and parameters
     AMIX     =   0.40;   BMIX     =  1.00
     AMIX_MAG =   1.60;   BMIX_MAG =  1.00
     AMIN     =   0.10
     WC   =   100.;   INIMIX=   1;  MIXPRE=   1;  MAXMIX= -45

 Intra band minimization:
   WEIMIN = 0.0010     energy-eigenvalue tresh-hold
   EBREAK =  0.40E-08  absolut break condition
   DEPER  =   0.30     relativ break condition  

   TIME   =   0.40     timestep for ELM

  volume/ion in A,a.u.               =      26.73       180.38
  Fermi-wavevector in a.u.,A,eV,Ry     =   1.163891  2.199434 18.431011  1.354641
  Thomas-Fermi vector in A             =   2.300435
 
 Write flags
   LWAVE        =      F    write WAVECAR
   LDOWNSAMPLE  =      F    k-point downsampling of WAVECAR
   LCHARG       =      F    write CHGCAR
   LVTOT        =      F    write LOCPOT, total local potential
   LVHAR        =      F    write LOCPOT, Hartree potential only
   LELF         =      F    write electronic localiz. function (ELF)
   LORBIT       =      0    0 simple, 1 ext, 2 COOP (PROOUT), +10 PAW based schemes


 Dipole corrections
   LMONO  =      F    monopole corrections only (constant potential shift)
   LDIPOL =      F    correct potential (dipole corrections)
   IDIPOL =      0    1-x, 2-y, 3-z, 4-all directions 
   EPSILON=  1.0000000 bulk dielectric constant

 Exchange correlation treatment:
   GGA     =    --    GGA type
   LEXCH   =     8    internal setting for exchange type
   VOSKOWN=      0    Vosko Wilk Nusair interpolation
   LHFCALC =     F    Hartree Fock is set to
   LHFONE  =     F    Hartree Fock one center treatment
   AEXX    =    0.0000 exact exchange contribution

 Linear response parameters
   LEPSILON=     F    determine dielectric tensor
   LRPA    =     F    only Hartree local field effects (RPA)
   LNABLA  =     F    use nabla operator in PAW spheres
   LVEL    =     F    velocity operator in full k-point grid
   LINTERFAST=   F  fast interpolation
   KINTER  =     0    interpolate to denser k-point grid
   CSHIFT  =0.1000    complex shift for real part using Kramers Kronig
   OMEGAMAX=  -1.0    maximum frequency
   DEG_THRESHOLD= 0.2000000E-02 threshold for treating states as degnerate
   RTIME   =   -0.100 relaxation time in fs
  (WPLASMAI=    0.000 imaginary part of plasma frequency in eV, 0.658/RTIME)
   DFIELD  = 0.0000000 0.0000000 0.0000000 field for delta impulse in time
 
 Orbital magnetization related:
   ORBITALMAG=     F  switch on orbital magnetization
   LCHIMAG   =     F  perturbation theory with respect to B field
   DQ        =  0.001000  dq finite difference perturbation B field
   LLRAUG    =     F  two centre corrections for induced B field



--------------------------------------------------------------------------------------------------------


 finite differences
   using selective dynamics as specified on POSCAR
   WARNING: If single coordinates had been selected the selection of coordinates
            is made according to the corresponding   d i r e c t   coordinates!
            Don't support selection of single cartesian coordinates -- sorry ...
  !
 charge density and potential will be updated during run
 spin polarized calculation
 RMM-DIIS sequential band-by-band and
  variant of blocked Davidson during initial phase
 perform sub-space diagonalisation
    before iterative eigenvector-optimisation
 modified Broyden-mixing scheme, WC =      100.0
 initial mixing is a Kerker type mixing with AMIX =  0.4000 and BMIX =      1.0000
 Hartree-type preconditioning will be used
 using additional bands          235
 real space projection scheme for non local part
 use partial core corrections
 calculate Harris-corrections to forces 
   (improved forces if not selfconsistent)
 use gradient corrections 
 use of overlap-Matrix (Vanderbilt PP)
 Fermi weights with tetrahedron method with Bloechl corrections


--------------------------------------------------------------------------------------------------------


  energy-cutoff  :      550.00
  volume of cell :     2165.05
      direct lattice vectors                 reciprocal lattice vectors
    10.659999847  0.000000000  0.000000000     0.093808632 -0.054160439  0.000000000
     5.329999924  9.231830672  0.000000000     0.000000000  0.108320878  0.000000000
     0.000000000  0.000000000 22.000000000     0.000000000  0.000000000  0.045454545

  length of vectors
    10.659999847 10.659999847 22.000000000     0.108320878  0.108320878  0.045454545


 
 k-points in units of 2pi/SCALE and weight: mesh auto                               
   0.00000000  0.00000000  0.00000000       0.250
   0.04690432 -0.02708022  0.00000000       0.250
   0.00000000  0.05416044  0.00000000       0.250
   0.04690432  0.02708022  0.00000000       0.250
 
 k-points in reciprocal lattice and weights: mesh auto                               
   0.00000000  0.00000000  0.00000000       0.250
   0.50000000 -0.00000000  0.00000000       0.250
   0.00000000  0.50000000  0.00000000       0.250
   0.50000000  0.50000000  0.00000000       0.250
 
 position of ions in fractional coordinates (direct lattice) 
   0.78674947  0.87931332  0.31623779
   0.04270392  0.88258487  0.31543688
   0.27917629  0.38078806  0.31855337
   0.87385572  0.96307317  0.42164620
   0.12169946  0.46341084  0.42594352
   0.12305203  0.95963495  0.42240244
   0.87469151  0.45941503  0.42488165
   0.37984625  0.95772714  0.42167231
   0.87201266  0.21255856  0.41879845
   0.12448729  0.21482982  0.42268135
   0.62622522  0.96035351  0.42210639
   0.87467876  0.71104638  0.42450204
   0.37606987  0.21006498  0.42290212
   0.37798666  0.70951775  0.42166349
   0.62659422  0.46165602  0.42116782
   0.12507270  0.70965741  0.42443254
   0.62503451  0.21077674  0.42074078
   0.54812833  0.37550642  0.31649432
   0.53399636  0.12473788  0.31415251
   0.54860226  0.12207837  0.04171946
   0.12037701  0.45967589  0.12832010
   0.04436380  0.13609397  0.31446439
   0.04184264  0.13051489  0.03430237
   0.13087669  0.95764103  0.13245935
   0.37457626  0.46165021  0.42463688
   0.45537746  0.54585669  0.21879613
   0.62455068  0.71027304  0.42257709
   0.95639685  0.78850546  0.22054855
   0.79523058  0.62245732  0.31853794
   0.29133501  0.63106829  0.31748668
   0.20270317  0.27838458  0.22551243
   0.70646823  0.54932776  0.22101627
   0.04070697  0.63130478  0.32408344
   0.79601056  0.86182010  0.04358326
   0.05654378  0.86511100  0.03922008
   0.04354811  0.63172365  0.03890931
   0.62768151  0.22351632  0.12936912
   0.38251648  0.95408414  0.13073287
   0.03617355  0.38353007  0.32366668
   0.02789537  0.38111357  0.03922688
   0.87238548  0.21524336  0.12909491
   0.95544580  0.54364816  0.22389785
   0.29660196  0.11544417  0.32205015
   0.54090852  0.62912769  0.32131230
   0.29593874  0.11566849  0.04109769
   0.54915757  0.62535345  0.04512996
   0.29444361  0.38188257  0.03954700
   0.62577798  0.94799811  0.13283874
   0.70687452  0.79345005  0.22030579
   0.86523064  0.70443471  0.12965162
   0.62674088  0.45978399  0.12791088
   0.29799086  0.87499707  0.31820761
   0.30656831  0.86859519  0.04153612
   0.62656079  0.71505450  0.12903147
   0.22538436  0.02703085  0.22804183
   0.54425403  0.38139876  0.03593963
   0.37883082  0.20414358  0.13341050
   0.13702030  0.70469682  0.13275664
   0.70486304  0.05049526  0.22024254
   0.79284266  0.12964662  0.31614137
   0.53864459  0.87295565  0.31725400
   0.79690904  0.12300803  0.03589815
   0.54639677  0.86991640  0.03703501
   0.20809844  0.54222241  0.22366446
   0.95145277  0.29690445  0.22191611
   0.87203635  0.96412677  0.12966428
   0.71538824  0.28985154  0.22355409
   0.45716744  0.29246466  0.22079126
   0.87549525  0.45703326  0.12894021
   0.12808024  0.20618715  0.12934578
   0.79201094  0.62176511  0.04149761
   0.29752238  0.62870438  0.04356032
   0.38614974  0.71252577  0.12966825
   0.38234618  0.45146388  0.12688447
   0.79329057  0.37923651  0.31981048
   0.79142063  0.37689392  0.04093851
   0.95640657  0.05277552  0.22177015
   0.45873657  0.79646328  0.22503412
   0.21485832  0.79803615  0.22500452
   0.46190381  0.02902916  0.22258105
   0.21152891  0.02949629  0.46726665
 
 position of ions in cartesian coordinates  (Angst):
  13.07348921  8.11767170  6.95723137
   5.15940112  8.14787411  6.93961131
   5.00561955  3.51537090  7.00817409
  14.44848176  8.89092845  9.27621631
   3.76729590  4.27813037  9.37075740
   6.42658877  8.85918734  9.29285369
  11.77289346  4.24124174  9.34739625
   9.15384651  8.84157478  9.27679075
  10.42859192  1.96230466  9.21356598
   2.47207738  1.98327248  9.29898962
  11.79424489  8.86582104  9.28634065
  13.11395257  6.56425979  9.33904491
   5.12855106  1.93928437  9.30384666
   7.81106735  6.55014775  9.27659672
   9.14012082  4.26193024  9.26569196
   5.11574891  6.55143708  9.33751589
   7.78630776  1.94585520  9.25629718
   7.84449707  3.46661169  6.96287498
   6.35725399  1.15155902  6.91135527
   6.49877769  1.12700682  0.91782815
   3.73329140  4.24365001  2.82304227
   1.19829894  1.25639650  6.91821653
   1.14168689  1.20489139  0.75465211
   6.49937211  8.84077982  2.91410569
   6.45357842  4.26187658  9.34201135
   7.76373977  5.03925654  4.81351490
  10.44346536  6.55712039  9.29669604
  14.39792433  7.27934891  4.85206806
  11.79485536  5.74642055  7.00783476
   6.46922511  5.82591560  6.98470700
   3.64460556  2.56999930  4.96127354
  10.45886815  5.07130088  4.86235796
   3.79879070  5.82809881  7.12983559
  13.07897347  7.95617723  0.95883175
   5.21379828  7.98655826  0.86284167
   3.83130979  5.83196573  0.85600479
   7.88242681  2.06346482  2.84612068
   9.16289403  8.80794326  2.87612304
   2.42982531  3.54068470  7.12066693
   2.32869997  3.51837592  0.86299137
  10.44687620  1.98709023  2.84008810
  13.08269677  5.01886773  4.92575259
   3.77709422  1.06576103  7.08510337
   9.11933525  5.80800034  7.06887052
   3.77121995  1.06783187  0.90414915
   9.18715339  5.77315714  0.99285907
   5.17420286  3.52547522  0.87003394
  11.72362308  8.75175804  2.92245229
  11.76437100  7.32499649  4.84672732
  12.97799537  6.50322193  2.85233561
   9.13170631  4.24464793  2.81403934
   7.84031685  8.07782478  7.00056746
   7.89763048  8.01872375  0.91379463
  10.49037833  6.60126203  2.83869239
   2.54667170  0.24954421  5.01692033
   7.83460323  3.52100880  0.79067188
   5.12642169  1.88461893  2.93503107
   5.21667036  6.50564171  2.92064609
   7.78297958  0.46616366  4.84533579
   9.14271917  1.19687568  6.95511017
  10.39480476  8.05897872  6.97958804
   9.15068307  1.13558928  0.78975929
  10.46124387  8.03092093  0.81477030
   5.10837469  5.00570548  4.92061819
  11.72498708  2.74097157  4.88215441
  14.43470298  8.90065509  2.85261421
   9.17094721  2.67586038  4.91819007
   6.43224142  2.69998418  4.85740774
  11.76876646  4.21925362  2.83668457
   2.46431279  1.90348482  2.84560726
  11.75684446  5.74003023  0.91294740
   6.52258279  5.80409234  0.95832694
   7.91411848  6.57791728  2.85270146
   6.48211261  4.16783809  2.79145838
  10.47780796  3.50104727  7.03583056
  10.44538833  3.47942085  0.90064720
  10.47658740  0.48721468  4.87894330
   9.13528096  7.35281415  4.95075053
   6.54392233  7.36733461  4.95009936
   5.07861993  0.26799225  4.89678313
   2.41211338  0.27230478 10.27986638
 


--------------------------------------------------------------------------------------------------------


 k-point  1 :   0.0000 0.0000 0.0000  plane waves:   63475
 k-point  2 :   0.5000-0.0000 0.0000  plane waves:   63428
 k-point  3 :   0.0000 0.5000 0.0000  plane waves:   63428
 k-point  4 :   0.5000 0.5000 0.0000  plane waves:   63428

 maximum and minimum number of plane-waves per node :     63475    63428

 maximum number of plane-waves:     63475
 maximum index in each direction: 
   IXMAX=   20   IYMAX=   20   IZMAX=   42
   IXMIN=  -20   IYMIN=  -20   IZMIN=  -42


 serial   3D FFT for wavefunctions
 parallel 3D FFT for charge:
    minimum data exchange during FFTs selected (reduces bandwidth)


 total amount of memory used by VASP MPI-rank0   369856. kBytes
=======================================================================

   base      :      30000. kBytes
   nonlr-proj:      96553. kBytes
   fftplans  :      12162. kBytes
   grid      :     120476. kBytes
   one-center:       2519. kBytes
   wavefun   :     108146. kBytes
 
     INWAV:  cpu time    0.0000: real time    0.0004
 Broyden mixing: mesh for mixing (old mesh)
   NGX = 41   NGY = 41   NGZ = 85
  (NGX  =168   NGY  =168   NGZ  =336)
  gives a total of 142885 points

 initial charge density was supplied:
 charge density of overlapping atoms calculated
 number of electron     778.0000000 magnetization     231.0000000
 keeping initial charge density in first step


--------------------------------------------------------------------------------------------------------


 Maximum index for non-local projection operator         7408
 Maximum index for augmentation-charges         1443 (set IRDMAX)


--------------------------------------------------------------------------------------------------------


 First call to EWALD:  gamma=   0.137
 Maximum number of real-space cells 4x 4x 2
 Maximum number of reciprocal cells 2x 2x 4

    FEWALD:  cpu time    0.0045: real time    0.0045


--------------------------------------- Iteration      1(   1)  ---------------------------------------


    POTLOK:  cpu time    0.4473: real time    0.4558
    SETDIJ:  cpu time    0.0351: real time    0.0358
     EDDAV:  cpu time   59.6381: real time   59.8050
 BZINTS: Fermi energy: 17.497860;778.000000 electrons
         Band energy:7817.979623;  BLOECHL correction: -0.016807
       DOS:  cpu time    0.0229: real time    0.0253
    --------------------------------------------
      LOOP:  cpu time   60.1434: real time   60.3219

 eigenvalue-minimisations  :  9984
 total energy-change (2. order) : 0.7573543E+04  (-0.3345405E+05)
 number of electron     778.0000000 magnetization     231.0000000
 augmentation part      778.0000000 magnetization     231.0000000

 Free energy of the ion-electron system (eV)
  ---------------------------------------------------
  alpha Z        PSCENC =      2197.15539535
  Ewald energy   TEWEN  =    222782.25088685
  -Hartree energ DENC   =   -294925.26741288
  -exchange      EXHF   =         0.00000000
  -V(xc)+E(xc)   XCENC  =      1384.67897687
  PAW double counting   =     64136.80006862   -66038.70876209
  entropy T*S    EENTRO =         0.00000000
  eigenvalues    EBANDS =      7817.97962311
  atomic energy  EATOM  =     70218.65458108
  Solvation  Ediel_sol  =         0.00000000
  ---------------------------------------------------
  free energy    TOTEN  =      7573.54335691 eV

  energy without entropy =     7573.54335691  energy(sigma->0) =     7573.54335691


--------------------------------------------------------------------------------------------------------




--------------------------------------- Iteration      1(   2)  ---------------------------------------


     EDDAV:  cpu time   60.3630: real time   60.6184
 BZINTS: Fermi energy:  5.737325;778.000000 electrons
         Band energy: 879.270035;  BLOECHL correction: -0.073864
       DOS:  cpu time    0.0210: real time    0.0216
    --------------------------------------------
      LOOP:  cpu time   60.3840: real time   60.6400

 eigenvalue-minimisations  : 10176
 total energy-change (2. order) :-0.6938710E+04  (-0.6151023E+04)
 number of electron     778.0000000 magnetization     231.0000000
 augmentation part      778.0000000 magnetization     231.0000000

 Free energy of the ion-electron system (eV)
  ---------------------------------------------------
  alpha Z        PSCENC =      2197.15539535
  Ewald energy   TEWEN  =    222782.25088685
  -Hartree energ DENC   =   -294925.26741288
  -exchange      EXHF   =         0.00000000
  -V(xc)+E(xc)   XCENC  =      1384.67897687
  PAW double counting   =     64136.80006862   -66038.70876209
  entropy T*S    EENTRO =         0.00000000
  eigenvalues    EBANDS =       879.27003536
  atomic energy  EATOM  =     70218.65458108
  Solvation  Ediel_sol  =         0.00000000
  ---------------------------------------------------
  free energy    TOTEN  =       634.83376917 eV

  energy without entropy =      634.83376917  energy(sigma->0) =      634.83376917


--------------------------------------------------------------------------------------------------------




--------------------------------------- Iteration      1(   3)  ---------------------------------------


     EDDAV:  cpu time   59.9790: real time   60.1283
 BZINTS: Fermi energy:  3.433306;778.000000 electrons
         Band energy:-185.329269;  BLOECHL correction: -0.058509
       DOS:  cpu time    0.0242: real time    0.0248
    --------------------------------------------
      LOOP:  cpu time   60.0032: real time   60.1531

 eigenvalue-minimisations  : 10080
 total energy-change (2. order) :-0.1064599E+04  (-0.8901458E+03)
 number of electron     778.0000000 magnetization     231.0000000
 augmentation part      778.0000000 magnetization     231.0000000

 Free energy of the ion-electron system (eV)
  ---------------------------------------------------
  alpha Z        PSCENC =      2197.15539535
  Ewald energy   TEWEN  =    222782.25088685
  -Hartree energ DENC   =   -294925.26741288
  -exchange      EXHF   =         0.00000000
  -V(xc)+E(xc)   XCENC  =      1384.67897687
  PAW double counting   =     64136.80006862   -66038.70876209
  entropy T*S    EENTRO =         0.00000000
  eigenvalues    EBANDS =      -185.32926858
  atomic energy  EATOM  =     70218.65458108
  Solvation  Ediel_sol  =         0.00000000
  ---------------------------------------------------
  free energy    TOTEN  =      -429.76553477 eV

  energy without entropy =     -429.76553477  energy(sigma->0) =     -429.76553477


--------------------------------------------------------------------------------------------------------




--------------------------------------- Iteration      1(   4)  ---------------------------------------


     EDDAV:  cpu time   70.0967: real time   70.3504
 BZINTS: Fermi energy:  3.306751;778.000000 electrons
         Band energy:-250.708130;  BLOECHL correction: -0.014248
       DOS:  cpu time    0.0240: real time    0.0252
    --------------------------------------------
      LOOP:  cpu time   70.1207: real time   70.3756

 eigenvalue-minimisations  : 12240
 total energy-change (2. order) :-0.6537886E+02  (-0.6279138E+02)
 number of electron     778.0000000 magnetization     231.0000000
 augmentation part      778.0000000 magnetization     231.0000000

 Free energy of the ion-electron system (eV)
  ---------------------------------------------------
  alpha Z        PSCENC =      2197.15539535
  Ewald energy   TEWEN  =    222782.25088685
  -Hartree energ DENC   =   -294925.26741288
  -exchange      EXHF   =         0.00000000
  -V(xc)+E(xc)   XCENC  =      1384.67897687
  PAW double counting   =     64136.80006862   -66038.70876209
  entropy T*S    EENTRO =         0.00000000
  eigenvalues    EBANDS =      -250.70813024
  atomic energy  EATOM  =     70218.65458108
  Solvation  Ediel_sol  =         0.00000000
  ---------------------------------------------------
  free energy    TOTEN  =      -495.14439644 eV

  energy without entropy =     -495.14439644  energy(sigma->0) =     -495.14439644


--------------------------------------------------------------------------------------------------------




--------------------------------------- Iteration      1(   5)  ---------------------------------------


     EDDAV:  cpu time   70.9981: real time   71.3898
 BZINTS: Fermi energy:  3.302467;778.000000 electrons
         Band energy:-252.885995;  BLOECHL correction: -0.012621
       DOS:  cpu time    0.0244: real time    0.0590
    CHARGE:  cpu time    2.6279: real time    2.6803
    MIXING:  cpu time    0.0105: real time    0.0106
    --------------------------------------------
      LOOP:  cpu time   73.6608: real time   74.1398

 eigenvalue-minimisations  : 12144
 total energy-change (2. order) :-0.2177865E+01  (-0.2173410E+01)
 number of electron     778.0000026 magnetization     216.5710996
 augmentation part      335.0056365 magnetization     183.9927922

 Broyden mixing:
  rms(total) = 0.11748E+02    rms(broyden)= 0.11748E+02
  rms(prec ) = 0.12065E+02
  weight for this iteration     100.00

 Free energy of the ion-electron system (eV)
  ---------------------------------------------------
  alpha Z        PSCENC =      2197.15539535
  Ewald energy   TEWEN  =    222782.25088685
  -Hartree energ DENC   =   -294925.26741288
  -exchange      EXHF   =         0.00000000
  -V(xc)+E(xc)   XCENC  =      1384.67897687
  PAW double counting   =     64136.80006862   -66038.70876209
  entropy T*S    EENTRO =         0.00000000
  eigenvalues    EBANDS =      -252.88599524
  atomic energy  EATOM  =     70218.65458108
  Solvation  Ediel_sol  =         0.00000000
  ---------------------------------------------------
  free energy    TOTEN  =      -497.32226143 eV

  energy without entropy =     -497.32226143  energy(sigma->0) =     -497.32226143


--------------------------------------------------------------------------------------------------------




--------------------------------------- Iteration      1(   6)  ---------------------------------------


    POTLOK:  cpu time    0.4065: real time    0.4427
    SETDIJ:  cpu time    0.0324: real time    0.0325
    EDDIAG:  cpu time   10.0162: real time   10.0426
  RMM-DIIS:  cpu time   37.7763: real time   37.9280
    ORTHCH:  cpu time    1.6549: real time    1.6608
 BZINTS: Fermi energy:  1.550273;778.000000 electrons
         Band energy:***********;  BLOECHL correction: -0.037658
       DOS:  cpu time    0.0270: real time    0.0271
    CHARGE:  cpu time    2.6241: real time    2.6744
    MIXING:  cpu time    0.0105: real time    0.0111
    --------------------------------------------
      LOOP:  cpu time   52.5479: real time   52.8192

 eigenvalue-minimisations  : 10034
 total energy-change (2. order) :-0.1632759E+03  (-0.8411689E+02)
 number of electron     778.0000032 magnetization     212.4625371
 augmentation part      406.4484481 magnetization     179.7659069

 Broyden mixing:
  rms(total) = 0.19686E+02    rms(broyden)= 0.19686E+02
  rms(prec ) = 0.25483E+02
  weight for this iteration     100.00

 eigenvalues of (default mixing * dielectric matrix)
  average eigenvalue GAMMA=   0.2252
  0.2252

 Free energy of the ion-electron system (eV)
  ---------------------------------------------------
  alpha Z        PSCENC =      2197.15539535
  Ewald energy   TEWEN  =    222782.25088685
  -Hartree energ DENC   =   -293311.57778630
  -exchange      EXHF   =         0.00000000
  -V(xc)+E(xc)   XCENC  =      1338.49080875
  PAW double counting   =     68950.36818549   -70641.94183888
  entropy T*S    EENTRO =         0.00000000
  eigenvalues    EBANDS =     -2193.99838149
  atomic energy  EATOM  =     70218.65458108
  Solvation  Ediel_sol  =         0.00000000
  ---------------------------------------------------
  free energy    TOTEN  =      -660.59814915 eV

  energy without entropy =     -660.59814915  energy(sigma->0) =     -660.59814915


--------------------------------------------------------------------------------------------------------




--------------------------------------- Iteration      1(   7)  ---------------------------------------


    POTLOK:  cpu time    0.4067: real time    0.4089
    SETDIJ:  cpu time    0.0315: real time    0.0316
    EDDIAG:  cpu time   10.0520: real time   10.0873
  RMM-DIIS:  cpu time   37.7200: real time   37.8226
    ORTHCH:  cpu time    1.6577: real time    1.6629
 BZINTS: Fermi energy:  3.016590;778.000000 electrons
         Band energy:***********;  BLOECHL correction: -0.012167
       DOS:  cpu time    0.0261: real time    0.0261
    CHARGE:  cpu time    2.6719: real time    2.6789
    MIXING:  cpu time    0.0104: real time    0.0104
    --------------------------------------------
      LOOP:  cpu time   52.5764: real time   52.7291

 eigenvalue-minimisations  :  9998
 total energy-change (2. order) : 0.1195801E+03  (-0.1472427E+02)
 number of electron     778.0000034 magnetization     207.8714805
 augmentation part      366.0034489 magnetization     165.4675821

 Broyden mixing:
  rms(total) = 0.15697E+02    rms(broyden)= 0.15697E+02
  rms(prec ) = 0.21193E+02
  weight for this iteration     100.00

 eigenvalues of (default mixing * dielectric matrix)
  average eigenvalue GAMMA=   0.2658
  0.3640  0.1676

 Free energy of the ion-electron system (eV)
  ---------------------------------------------------
  alpha Z        PSCENC =      2197.15539535
  Ewald energy   TEWEN  =    222782.25088685
  -Hartree energ DENC   =   -294000.83269189
  -exchange      EXHF   =         0.00000000
  -V(xc)+E(xc)   XCENC  =      1358.92048696
  PAW double counting   =     70002.71154281   -71855.57598131
  entropy T*S    EENTRO =         0.00000000
  eigenvalues    EBANDS =     -1244.30231200
  atomic energy  EATOM  =     70218.65458108
  Solvation  Ediel_sol  =         0.00000000
  ---------------------------------------------------
  free energy    TOTEN  =      -541.01809215 eV

  energy without entropy =     -541.01809215  energy(sigma->0) =     -541.01809215


--------------------------------------------------------------------------------------------------------




--------------------------------------- Iteration      1(   8)  ---------------------------------------


    POTLOK:  cpu time    0.4094: real time    0.4116
    SETDIJ:  cpu time    0.0318: real time    0.0319
    EDDIAG:  cpu time   10.0530: real time   10.0822
  RMM-DIIS:  cpu time   37.6767: real time   37.8266
    ORTHCH:  cpu time    1.6355: real time    1.6402
 BZINTS: Fermi energy:  2.603797;778.000000 electrons
         Band energy:-854.482281;  BLOECHL correction: -0.008493
       DOS:  cpu time    0.0258: real time    0.0258
    CHARGE:  cpu time    2.6527: real time    2.6598
    MIXING:  cpu time    0.0110: real time    0.0113
    --------------------------------------------
      LOOP:  cpu time   52.4956: real time   52.6892

 eigenvalue-minimisations  : 10009
[...]
      9.119335  5.808000  7.068871            0           0           0  
      3.771220  1.067832  0.904149            0           0           0  
      9.187153  5.773157  0.992859            0           0           0  
      5.174203  3.525475  0.870034            0           0           0  
     11.723623  8.751758  2.922452            0           0           0  
     11.764371  7.324996  4.846727            0           0           0  
     12.977995  6.503222  2.852336            0           0           0  
      9.131706  4.244648  2.814039            0           0           0  
      7.840317  8.077825  7.000567            0           0           0  
      7.897630  8.018724  0.913795            0           0           0  
     10.490378  6.601262  2.838692            0           0           0  
      2.546672  0.249544  5.016920            0           0           0  
      7.834603  3.521009  0.790672            0           0           0  
      5.126422  1.884619  2.935031            0           0           0  
      5.216670  6.505642  2.920646            0           0           0  
      7.782980  0.466164  4.845336            0           0           0  
      9.142719  1.196876  6.955110            0           0           0  
     10.394805  8.058979  6.979588            0           0           0  
      9.150683  1.135589  0.789759            0           0           0  
     10.461244  8.030921  0.814770            0           0           0  
      5.108375  5.005705  4.920618            0           0           0  
     11.724987  2.740972  4.882154            0           0           0  
     14.434703  8.900655  2.852614            0           0           0  
      9.170947  2.675860  4.918190            0           0           0  
      6.432241  2.699984  4.857408            0           0           0  
     11.768766  4.219254  2.836685            0           0           0  
      2.464313  1.903485  2.845607            0           0           0  
     11.756844  5.740030  0.912947            0           0           0  
      6.522583  5.804092  0.958327            0           0           0  
      7.914118  6.577917  2.852701            0           0           0  
      6.482113  4.167838  2.791458            0           0           0  
     10.477808  3.501047  7.035831            0           0           0  
     10.445388  3.479421  0.900647            0           0           0  
     10.476587  0.487215  4.878943            0           0           0  
      9.135281  7.352814  4.950751            0           0           0  
      6.543922  7.367335  4.950099            0           0           0  
      5.078620  0.267992  4.896783            0           0           0  
      2.412113  0.272305 10.279866     0.282341    0.235871    0.929865  
 
   2 f  =   20.638012 THz   129.672451 2PiTHz  688.409943 cm-1    85.351986 meV
             X         Y         Z           dx          dy          dz
     13.073489  8.117672  6.957231            0           0           0  
      5.159401  8.147874  6.939611            0           0           0  
      5.005620  3.515371  7.008174            0           0           0  
     14.448482  8.890928  9.276216            0           0           0  
      3.767296  4.278130  9.370757            0           0           0  
      6.426589  8.859187  9.292854            0           0           0  
     11.772893  4.241242  9.347396            0           0           0  
      9.153847  8.841575  9.276791            0           0           0  
     10.428592  1.962305  9.213566            0           0           0  
      2.472077  1.983272  9.298990            0           0           0  
     11.794245  8.865821  9.286341            0           0           0  
     13.113953  6.564260  9.339045            0           0           0  
      5.128551  1.939284  9.303847            0           0           0  
      7.811067  6.550148  9.276597            0           0           0  
      9.140121  4.261930  9.265692            0           0           0  
      5.115749  6.551437  9.337516            0           0           0  
      7.786308  1.945855  9.256297            0           0           0  
      7.844497  3.466612  6.962875            0           0           0  
      6.357254  1.151559  6.911355            0           0           0  
      6.498778  1.127007  0.917828            0           0           0  
      3.733291  4.243650  2.823042            0           0           0  
      1.198299  1.256397  6.918217            0           0           0  
      1.141687  1.204891  0.754652            0           0           0  
      6.499372  8.840780  2.914106            0           0           0  
      6.453578  4.261877  9.342011            0           0           0  
      7.763740  5.039257  4.813515            0           0           0  
     10.443465  6.557120  9.296696            0           0           0  
     14.397924  7.279349  4.852068            0           0           0  
     11.794855  5.746421  7.007835            0           0           0  
      6.469225  5.825916  6.984707            0           0           0  
      3.644606  2.569999  4.961274            0           0           0  
     10.458868  5.071301  4.862358            0           0           0  
      3.798791  5.828099  7.129836            0           0           0  
     13.078973  7.956177  0.958832            0           0           0  
      5.213798  7.986558  0.862842            0           0           0  
      3.831310  5.831966  0.856005            0           0           0  
      7.882427  2.063465  2.846121            0           0           0  
      9.162894  8.807943  2.876123            0           0           0  
      2.429825  3.540685  7.120667            0           0           0  
      2.328700  3.518376  0.862991            0           0           0  
     10.446876  1.987090  2.840088            0           0           0  
     13.082697  5.018868  4.925753            0           0           0  
      3.777094  1.065761  7.085103            0           0           0  
      9.119335  5.808000  7.068871            0           0           0  
      3.771220  1.067832  0.904149            0           0           0  
      9.187153  5.773157  0.992859            0           0           0  
      5.174203  3.525475  0.870034            0           0           0  
     11.723623  8.751758  2.922452            0           0           0  
     11.764371  7.324996  4.846727            0           0           0  
     12.977995  6.503222  2.852336            0           0           0  
      9.131706  4.244648  2.814039            0           0           0  
      7.840317  8.077825  7.000567            0           0           0  
      7.897630  8.018724  0.913795            0           0           0  
     10.490378  6.601262  2.838692            0           0           0  
      2.546672  0.249544  5.016920            0           0           0  
      7.834603  3.521009  0.790672            0           0           0  
      5.126422  1.884619  2.935031            0           0           0  
      5.216670  6.505642  2.920646            0           0           0  
      7.782980  0.466164  4.845336            0           0           0  
      9.142719  1.196876  6.955110            0           0           0  
     10.394805  8.058979  6.979588            0           0           0  
      9.150683  1.135589  0.789759            0           0           0  
     10.461244  8.030921  0.814770            0           0           0  
      5.108375  5.005705  4.920618            0           0           0  
     11.724987  2.740972  4.882154            0           0           0  
     14.434703  8.900655  2.852614            0           0           0  
      9.170947  2.675860  4.918190            0           0           0  
      6.432241  2.699984  4.857408            0           0           0  
     11.768766  4.219254  2.836685            0           0           0  
      2.464313  1.903485  2.845607            0           0           0  
     11.756844  5.740030  0.912947            0           0           0  
      6.522583  5.804092  0.958327            0           0           0  
      7.914118  6.577917  2.852701            0           0           0  
      6.482113  4.167838  2.791458            0           0           0  
     10.477808  3.501047  7.035831            0           0           0  
     10.445388  3.479421  0.900647            0           0           0  
     10.476587  0.487215  4.878943            0           0           0  
      9.135281  7.352814  4.950751            0           0           0  
      6.543922  7.367335  4.950099            0           0           0  
      5.078620  0.267992  4.896783            0           0           0  
      2.412113  0.272305 10.279866     0.959313   -0.068050   -0.274021  
 
   3 f  =   12.233944 THz    76.868139 2PiTHz  408.080442 cm-1    50.595545 meV
             X         Y         Z           dx          dy          dz
     13.073489  8.117672  6.957231            0           0           0  
      5.159401  8.147874  6.939611            0           0           0  
      5.005620  3.515371  7.008174            0           0           0  
     14.448482  8.890928  9.276216            0           0           0  
      3.767296  4.278130  9.370757            0           0           0  
      6.426589  8.859187  9.292854            0           0           0  
     11.772893  4.241242  9.347396            0           0           0  
      9.153847  8.841575  9.276791            0           0           0  
     10.428592  1.962305  9.213566            0           0           0  
      2.472077  1.983272  9.298990            0           0           0  
     11.794245  8.865821  9.286341            0           0           0  
     13.113953  6.564260  9.339045            0           0           0  
      5.128551  1.939284  9.303847            0           0           0  
      7.811067  6.550148  9.276597            0           0           0  
      9.140121  4.261930  9.265692            0           0           0  
      5.115749  6.551437  9.337516            0           0           0  
      7.786308  1.945855  9.256297            0           0           0  
      7.844497  3.466612  6.962875            0           0           0  
      6.357254  1.151559  6.911355            0           0           0  
      6.498778  1.127007  0.917828            0           0           0  
      3.733291  4.243650  2.823042            0           0           0  
      1.198299  1.256397  6.918217            0           0           0  
      1.141687  1.204891  0.754652            0           0           0  
      6.499372  8.840780  2.914106            0           0           0  
      6.453578  4.261877  9.342011            0           0           0  
      7.763740  5.039257  4.813515            0           0           0  
     10.443465  6.557120  9.296696            0           0           0  
     14.397924  7.279349  4.852068            0           0           0  
     11.794855  5.746421  7.007835            0           0           0  
      6.469225  5.825916  6.984707            0           0           0  
      3.644606  2.569999  4.961274            0           0           0  
     10.458868  5.071301  4.862358            0           0           0  
      3.798791  5.828099  7.129836            0           0           0  
     13.078973  7.956177  0.958832            0           0           0  
      5.213798  7.986558  0.862842            0           0           0  
      3.831310  5.831966  0.856005            0           0           0  
      7.882427  2.063465  2.846121            0           0           0  
      9.162894  8.807943  2.876123            0           0           0  
      2.429825  3.540685  7.120667            0           0           0  
      2.328700  3.518376  0.862991            0           0           0  
     10.446876  1.987090  2.840088            0           0           0  
     13.082697  5.018868  4.925753            0           0           0  
      3.777094  1.065761  7.085103            0           0           0  
      9.119335  5.808000  7.068871            0           0           0  
      3.771220  1.067832  0.904149            0           0           0  
      9.187153  5.773157  0.992859            0           0           0  
      5.174203  3.525475  0.870034            0           0           0  
     11.723623  8.751758  2.922452            0           0           0  
     11.764371  7.324996  4.846727            0           0           0  
     12.977995  6.503222  2.852336            0           0           0  
      9.131706  4.244648  2.814039            0           0           0  
      7.840317  8.077825  7.000567            0           0           0  
      7.897630  8.018724  0.913795            0           0           0  
     10.490378  6.601262  2.838692            0           0           0  
      2.546672  0.249544  5.016920            0           0           0  
      7.834603  3.521009  0.790672            0           0           0  
      5.126422  1.884619  2.935031            0           0           0  
      5.216670  6.505642  2.920646            0           0           0  
      7.782980  0.466164  4.845336            0           0           0  
      9.142719  1.196876  6.955110            0           0           0  
     10.394805  8.058979  6.979588            0           0           0  
      9.150683  1.135589  0.789759            0           0           0  
     10.461244  8.030921  0.814770            0           0           0  
      5.108375  5.005705  4.920618            0           0           0  
     11.724987  2.740972  4.882154            0           0           0  
     14.434703  8.900655  2.852614            0           0           0  
      9.170947  2.675860  4.918190            0           0           0  
      6.432241  2.699984  4.857408            0           0           0  
     11.768766  4.219254  2.836685            0           0           0  
      2.464313  1.903485  2.845607            0           0           0  
     11.756844  5.740030  0.912947            0           0           0  
      6.522583  5.804092  0.958327            0           0           0  
      7.914118  6.577917  2.852701            0           0           0  
      6.482113  4.167838  2.791458            0           0           0  
     10.477808  3.501047  7.035831            0           0           0  
     10.445388  3.479421  0.900647            0           0           0  
     10.476587  0.487215  4.878943            0           0           0  
      9.135281  7.352814  4.950751            0           0           0  
      6.543922  7.367335  4.950099            0           0           0  
      5.078620  0.267992  4.896783            0           0           0  
      2.412113  0.272305 10.279866     0.001356   -0.969399    0.245487  
 
 Finite differences POTIM=  1.500000000000000E-002
  LATTYP: Found a hexagonal cell.
 ALAT       =    10.6599998474
 C/A-ratio  =     2.0637898982
  
  Lattice vectors:
  
 A1 = (   5.3299999237,  -9.2318306722,   0.0000000000)
 A2 = ( -10.6599998474,   0.0000000000,   0.0000000000)
 A3 = (   0.0000000000,   0.0000000000, -22.0000000000)


Analysis of symmetry for initial positions (statically):
=====================================================================
 Subroutine PRICEL returns:
 Original cell was already a primitive cell.
 

 Routine SETGRP: Setting up the symmetry group for a 
 hexagonal supercell.


 Subroutine GETGRP returns: Found  1 space group operations
 (whereof  1 operations were pure point group operations)
 out of a pool of 24 trial point group operations.


The static configuration has the point symmetry C_1 .


Analysis of symmetry for dynamics (positions and initial velocities):
=====================================================================
 Subroutine PRICEL returns:
 Original cell was already a primitive cell.
 

 Routine SETGRP: Setting up the symmetry group for a 
 hexagonal supercell.


 Subroutine GETGRP returns: Found  1 space group operations
 (whereof  1 operations were pure point group operations)
 out of a pool of 24 trial point group operations.


The dynamic configuration has the point symmetry C_1 .


Analysis of constrained symmetry for selective dynamics:
=====================================================================
 Subroutine PRICEL returns:
 Original cell was already a primitive cell.
 

 Routine SETGRP: Setting up the symmetry group for a 
 hexagonal supercell.


 Subroutine GETGRP returns: Found  1 space group operations
 (whereof  1 operations were pure point group operations)
 out of a pool of 24 trial point group operations.


The constrained configuration has the point symmetry C_1 .


Analysis of structural, dynamic, and magnetic symmetry:
=====================================================================
 Subroutine PRICEL returns:
 Original cell was already a primitive cell.
 

 Routine SETGRP: Setting up the symmetry group for a 
 hexagonal supercell.


 Subroutine GETGRP returns: Found  1 space group operations
 (whereof  1 operations were pure point group operations)
 out of a pool of 24 trial point group operations.


The magnetic configuration has the point symmetry C_1 .


 Subroutine INISYM returns: Found  1 space group operations
 (whereof  1 operations are pure point group operations),
 and found     1 'primitive' translations

 
 KPOINTS: mesh auto                               

Automatic generation of k-mesh.
Space group operators:
 irot       det(A)        alpha          n_x          n_y          n_z        tau_x        tau_y        tau_z
    1     1.000000     0.000000     1.000000     0.000000     0.000000     0.000000     0.000000     0.000000
 
 Subroutine IBZKPT returns following result:
 ===========================================
 
 Found      4 irreducible k-points:
 
 Following reciprocal coordinates:
            Coordinates               Weight
  0.000000  0.000000  0.000000      1.000000
  0.500000 -0.000000  0.000000      1.000000
  0.000000  0.500000  0.000000      1.000000
  0.500000  0.500000  0.000000      1.000000
 
 Following cartesian coordinates:
            Coordinates               Weight
  0.000000  0.000000  0.000000      1.000000
  0.046904 -0.027080  0.000000      1.000000
  0.000000  0.054160  0.000000      1.000000
  0.046904  0.027080  0.000000      1.000000
 
 TETIRR: Found     12 inequivalent tetrahedra from       24
     LOOP+:  cpu time  677.9844: real time  681.8297
    4ORBIT:  cpu time    0.0000: real time    0.0000
 BZINTS: Fermi energy:  1.937553;778.000000 electrons
         Band energy:-743.258612;  BLOECHL correction: -0.272095

 total amount of memory used by VASP MPI-rank0   369856. kBytes
=======================================================================

   base      :      30000. kBytes
   nonlr-proj:      96553. kBytes
   fftplans  :      12162. kBytes
   grid      :     120476. kBytes
   one-center:       2519. kBytes
   wavefun   :     108146. kBytes
 
  
  
 General timing and accounting informations for this job:
 ========================================================
  
                  Total CPU time used (sec):     8190.704
                            User time (sec):     8157.643
                          System time (sec):       33.061
                         Elapsed time (sec):     8331.928
  
                   Maximum memory used (kb):      697468.
                   Average memory used (kb):           0.
  
                          Minor page faults:      3140212
                          Major page faults:          194
                 Voluntary context switches:         8291
