 vasp.5.4.4.18Apr17-6-g9f103f2a35 (build Nov 30 2020 22:55:02) complex          
  
 executed on             LinuxIFC date 2021.11.25  12:50:51
 running on   40 total cores
 distrk:  each k-point on   40 cores,    1 groups
 distr:  one band on NCORES_PER_BAND=   1 cores,   40 groups


--------------------------------------------------------------------------------------------------------


 INCAR:
 POTCAR:    PAW_PBE Pt 04Feb2005                  
 POTCAR:    PAW_PBE H 15Jun2001                   

 ----------------------------------------------------------------------------- 
|                                                                             |
|           W    W    AA    RRRRR   N    N  II  N    N   GGGG   !!!           |
|           W    W   A  A   R    R  NN   N  II  NN   N  G    G  !!!           |
|           W    W  A    A  R    R  N N  N  II  N N  N  G       !!!           |
|           W WW W  AAAAAA  RRRRR   N  N N  II  N  N N  G  GGG   !            |
|           WW  WW  A    A  R   R   N   NN  II  N   NN  G    G                |
|           W    W  A    A  R    R  N    N  II  N    N   GGGG   !!!           |
|                                                                             |
|      For optimal performance we recommend to set                            |
|        NCORE= 4 - approx SQRT( number of cores)                             |
|      NCORE specifies how many cores store one orbital (NPAR=cpu/NCORE).     |
|      This setting can  greatly improve the performance of VASP for DFT.     |
|      The default,   NCORE=1            might be grossly inefficient         |
|      on modern multi-core architectures or massively parallel machines.     |
|      Do your own testing !!!!                                               |
|      Unfortunately you need to use the default for GW and RPA calculations. |
|      (for HF NCORE is supported but not extensively tested yet)             |
|                                                                             |
 ----------------------------------------------------------------------------- 

 POTCAR:    PAW_PBE Pt 04Feb2005                  
   VRHFIN =Pt: s1d9                                                             
   LEXCH  = PE                                                                  
   EATOM  =   729.1176 eV,   53.5886 Ry                                         
                                                                                
   TITEL  = PAW_PBE Pt 04Feb2005                                                
   LULTRA =        F    use ultrasoft PP ?                                      
   IUNSCR =        1    unscreen: 0-lin 1-nonlin 2-no                           
   RPACOR =    2.330    partial core radius                                     
   POMASS =  195.080; ZVAL   =   10.000    mass and valenz                      
   RCORE  =    2.600    outmost cutoff radius                                   
   RWIGS  =    2.750; RWIGS  =    1.455    wigner-seitz radius (au A)           
   ENMAX  =  230.283; ENMIN  =  172.712 eV                                      
   ICORE  =        3    local potential                                         
   LCOR   =        T    correct aug charges                                     
   LPAW   =        T    paw PP                                                  
   EAUG   =  358.966                                                            
   DEXC   =    0.000                                                            
   RMAX   =    2.658    core radius for proj-oper                               
   RAUG   =    1.300    factor for augmentation sphere                          
   RDEP   =    2.761    radius for radial grids                                 
   RDEPT  =    2.203    core radius for aug-charge                              
                                                                                
   Atomic configuration                                                         
   16 entries                                                                   
     n  l   j            E        occ.                                          
     1  0  0.50    -78401.1885   2.0000                                         
     2  0  0.50    -13770.7750   2.0000                                         
     2  1  1.50    -11931.0468   6.0000                                         
     3  0  0.50     -3234.7234   2.0000                                         
     3  1  1.50     -2699.2216   6.0000                                         
     3  2  2.50     -2119.5714  10.0000                                         
     4  0  0.50      -695.1528   2.0000                                         
     4  1  1.50      -519.6034   6.0000                                         
     4  2  2.50      -306.6786  10.0000                                         
     4  3  3.50       -70.1041  14.0000                                         
     5  0  0.50      -101.7747   2.0000                                         
     5  1  1.50       -55.9873   6.0000                                         
     5  2  2.50        -6.1423   9.0000                                         
     6  0  0.50        -5.6573   1.0000                                         
     6  1  1.50        -6.8029   0.0000                                         
     5  3  2.50        -1.3606   0.0000                                         
   Description                                                                  
     l       E           TYP  RCUT    TYP  RCUT                                 
     2     -6.1423404     23  2.500                                             
     2     -7.5029230     23  2.500                                             
     0     -5.6573207     23  2.500                                             
     0      0.7416693     23  2.500                                             
     1     -2.7211652     23  2.600                                             
     1     20.4087390     23  2.600                                             
     3     -1.3605826     23  2.500                                             
  local pseudopotential read in
  partial core-charges read in
  partial kinetic energy density read in
  atomic valenz-charges read in
  non local Contribution for L=           2  read in
    real space projection operators read in
  non local Contribution for L=           2  read in
    real space projection operators read in
  non local Contribution for L=           0  read in
    real space projection operators read in
  non local Contribution for L=           0  read in
    real space projection operators read in
  non local Contribution for L=           1  read in
    real space projection operators read in
  non local Contribution for L=           1  read in
    real space projection operators read in
    PAW grid and wavefunctions read in
 
   number of l-projection  operators is LMAX  =           6
   number of lm-projection operators is LMMAX =          18
 
 POTCAR:    PAW_PBE H 15Jun2001                   
   VRHFIN =H: ultrasoft test                                                    
   LEXCH  = PE                                                                  
   EATOM  =    12.4884 eV,    0.9179 Ry                                         
                                                                                
   TITEL  = PAW_PBE H 15Jun2001                                                 
   LULTRA =        F    use ultrasoft PP ?                                      
   IUNSCR =        0    unscreen: 0-lin 1-nonlin 2-no                           
   RPACOR =    0.000    partial core radius                                     
   POMASS =    1.000; ZVAL   =    1.000    mass and valenz                      
   RCORE  =    1.100    outmost cutoff radius                                   
   RWIGS  =    0.700; RWIGS  =    0.370    wigner-seitz radius (au A)           
   ENMAX  =  250.000; ENMIN  =  200.000 eV                                      
   RCLOC  =    0.701    cutoff for local pot                                    
   LCOR   =        T    correct aug charges                                     
   LPAW   =        T    paw PP                                                  
   EAUG   =  400.000                                                            
   RMAX   =    1.123    core radius for proj-oper                               
   RAUG   =    1.200    factor for augmentation sphere                          
   RDEP   =    1.112    radius for radial grids                                 
   RDEPT  =    0.926    core radius for aug-charge                              
                                                                                
   Atomic configuration                                                         
    2 entries                                                                   
     n  l   j            E        occ.                                          
     1  0  0.50        -6.4927   1.0000                                         
     2  1  0.50        -3.4015   0.0000                                         
   Description                                                                  
     l       E           TYP  RCUT    TYP  RCUT                                 
     0     -6.4927494     23  1.100                                             
     0      6.8029130     23  1.100                                             
     1     -4.0817478     23  1.100                                             
  local pseudopotential read in
  atomic valenz-charges read in
  non local Contribution for L=           0  read in
    real space projection operators read in
  non local Contribution for L=           0  read in
    real space projection operators read in
  non local Contribution for L=           1  read in
    real space projection operators read in
    PAW grid and wavefunctions read in
 
   number of l-projection  operators is LMAX  =           3
   number of lm-projection operators is LMMAX =           5
 
 Optimization of the real space projectors (new method)

 maximal supplied QI-value         = 14.36
 optimisation between [QCUT,QGAM] = [ 11.92, 23.98] = [ 39.79,161.09] Ry 
 Optimized for a Real-space Cutoff    1.49 Angstroem

   l    n(q)    QCUT    max X(q) W(low)/X(q) W(high)/X(q)  e(spline) 
   2     10    11.920    66.195    0.79E-04    0.18E-03    0.24E-06
   2     10    11.920    64.643    0.81E-04    0.19E-03    0.24E-06
   0     11    11.920    95.520    0.28E-04    0.54E-04    0.18E-06
   0     11    11.920    63.403    0.27E-04    0.52E-04    0.17E-06
   1     10    11.920    19.961    0.18E-04    0.11E-03    0.23E-06
   1     10    11.920    13.289    0.25E-04    0.87E-04    0.19E-06
 Optimization of the real space projectors (new method)

 maximal supplied QI-value         = 34.20
 optimisation between [QCUT,QGAM] = [ 11.97, 23.94] = [ 40.13,160.53] Ry 
 Optimized for a Real-space Cutoff    1.18 Angstroem

   l    n(q)    QCUT    max X(q) W(low)/X(q) W(high)/X(q)  e(spline) 
   0      8    11.971    19.460    0.15E-03    0.31E-03    0.25E-06
   0      8    11.971    12.209    0.13E-03    0.29E-03    0.25E-06
   1      8    11.971     4.655    0.22E-03    0.24E-03    0.21E-06
  PAW_PBE Pt 04Feb2005                  :
 energy of atom  1       EATOM= -729.1176
 kinetic energy error for atom=    0.0021 (will be added to EATOM!!)
  PAW_PBE H 15Jun2001                   :
 energy of atom  2       EATOM=  -12.4884
 kinetic energy error for atom=    0.0008 (will be added to EATOM!!)
 
 
 POSCAR: Pt111                                   
  positions in cartesian coordinates
  No initial velocities read in
 exchange correlation table for  LEXCH =        8
   RHO(1)=    0.500       N(1)  =     2000
   RHO(2)=  100.500       N(2)  =     4000
 


--------------------------------------------------------------------------------------------------------


 ion  position               nearest neighbor table
   1  0.785  0.869  0.327-  71 2.74  20 2.74  55 2.74  35 2.79  34 2.79  27 2.79  43 2.81  72 2.81
                             2 2.81   3 2.81  73 2.81  56 2.81
   2  0.035  0.869  0.327-  65 2.74  68 2.74  55 2.74  39 2.77  29 2.79  27 2.79  23 2.80  47 2.80
                             1 2.81   3 2.81  72 2.81  57 2.81
   3  0.035  0.619  0.326-  55 2.73  76 2.74  12 2.74  39 2.78  28 2.78  35 2.79  15 2.80  56 2.81
                             9 2.81   2 2.81   1 2.81  57 2.81
   4  0.786  0.868  0.023-  21 2.78  78 2.79  19 2.79  44 2.80   6 2.80  75 2.80  58 2.80  74 2.81
                             5 2.81
   5  0.036  0.868  0.023-  49 2.78  70 2.78  78 2.79  48 2.80   6 2.80  59 2.80  24 2.80  74 2.81
                             4 2.81
   6  0.036  0.618  0.023-  46 2.78  70 2.79  21 2.79   5 2.80  59 2.80   4 2.80  10 2.81  58 2.81
                            18 2.81
   7  0.619  0.202  0.126-  71 2.73  80 2.74  79 2.74  42 2.78  44 2.79  74 2.79  11 2.80  53 2.80
                            61 2.81  78 2.81  19 2.81  22 2.81
   8  0.369  0.951  0.126-  69 2.74  26 2.74  66 2.74  24 2.78  16 2.79  75 2.79  25 2.80  60 2.80
                            49 2.81  19 2.81  54 2.81  53 2.81
   9  0.035  0.369  0.326-  77 2.73  12 2.74  62 2.74  30 2.77  28 2.78  33 2.79  15 2.80  56 2.80
                            47 2.80  13 2.81   3 2.81  63 2.81
  10  0.036  0.369  0.023-  54 2.78  46 2.78  45 2.79  58 2.80   6 2.81  64 2.81  18 2.81  48 2.81
                            16 2.81
  11  0.869  0.202  0.126-  77 2.73  65 2.74  79 2.75  64 2.78  74 2.78  48 2.79   7 2.80  78 2.80
                            45 2.81  54 2.81  22 2.81  49 2.81
  12  0.952  0.535  0.226-  21 2.73  45 2.74   9 2.74   3 2.74  46 2.74  56 2.75  62 2.80  55 2.81
                            77 2.81  20 2.81  76 2.81  67 2.81
  13  0.285  0.119  0.326-  26 2.73  62 2.74  69 2.74  31 2.77  36 2.78  33 2.79  73 2.80  15 2.80
                            47 2.80   9 2.81  43 2.81  23 2.81
  14  0.535  0.619  0.328-  51 2.75  66 2.76  67 2.76  63 2.80  23 2.80  57 2.80  41 2.80  56 2.81
                            73 2.81  52 2.84  38 2.85  37 2.85
  15  0.285  0.369  0.326-  76 2.73  80 2.74  62 2.74  50 2.76  36 2.79  28 2.80   9 2.80   3 2.80
                            13 2.80  43 2.80  57 2.81  41 2.81
  16  0.287  0.118  0.023-  54 2.78  53 2.78   8 2.79  75 2.80  44 2.81  24 2.81  18 2.81  48 2.81
                            10 2.81
  17  0.536  0.618  0.023-  25 2.78  22 2.78  60 2.79  64 2.80  24 2.81  58 2.81  42 2.81  59 2.81
                            75 2.81
  18  0.286  0.368  0.023-  53 2.78  46 2.79  61 2.79  59 2.80  42 2.80   6 2.81  44 2.81  10 2.81
                            16 2.81
  19  0.619  0.952  0.126-  69 2.74  71 2.74  20 2.74  75 2.79  44 2.79   4 2.79  21 2.80  25 2.81
                            53 2.81  78 2.81   7 2.81   8 2.81
  20  0.702  0.785  0.226-  56 2.74  25 2.74   1 2.74  19 2.74  73 2.74  21 2.74  67 2.81  66 2.81
                            12 2.81  69 2.81  55 2.81  71 2.81
  21  0.869  0.702  0.126-  12 2.73  55 2.74  20 2.74   4 2.78  58 2.78   6 2.79  19 2.80  46 2.81
                            78 2.81  25 2.81  70 2.81  45 2.81
  22  0.619  0.452  0.126-  79 2.73  67 2.74  51 2.75  17 2.78  42 2.79  64 2.79  61 2.80  60 2.80
                            45 2.80  25 2.80  11 2.81   7 2.81
  23  0.285  0.868  0.328-  68 2.74  66 2.74  26 2.76  31 2.78  29 2.79  14 2.80  57 2.80   2 2.80
                            73 2.80  37 2.81  13 2.81  47 2.81
  24  0.286  0.868  0.023-   8 2.78  49 2.79  60 2.79  59 2.80   5 2.80  17 2.81  16 2.81  48 2.81
                            75 2.81
  25  0.619  0.702  0.126-  20 2.74  67 2.74  66 2.75  17 2.78  75 2.79  58 2.79   8 2.80  45 2.80
                            60 2.80  22 2.80  19 2.81  21 2.81
  26  0.202  0.035  0.226-  13 2.73  49 2.73   8 2.74  47 2.74  54 2.74  23 2.76  62 2.80  65 2.80
                            68 2.80  69 2.81  66 2.81  77 2.81
  27  0.868  0.953  0.430-  39 2.77  40 2.78  72 2.79   1 2.79   2 2.79  29 2.79  32 2.79  35 2.80
                            34 2.80
  28  0.116  0.453  0.429-  50 2.74  30 2.76   9 2.78   3 2.78  35 2.79  15 2.80  33 2.80  39 2.82
                            36 2.82
  29  0.117  0.954  0.430-  37 2.77  32 2.78  47 2.79  23 2.79   2 2.79  27 2.79  33 2.79  39 2.81
                            31 2.81
  30  0.871  0.451  0.430-  28 2.76   9 2.77  63 2.78  33 2.78  56 2.79  38 2.81  32 2.81  35 2.82
                            52 2.83
  31  0.366  0.956  0.430-  36 2.76  13 2.77  23 2.78  33 2.78  73 2.79  37 2.81  29 2.81  34 2.82
                            52 2.83
  32  0.869  0.202  0.430-  38 2.77  29 2.78  63 2.78  72 2.79  47 2.79  33 2.79  27 2.79  30 2.81
                            40 2.81
  33  0.117  0.202  0.429-  30 2.78  31 2.78  47 2.78   9 2.79  13 2.79  32 2.79  29 2.79  28 2.80
                            36 2.80
  34  0.618  0.954  0.430-  52 2.74  40 2.76  43 2.78  36 2.79   1 2.79  73 2.79  27 2.80  31 2.82
                            35 2.82
  35  0.870  0.703  0.430-  52 2.74  39 2.76   3 2.79   1 2.79  28 2.79  56 2.79  27 2.80  30 2.82
                            34 2.82
  36  0.368  0.201  0.429-  50 2.74  31 2.76  13 2.78  43 2.79  34 2.79  15 2.79  33 2.80  40 2.82
                            28 2.82
  37  0.363  0.707  0.434-  81 1.93  82 1.95  29 2.77  31 2.81  39 2.81  23 2.81  57 2.83  14 2.85
                            38 2.91  52 2.91  50 2.92
  38  0.622  0.448  0.434-  81 1.93  82 1.96  32 2.77  30 2.81  40 2.81  63 2.81  41 2.83  14 2.85
                            37 2.91  52 2.91  50 2.92
  39  0.114  0.705  0.430-  35 2.76  27 2.77   2 2.77   3 2.78  57 2.79  29 2.81  37 2.81  28 2.82
                            50 2.84
  40  0.620  0.199  0.430-  34 2.76  27 2.78  72 2.78  43 2.78  41 2.78  32 2.81  38 2.81  36 2.82
                            50 2.84
  41  0.535  0.370  0.328-  51 2.74  79 2.76  80 2.76  40 2.78  57 2.80  63 2.80  14 2.80  43 2.81
                            15 2.81  72 2.81  50 2.82  38 2.83
  42  0.536  0.368  0.023-   7 2.78  22 2.79  61 2.79  64 2.80  74 2.80  18 2.80  44 2.80  17 2.81
                            59 2.81
  43  0.535  0.119  0.326-  80 2.73  71 2.74  69 2.74  40 2.78  34 2.78  36 2.79  15 2.80  73 2.81
                             1 2.81  72 2.81  41 2.81  13 2.81
  44  0.537  0.118  0.023-  19 2.79  53 2.79   7 2.79   4 2.80  74 2.80  42 2.80  75 2.80  16 2.81
                            18 2.81
  45  0.868  0.452  0.126-  77 2.73  12 2.74  67 2.75  58 2.78  64 2.78  10 2.79  25 2.80  22 2.80
                            11 2.81  21 2.81  54 2.81  46 2.81
  46  0.119  0.452  0.126-  62 2.73  12 2.74  76 2.74   6 2.78  10 2.78  18 2.79  70 2.80  21 2.81
                            53 2.81  61 2.81  54 2.81  45 2.81
  47  0.035  0.119  0.327-  65 2.73  77 2.74  26 2.74  33 2.78  29 2.79  32 2.79   2 2.80  72 2.80
                            13 2.80   9 2.80  23 2.81  63 2.82
  48  0.036  0.118  0.023-  54 2.77  49 2.79  11 2.79   5 2.80  74 2.80  24 2.81  64 2.81  16 2.81
                            10 2.81
  49  0.119  0.952  0.126-  26 2.73  68 2.74  65 2.74   5 2.78  48 2.79  24 2.79  70 2.80  78 2.80
                             8 2.81  60 2.81  54 2.81  11 2.81
  50  0.363  0.447  0.431-  81 1.75  36 2.74  28 2.74  15 2.76  57 2.82  41 2.82  40 2.84  39 2.84
                            37 2.92  38 2.92
  51  0.452  0.536  0.227-  41 2.74  57 2.74  60 2.74  61 2.75  22 2.75  14 2.75  68 2.80  66 2.80
                            67 2.80  79 2.80  76 2.80  80 2.80
  52  0.623  0.708  0.431-  82 1.73  35 2.74  34 2.74  73 2.79  56 2.79  30 2.83  31 2.83  14 2.84
                            38 2.91  37 2.91
  53  0.369  0.202  0.126-  69 2.73  62 2.74  80 2.74  18 2.78  16 2.78  44 2.79   7 2.80  19 2.81
                            46 2.81  61 2.81  54 2.81   8 2.81
  54  0.119  0.202  0.125-  62 2.74  26 2.74  77 2.75  48 2.77  10 2.78  16 2.78  11 2.81  49 2.81
                            45 2.81  46 2.81  53 2.81   8 2.81
  55  0.952  0.786  0.226-   3 2.73  78 2.74   2 2.74  21 2.74  70 2.74   1 2.74  12 2.81  71 2.81
                            65 2.81  76 2.81  20 2.81  68 2.81
  56  0.785  0.619  0.327-  67 2.73  20 2.74  12 2.75  52 2.79  30 2.79  35 2.79   9 2.80  63 2.80
                            14 2.81   3 2.81   1 2.81  73 2.81
  57  0.285  0.619  0.328-  51 2.74  68 2.75  76 2.76  39 2.79  41 2.80  23 2.80  14 2.80   3 2.81
                            15 2.81   2 2.81  50 2.82  37 2.83
  58  0.786  0.618  0.023-  45 2.78  21 2.78  25 2.79  10 2.80   4 2.80   6 2.81  75 2.81  17 2.81
                            64 2.81
  59  0.286  0.618  0.023-  61 2.78  70 2.79  60 2.79  18 2.80   5 2.80  24 2.80   6 2.80  17 2.81
                            42 2.81
  60  0.369  0.702  0.126-  66 2.74  68 2.74  51 2.74  59 2.79  17 2.79  24 2.79  61 2.80  22 2.80
                             8 2.80  25 2.80  49 2.81  70 2.81
  61  0.369  0.452  0.126-  80 2.73  76 2.74  51 2.75  59 2.78  42 2.79  18 2.79  22 2.80  60 2.80
                             7 2.81  70 2.81  53 2.81  46 2.81
  62  0.202  0.285  0.226-  46 2.73  54 2.74  13 2.74  53 2.74   9 2.74  15 2.74  26 2.80  77 2.80
                            69 2.80  12 2.80  80 2.81  76 2.82
  63  0.784  0.370  0.328-  67 2.74  79 2.74  77 2.76  30 2.78  32 2.78  14 2.80  41 2.80  72 2.80
                            56 2.80   9 2.81  38 2.81  47 2.82
  64  0.786  0.368  0.023-  45 2.78  11 2.78  22 2.79  42 2.80  17 2.80  74 2.80  58 2.81  10 2.81
                            48 2.81
  65  0.952  0.036  0.226-  47 2.73   2 2.74  11 2.74  78 2.74  72 2.74  49 2.74  77 2.80  26 2.80
                            71 2.81  55 2.81  79 2.81  68 2.81
  66  0.452  0.785  0.227-  73 2.73  60 2.74   8 2.74  23 2.74  25 2.75  14 2.76  68 2.80  51 2.80
                            67 2.80  20 2.81  26 2.81  69 2.81
  67  0.702  0.536  0.227-  56 2.73  22 2.74  63 2.74  25 2.74  45 2.75  14 2.76  79 2.80  51 2.80
                            66 2.80  20 2.81  77 2.81  12 2.81
  68  0.203  0.785  0.227-   2 2.74  60 2.74  49 2.74  23 2.74  70 2.74  57 2.75  66 2.80  51 2.80
                            76 2.80  26 2.80  55 2.81  65 2.81
  69  0.452  0.036  0.226-  53 2.73   8 2.74  19 2.74  43 2.74  13 2.74  73 2.74  62 2.80  26 2.81
                            71 2.81  80 2.81  20 2.81  66 2.81
  70  0.119  0.702  0.126-  76 2.74  55 2.74  68 2.74   5 2.78  59 2.79   6 2.79  49 2.80  78 2.80
                            46 2.80  21 2.81  61 2.81  60 2.81
  71  0.702  0.036  0.226-   7 2.73  43 2.74   1 2.74  72 2.74  19 2.74  78 2.74  65 2.81  55 2.81
                            80 2.81  69 2.81  20 2.81  79 2.81
  72  0.785  0.119  0.327-  79 2.73  71 2.74  65 2.74  40 2.78  27 2.79  32 2.79  63 2.80  47 2.80
                             1 2.81  43 2.81   2 2.81  41 2.81
  73  0.535  0.869  0.327-  66 2.73  20 2.74  69 2.74  52 2.79  31 2.79  34 2.79  13 2.80  23 2.80
                            43 2.81  14 2.81   1 2.81  56 2.81
  74  0.786  0.118  0.023-  11 2.78  78 2.79   7 2.79  44 2.80  48 2.80  42 2.80  64 2.80   4 2.81
                             5 2.81
  75  0.536  0.868  0.023-  19 2.79  25 2.79   8 2.79  16 2.80   4 2.80  44 2.80  58 2.81  17 2.81
                            24 2.81
  76  0.202  0.536  0.226-  15 2.73  70 2.74   3 2.74  61 2.74  46 2.74  57 2.76  51 2.80  80 2.80
                            68 2.80  55 2.81  12 2.81  62 2.82
  77  0.952  0.286  0.226-   9 2.73  11 2.73  45 2.73  47 2.74  54 2.75  63 2.76  62 2.80  65 2.80
                            79 2.80  12 2.81  67 2.81  26 2.81
  78  0.869  0.952  0.126-  55 2.74  65 2.74  71 2.74  74 2.79   4 2.79   5 2.79  49 2.80  70 2.80
                            11 2.80  21 2.81   7 2.81  19 2.81
  79  0.702  0.286  0.227-  72 2.73  22 2.73  63 2.74   7 2.74  11 2.75  41 2.76  67 2.80  51 2.80
                            80 2.80  77 2.80  71 2.81  65 2.81
  80  0.452  0.286  0.226-  43 2.73  61 2.73  15 2.74   7 2.74  53 2.74  41 2.76  76 2.80  51 2.80
                            79 2.80  71 2.81  69 2.81  62 2.81
  81  0.442  0.527  0.469-  50 1.75  37 1.93  38 1.93
  82  0.545  0.631  0.470-  52 1.73  37 1.95  38 1.96
 
  LATTYP: Found a hexagonal cell.
 ALAT       =    11.2227001190
 C/A-ratio  =     1.9603125600
  
  Lattice vectors:
  
 A1 = (   5.6113500595,  -9.7191434021,   0.0000000000)
 A2 = ( -11.2227001190,   0.0000000000,   0.0000000000)
 A3 = (   0.0000000000,   0.0000000000, -22.0000000000)


Analysis of symmetry for initial positions (statically):
=====================================================================
 Subroutine PRICEL returns:
 Original cell was already a primitive cell.
 

 Routine SETGRP: Setting up the symmetry group for a 
 hexagonal supercell.


 Subroutine GETGRP returns: Found  1 space group operations
 (whereof  1 operations were pure point group operations)
 out of a pool of 24 trial point group operations.


The static configuration has the point symmetry C_1 .


Analysis of symmetry for dynamics (positions and initial velocities):
=====================================================================
 Subroutine PRICEL returns:
 Original cell was already a primitive cell.
 

 Routine SETGRP: Setting up the symmetry group for a 
 hexagonal supercell.


 Subroutine GETGRP returns: Found  1 space group operations
 (whereof  1 operations were pure point group operations)
 out of a pool of 24 trial point group operations.


The dynamic configuration has the point symmetry C_1 .


Analysis of constrained symmetry for selective dynamics:
=====================================================================
 Subroutine PRICEL returns:
 Original cell was already a primitive cell.
 

 Routine SETGRP: Setting up the symmetry group for a 
 hexagonal supercell.


 Subroutine GETGRP returns: Found  1 space group operations
 (whereof  1 operations were pure point group operations)
 out of a pool of 24 trial point group operations.


The constrained configuration has the point symmetry C_1 .


Analysis of structural, dynamic, and magnetic symmetry:
=====================================================================
 Subroutine PRICEL returns:
 Original cell was already a primitive cell.
 

 Routine SETGRP: Setting up the symmetry group for a 
 hexagonal supercell.


 Subroutine GETGRP returns: Found  1 space group operations
 (whereof  1 operations were pure point group operations)
 out of a pool of 24 trial point group operations.


The magnetic configuration has the point symmetry C_1 .


 Subroutine INISYM returns: Found  1 space group operations
 (whereof  1 operations are pure point group operations),
 and found     1 'primitive' translations

 
 
 KPOINTS: mesh auto                               

Automatic generation of k-mesh.
Space group operators:
 irot       det(A)        alpha          n_x          n_y          n_z        tau_x        tau_y        tau_z
    1     1.000000     0.000000     1.000000     0.000000     0.000000     0.000000     0.000000     0.000000
 
 Subroutine IBZKPT returns following result:
 ===========================================
 
 Found      4 irreducible k-points:
 
 Following reciprocal coordinates:
            Coordinates               Weight
  0.000000  0.000000  0.000000      1.000000
  0.500000  0.000000  0.000000      1.000000
  0.000000  0.500000  0.000000      1.000000
  0.500000  0.500000  0.000000      1.000000
 
 Following cartesian coordinates:
            Coordinates               Weight
  0.000000  0.000000  0.000000      1.000000
  0.044553 -0.025722  0.000000      1.000000
  0.000000  0.051445  0.000000      1.000000
  0.044553  0.025722  0.000000      1.000000
 
 TETIRR: Found     12 inequivalent tetrahedra from       24
 
 Subroutine IBZKPT_HF returns following result:
 ==============================================
 
 Found      4 k-points in 1st BZ
 the following      4 k-points will be used (e.g. in the exchange kernel)
 Following reciprocal coordinates:   # in IRBZ
  0.000000  0.000000  0.000000    0.25000000   1 t-inv F
  0.500000  0.000000  0.000000    0.25000000   2 t-inv F
  0.000000  0.500000  0.000000    0.25000000   3 t-inv F
  0.500000  0.500000  0.000000    0.25000000   4 t-inv F


--------------------------------------------------------------------------------------------------------




 Dimension of arrays:
   k-points           NKPTS =      4   k-points in BZ     NKDIM =      4   number of bands    NBANDS=    560
   number of dos      NEDOS =    301   number of ions     NIONS =     82
   non local maximal  LDIM  =      6   non local SUM 2l+1 LMDIM =     18
   total plane-waves  NPLWV = ******
   max r-space proj   IRMAX =   7929   max aug-charges    IRDMAX=  34542
   dimension x,y,z NGX =    90 NGY =   90 NGZ =  168
   dimension x,y,z NGXF=   180 NGYF=  180 NGZF=  336
   support grid    NGXF=   180 NGYF=  180 NGZF=  336
   ions per type =              80   2
   NGX,Y,Z   is equivalent  to a cutoff of  13.33, 13.33, 12.70 a.u.
   NGXF,Y,Z  is equivalent  to a cutoff of  26.66, 26.66, 25.39 a.u.

 SYSTEM =  Pt111                                   
 POSCAR =  Pt111                                   

 Startparameter for this run:
   NWRITE =      2    write-flag & timer
   PREC   = accura    normal or accurate (medium, high low for compatibility)
   ISTART =      0    job   : 0-new  1-cont  2-samecut
   ICHARG =      2    charge: 1-file 2-atom 10-const
   ISPIN  =      2    spin polarized calculation?
   LNONCOLLINEAR =      F non collinear calculations
   LSORBIT =      F    spin-orbit coupling
   INIWAV =      1    electr: 0-lowe 1-rand  2-diag
   LASPH  =      F    aspherical Exc in radial PAW
   METAGGA=      F    non-selfconsistent MetaGGA calc.

 Electronic Relaxation 1
   ENCUT  =  550.0 eV  40.42 Ry    6.36 a.u.  21.46 21.46 42.07*2*pi/ulx,y,z
   ENINI  =  550.0     initial cutoff
   ENAUG  =  400.0 eV  augmentation charge cutoff
   NELM   =    200;   NELMIN=  2; NELMDL= -5     # of ELM steps 
   EDIFF  = 0.1E-04   stopping-criterion for ELM
   LREAL  =      T    real-space projection
   NLSPLINE    = F    spline interpolate recip. space projectors
   LCOMPAT=      F    compatible to vasp.4.4
   GGA_COMPAT  = T    GGA compatible to vasp.4.4-vasp.4.6
   LMAXPAW     = -100 max onsite density
   LMAXMIX     =    2 max onsite mixed and CHGCAR
   VOSKOWN=      0    Vosko Wilk Nusair interpolation
   ROPT   =   -0.00025  -0.00025
 Ionic relaxation
   EDIFFG = -.5E-01   stopping-criterion for IOM
   NSW    =   1021    number of steps for IOM
   NBLOCK =      1;   KBLOCK =   1021    inner block; outer block 
   IBRION =      5    ionic relax: 0-MD 1-quasi-New 2-CG
   NFREE  =      2    steps in history (QN), initial steepest desc. (CG)
   ISIF   =      2    stress and relaxation
   IWAVPR =     11    prediction:  0-non 1-charg 2-wave 3-comb
   ISYM   =      2    0-nonsym 1-usesym 2-fastsym
   LCORR  =      T    Harris-Foulkes like correction to forces

   POTIM  = 0.5000    time-step for ionic-motion
   TEIN   =    0.0    initial temperature
   TEBEG  =    0.0;   TEEND  =   0.0 temperature during run
   SMASS  =  -3.00    Nose mass-parameter (am)
   estimated Nose-frequenzy (Omega)   =  0.10E-29 period in steps =****** mass=  -0.288E-26a.u.
   SCALEE = 1.0000    scale energy and forces
   NPACO  =    256;   APACO  = 16.0  distance and # of slots for P.C.
   PSTRESS=    0.0 pullay stress

  Mass of Ions in am
   POMASS = 195.08  1.00
  Ionic Valenz
   ZVAL   =  10.00  1.00
  Atomic Wigner-Seitz radii
   RWIGS  =  -1.00 -1.00
  virtual crystal weights 
   VCA    =   1.00  1.00
   NELECT =     802.0000    total number of electrons
   NUPDOWN=      -1.0000    fix difference up-down

 DOS related values:
   EMIN   =  10.00;   EMAX   =-10.00  energy-range for DOS
   EFERMI =   0.00
   ISMEAR =    -5;   SIGMA  =   0.10  broadening in eV -4-tet -1-fermi 0-gaus

 Electronic relaxation 2 (details)
   IALGO  =     68    algorithm
   LDIAG  =      T    sub-space diagonalisation (order eigenvalues)
   LSUBROT=      F    optimize rotation matrix (better conditioning)
   TURBO    =      0    0=normal 1=particle mesh
   IRESTART =      0    0=no restart 2=restart with 2 vectors
   NREBOOT  =      0    no. of reboots
   NMIN     =      0    reboot dimension
   EREF     =   0.00    reference energy to select bands
   IMIX   =      4    mixing-type and parameters
     AMIX     =   0.40;   BMIX     =  1.00
     AMIX_MAG =   1.60;   BMIX_MAG =  1.00
     AMIN     =   0.10
     WC   =   100.;   INIMIX=   1;  MIXPRE=   1;  MAXMIX= -45

 Intra band minimization:
   WEIMIN = 0.0010     energy-eigenvalue tresh-hold
   EBREAK =  0.45E-08  absolut break condition
   DEPER  =   0.30     relativ break condition  

   TIME   =   0.40     timestep for ELM

  volume/ion in A,a.u.               =      29.26       197.48
  Fermi-wavevector in a.u.,A,eV,Ry     =   1.136101  2.146920 17.561386  1.290725
  Thomas-Fermi vector in A             =   2.272806
 
 Write flags
   LWAVE        =      F    write WAVECAR
   LDOWNSAMPLE  =      F    k-point downsampling of WAVECAR
   LCHARG       =      F    write CHGCAR
   LVTOT        =      F    write LOCPOT, total local potential
   LVHAR        =      F    write LOCPOT, Hartree potential only
   LELF         =      F    write electronic localiz. function (ELF)
   LORBIT       =      0    0 simple, 1 ext, 2 COOP (PROOUT), +10 PAW based schemes


 Dipole corrections
   LMONO  =      F    monopole corrections only (constant potential shift)
   LDIPOL =      F    correct potential (dipole corrections)
   IDIPOL =      0    1-x, 2-y, 3-z, 4-all directions 
   EPSILON=  1.0000000 bulk dielectric constant

 Exchange correlation treatment:
   GGA     =    --    GGA type
   LEXCH   =     8    internal setting for exchange type
   VOSKOWN=      0    Vosko Wilk Nusair interpolation
   LHFCALC =     F    Hartree Fock is set to
   LHFONE  =     F    Hartree Fock one center treatment
   AEXX    =    0.0000 exact exchange contribution

 Linear response parameters
   LEPSILON=     F    determine dielectric tensor
   LRPA    =     F    only Hartree local field effects (RPA)
   LNABLA  =     F    use nabla operator in PAW spheres
   LVEL    =     F    velocity operator in full k-point grid
   LINTERFAST=   F  fast interpolation
   KINTER  =     0    interpolate to denser k-point grid
   CSHIFT  =0.1000    complex shift for real part using Kramers Kronig
   OMEGAMAX=  -1.0    maximum frequency
   DEG_THRESHOLD= 0.2000000E-02 threshold for treating states as degnerate
   RTIME   =   -0.100 relaxation time in fs
  (WPLASMAI=    0.000 imaginary part of plasma frequency in eV, 0.658/RTIME)
   DFIELD  = 0.0000000 0.0000000 0.0000000 field for delta impulse in time
 
 Orbital magnetization related:
   ORBITALMAG=     F  switch on orbital magnetization
   LCHIMAG   =     F  perturbation theory with respect to B field
   DQ        =  0.001000  dq finite difference perturbation B field
   LLRAUG    =     F  two centre corrections for induced B field



--------------------------------------------------------------------------------------------------------


 finite differences
   using selective dynamics as specified on POSCAR
   WARNING: If single coordinates had been selected the selection of coordinates
            is made according to the corresponding   d i r e c t   coordinates!
            Don't support selection of single cartesian coordinates -- sorry ...
  !
 charge density and potential will be updated during run
 spin polarized calculation
 RMM-DIIS sequential band-by-band and
  variant of blocked Davidson during initial phase
 perform sub-space diagonalisation
    before iterative eigenvector-optimisation
 modified Broyden-mixing scheme, WC =      100.0
 initial mixing is a Kerker type mixing with AMIX =  0.4000 and BMIX =      1.0000
 Hartree-type preconditioning will be used
 using additional bands          159
 real space projection scheme for non local part
 use partial core corrections
 calculate Harris-corrections to forces 
   (improved forces if not selfconsistent)
 use gradient corrections 
 use of overlap-Matrix (Vanderbilt PP)
 Fermi weights with tetrahedron method with Bloechl corrections


--------------------------------------------------------------------------------------------------------


  energy-cutoff  :      550.00
  volume of cell :     2399.65
      direct lattice vectors                 reciprocal lattice vectors
    11.222700119  0.000000000  0.000000000     0.089105116 -0.051444863  0.000000000
     5.611350060  9.719143402  0.000000000     0.000000000  0.102889726  0.000000000
     0.000000000  0.000000000 22.000000000     0.000000000  0.000000000  0.045454545

  length of vectors
    11.222700119 11.222700119 22.000000000     0.102889726  0.102889726  0.045454545


 
 k-points in units of 2pi/SCALE and weight: mesh auto                               
   0.00000000  0.00000000  0.00000000       0.250
   0.04455256 -0.02572243  0.00000000       0.250
   0.00000000  0.05144486  0.00000000       0.250
   0.04455256  0.02572243  0.00000000       0.250
 
 k-points in reciprocal lattice and weights: mesh auto                               
   0.00000000  0.00000000  0.00000000       0.250
   0.50000000  0.00000000  0.00000000       0.250
   0.00000000  0.50000000  0.00000000       0.250
   0.50000000  0.50000000  0.00000000       0.250
 
 position of ions in fractional coordinates (direct lattice) 
   0.78499034  0.86926419  0.32672666
   0.03513266  0.86921456  0.32661814
   0.03513339  0.61904320  0.32645286
   0.78625179  0.86821383  0.02299107
   0.03640352  0.86818902  0.02292297
   0.03625844  0.61844073  0.02284415
   0.61913596  0.20192869  0.12607170
   0.36940609  0.95115487  0.12602505
   0.03482216  0.36903370  0.32632429
   0.03606542  0.36857163  0.02290577
   0.86870357  0.20205885  0.12602033
   0.95214969  0.53548649  0.22607293
   0.28476600  0.11904347  0.32634987
   0.53492170  0.61911485  0.32845413
   0.28464668  0.36893238  0.32634421
   0.28657501  0.11803702  0.02293025
   0.53631852  0.61821668  0.02321743
   0.28638652  0.36839081  0.02303006
   0.61920490  0.95178343  0.12600004
   0.70186714  0.78541004  0.22647505
   0.86900791  0.70203347  0.12597695
   0.61877826  0.45223622  0.12632176
   0.28542471  0.86804291  0.32751071
   0.28632754  0.86810864  0.02298004
   0.61902196  0.70191277  0.12612993
   0.20197180  0.03544445  0.22617413
   0.86822995  0.95300803  0.42982830
   0.11616735  0.45251314  0.42942178
   0.11674095  0.95372797  0.42990308
   0.87085853  0.45096979  0.42957557
   0.36608471  0.95570314  0.42960303
   0.86890461  0.20160685  0.42992039
   0.11738028  0.20229486  0.42948854
   0.61791131  0.95435525  0.42977088
   0.86953880  0.70273256  0.42977883
   0.36774175  0.20096621  0.42943047
   0.36317221  0.70728929  0.43372746
   0.62246525  0.44808315  0.43368524
   0.11432416  0.70465751  0.42967167
   0.61979808  0.19914458  0.42969102
   0.53456774  0.36967219  0.32799218
   0.53639303  0.36812033  0.02311911
   0.53487652  0.11930247  0.32645264
   0.53653274  0.11811382  0.02286158
   0.86833365  0.45222964  0.12602672
   0.11907072  0.45217294  0.12581554
   0.03492173  0.11906445  0.32650627
   0.03617919  0.11809522  0.02295240
   0.11920469  0.95152941  0.12602904
   0.36260138  0.44739552  0.43124834
   0.45196759  0.53561197  0.22723694
   0.62271361  0.70751863  0.43121020
   0.36931446  0.20189847  0.12580415
   0.11886244  0.20177366  0.12541071
   0.95203177  0.78557761  0.22634893
   0.78507264  0.61894071  0.32676609
   0.28546639  0.61879149  0.32798448
   0.78633552  0.61825174  0.02295089
   0.28620276  0.61831584  0.02312498
   0.36938447  0.70165958  0.12631350
   0.36949995  0.45227131  0.12622789
   0.20152618  0.28508967  0.22581466
   0.78382331  0.36965058  0.32750274
   0.78607918  0.36832012  0.02298870
   0.95200933  0.03566683  0.22637051
   0.45196070  0.78517269  0.22680551
   0.70158281  0.53557204  0.22679034
   0.20254701  0.78524929  0.22666104
   0.45180733  0.03580266  0.22607831
   0.11905067  0.70206650  0.12606638
   0.70196662  0.03564484  0.22635719
   0.78495181  0.11938991  0.32664824
   0.53466369  0.86937834  0.32675361
   0.78625173  0.11831170  0.02294235
   0.53632594  0.86827979  0.02293428
   0.20223030  0.53561959  0.22633031
   0.95182407  0.28556609  0.22617884
   0.86917189  0.95194372  0.12601441
   0.70167157  0.28611195  0.22665332
   0.45198067  0.28580174  0.22635273
   0.44151409  0.52681132  0.46945646
   0.54518722  0.63080647  0.47020078
 
 position of ions in cartesian coordinates  (Angst):
  13.68745683  8.44850329  7.18798662
   5.27175052  8.44802096  7.18559904
   3.86795963  6.01656966  7.18196288
  13.69571983  8.43829474  0.50580362
   5.28025826  8.43805355  0.50430524
   3.87720505  6.01071419  0.50257133
   8.08146978  1.96257392  2.77357741
   9.48299672  9.24441059  2.77255104
   2.46157592  3.58669149  7.17913445
   2.47293587  3.58220054  0.50392689
  10.88302254  1.96383892  2.77244734
  13.69049256  5.20447001  4.97360452
   3.86383800  1.15700054  7.17969716
   9.47733595  6.01726597  7.22599090
   5.26471305  3.58570667  7.17957270
   3.87849243  1.14721877  0.50446548
   9.48797217  6.00853659  0.51078335
   5.28119981  3.58044314  0.50666130
  12.28994092  9.25051969  2.77200092
  12.28405508  7.63351284  4.98245107
  13.69197066  6.82316394  2.77149287
   9.48201864  4.39534870  2.77907878
   8.07412852  8.43663351  7.20523568
   8.08462965  8.43727240  0.50556094
  10.88577609  6.82199088  2.77485847
   2.46556020  0.34448973  4.97583077
  15.09154596  9.26242167  9.45622261
   3.84292096  4.39804009  9.44727920
   6.66185019  9.26941886  9.45786769
  12.30393353  4.38304004  9.45066264
   9.47124385  9.28861587  9.45126677
  10.88274249  1.95944584  9.45824851
   2.45247099  1.96613272  9.44874794
  12.28985467  9.27551553  9.45495936
  13.70185159  6.82995854  9.45513428
   5.25474711  1.95321938  9.44747032
   8.04462054  6.87424602  9.54200415
   9.50009225  4.35498438  9.54107529
   5.23710568  6.84866735  9.45277676
   8.07327786  1.93551468  9.45320252
   8.07365351  3.59289699  7.21582797
   8.08543016  3.57781432  0.50862044
   6.67220670  1.15951782  7.18195805
   6.68412403  1.14796511  0.50295485
  12.28266697  4.39528469  2.77258791
   3.87359568  4.39473367  2.76794183
   1.06002838  1.15720448  7.18313790
   1.06870180  1.14778433  0.50495290
   6.67716312  9.24805082  2.77263887
   6.57985943  4.34830123  9.48746344
   8.07780304  5.20568957  4.99921275
  10.95866275  6.87647500  9.48662441
   5.27762841  1.96228018  2.76769124
   2.46618013  1.96106718  2.75903552
  15.09251803  7.63514145  4.97967656
  12.28372778  6.01557355  7.18885392
   6.67595938  6.01412319  7.21565861
  12.29403473  6.00887734  0.50491950
   6.68155436  6.00950034  0.50874946
   8.08274868  6.81953005  2.77889707
   6.68463971  4.39568970  2.77701352
   3.86140581  2.77082743  4.96792253
  10.87085284  3.59268704  7.20506017
  10.88870398  3.57975603  0.50575143
  10.88425434  0.34665108  4.98015121
   9.47809830  7.63120601  4.98972118
  10.87893571  5.20530146  4.98938755
   6.67943296  7.63195041  4.98654280
   5.27139941  0.34797117  4.97372281
   5.27561084  6.82348498  2.77346028
   8.07797656  0.34643733  4.97985815
   9.47921736  1.16036770  7.18626131
  10.87875646  8.44961273  7.18857931
   9.48775579  1.14988838  0.50473175
  10.89124700  8.43893579  0.50455412
   5.27511897  5.20576357  4.97926675
  12.28444746  2.77545782  4.97593458
  15.09614490  9.25207753  2.77231702
   9.48012388  2.78076305  4.98637314
   6.67617709  2.77774812  4.97976007
   7.91110298  5.12015481 10.32804216
   9.65814860  6.13089851 10.34441717
 


--------------------------------------------------------------------------------------------------------


 k-point  1 :   0.0000 0.0000 0.0000  plane waves:   70321
 k-point  2 :   0.5000 0.0000 0.0000  plane waves:   70264
 k-point  3 :   0.0000 0.5000 0.0000  plane waves:   70264
 k-point  4 :   0.5000 0.5000 0.0000  plane waves:   70264

 maximum and minimum number of plane-waves per node :     70321    70264

 maximum number of plane-waves:     70321
 maximum index in each direction: 
   IXMAX=   21   IYMAX=   21   IZMAX=   42
   IXMIN=  -21   IYMIN=  -21   IZMIN=  -42


 serial   3D FFT for wavefunctions
 parallel 3D FFT for charge:
    minimum data exchange during FFTs selected (reduces bandwidth)


 total amount of memory used by VASP MPI-rank0   418519. kBytes
=======================================================================

   base      :      30000. kBytes
   nonlr-proj:     108278. kBytes
   fftplans  :      15524. kBytes
   grid      :     133430. kBytes
   one-center:       2550. kBytes
   wavefun   :     128737. kBytes
 
     INWAV:  cpu time    0.0001: real time    0.0001
 Broyden mixing: mesh for mixing (old mesh)
   NGX = 43   NGY = 43   NGZ = 85
  (NGX  =180   NGY  =180   NGZ  =336)
  gives a total of 157165 points

 initial charge density was supplied:
 charge density of overlapping atoms calculated
 number of electron     802.0000000 magnetization      82.0000000
 keeping initial charge density in first step


--------------------------------------------------------------------------------------------------------


 Maximum index for non-local projection operator         7665
 Maximum index for augmentation-charges         1774 (set IRDMAX)


--------------------------------------------------------------------------------------------------------


 First call to EWALD:  gamma=   0.132
 Maximum number of real-space cells 4x 4x 2
 Maximum number of reciprocal cells 2x 2x 4

    FEWALD:  cpu time    0.0038: real time    0.0038


--------------------------------------- Iteration      1(   1)  ---------------------------------------


    POTLOK:  cpu time    0.5690: real time    0.5723
    SETDIJ:  cpu time    0.0411: real time    0.0415
     EDDAV:  cpu time   60.5981: real time   60.8337
 BZINTS: Fermi energy: 14.478431;802.000000 electrons
         Band energy:6011.523653;  BLOECHL correction: -0.007072
       DOS:  cpu time    0.0182: real time    0.0183
    --------------------------------------------
      LOOP:  cpu time   61.2264: real time   61.4659

 eigenvalue-minimisations  :  8960
 total energy-change (2. order) : 0.5369359E+04  (-0.3883730E+05)
 number of electron     802.0000000 magnetization      82.0000000
 augmentation part      802.0000000 magnetization      82.0000000

 Free energy of the ion-electron system (eV)
  ---------------------------------------------------
  alpha Z        PSCENC =      2543.22265468
  Ewald energy   TEWEN  =    178497.31387635
  -Hartree energ DENC   =   -242592.03580314
  -exchange      EXHF   =         0.00000000
  -V(xc)+E(xc)   XCENC  =       292.80712958
  PAW double counting   =     55687.29074418   -53424.98231869
  entropy T*S    EENTRO =         0.00000000
  eigenvalues    EBANDS =      6011.52365294
  atomic energy  EATOM  =     58354.21911236
  Solvation  Ediel_sol  =         0.00000000
  ---------------------------------------------------
  free energy    TOTEN  =      5369.35904825 eV

  energy without entropy =     5369.35904825  energy(sigma->0) =     5369.35904825


--------------------------------------------------------------------------------------------------------




--------------------------------------- Iteration      1(   2)  ---------------------------------------


     EDDAV:  cpu time   65.2757: real time   65.4305
 BZINTS: Fermi energy:  4.321904;802.000000 electrons
         Band energy: 410.958411;  BLOECHL correction: -0.316572
       DOS:  cpu time    0.0173: real time    0.0173
    --------------------------------------------
      LOOP:  cpu time   65.2929: real time   65.4478

 eigenvalue-minimisations  :  9920
 total energy-change (2. order) :-0.5600565E+04  (-0.5128447E+04)
 number of electron     802.0000000 magnetization      82.0000000
 augmentation part      802.0000000 magnetization      82.0000000

 Free energy of the ion-electron system (eV)
  ---------------------------------------------------
  alpha Z        PSCENC =      2543.22265468
  Ewald energy   TEWEN  =    178497.31387635
  -Hartree energ DENC   =   -242592.03580314
  -exchange      EXHF   =         0.00000000
  -V(xc)+E(xc)   XCENC  =       292.80712958
  PAW double counting   =     55687.29074418   -53424.98231869
  entropy T*S    EENTRO =         0.00000000
  eigenvalues    EBANDS =       410.95841086
  atomic energy  EATOM  =     58354.21911236
  Solvation  Ediel_sol  =         0.00000000
  ---------------------------------------------------
  free energy    TOTEN  =      -231.20619383 eV

  energy without entropy =     -231.20619383  energy(sigma->0) =     -231.20619383


--------------------------------------------------------------------------------------------------------




--------------------------------------- Iteration      1(   3)  ---------------------------------------


     EDDAV:  cpu time   66.7086: real time   66.9292
 BZINTS: Fermi energy:  3.775246;802.000000 electrons
         Band energy: 150.897129;  BLOECHL correction: -0.437243
       DOS:  cpu time    0.0181: real time    0.0181
    --------------------------------------------
      LOOP:  cpu time   66.7267: real time   66.9473

 eigenvalue-minimisations  : 10200
 total energy-change (2. order) :-0.2600613E+03  (-0.2461202E+03)
 number of electron     802.0000000 magnetization      82.0000000
 augmentation part      802.0000000 magnetization      82.0000000

 Free energy of the ion-electron system (eV)
  ---------------------------------------------------
  alpha Z        PSCENC =      2543.22265468
  Ewald energy   TEWEN  =    178497.31387635
  -Hartree energ DENC   =   -242592.03580314
  -exchange      EXHF   =         0.00000000
  -V(xc)+E(xc)   XCENC  =       292.80712958
  PAW double counting   =     55687.29074418   -53424.98231869
  entropy T*S    EENTRO =         0.00000000
  eigenvalues    EBANDS =       150.89712866
  atomic energy  EATOM  =     58354.21911236
  Solvation  Ediel_sol  =         0.00000000
  ---------------------------------------------------
  free energy    TOTEN  =      -491.26747602 eV

  energy without entropy =     -491.26747602  energy(sigma->0) =     -491.26747602


--------------------------------------------------------------------------------------------------------




--------------------------------------- Iteration      1(   4)  ---------------------------------------


     EDDAV:  cpu time   68.6674: real time   68.8323
 BZINTS: Fermi energy:  3.759965;802.000000 electrons
         Band energy: 145.427957;  BLOECHL correction: -0.441312
       DOS:  cpu time    0.0189: real time    0.0189
    --------------------------------------------
      LOOP:  cpu time   68.6863: real time   68.8512

 eigenvalue-minimisations  : 10560
 total energy-change (2. order) :-0.5469171E+01  (-0.5437278E+01)
 number of electron     802.0000000 magnetization      82.0000000
 augmentation part      802.0000000 magnetization      82.0000000

 Free energy of the ion-electron system (eV)
  ---------------------------------------------------
  alpha Z        PSCENC =      2543.22265468
  Ewald energy   TEWEN  =    178497.31387635
  -Hartree energ DENC   =   -242592.03580314
  -exchange      EXHF   =         0.00000000
  -V(xc)+E(xc)   XCENC  =       292.80712958
  PAW double counting   =     55687.29074418   -53424.98231869
  entropy T*S    EENTRO =         0.00000000
  eigenvalues    EBANDS =       145.42795745
  atomic energy  EATOM  =     58354.21911236
  Solvation  Ediel_sol  =         0.00000000
  ---------------------------------------------------
  free energy    TOTEN  =      -496.73664724 eV

  energy without entropy =     -496.73664724  energy(sigma->0) =     -496.73664724


--------------------------------------------------------------------------------------------------------




--------------------------------------- Iteration      1(   5)  ---------------------------------------


     EDDAV:  cpu time   67.3626: real time   67.5225
 BZINTS: Fermi energy:  3.759545;802.000000 electrons
         Band energy: 145.282896;  BLOECHL correction: -0.439947
       DOS:  cpu time    0.0180: real time    0.0180
    CHARGE:  cpu time    3.3343: real time    3.3425
    MIXING:  cpu time    0.0103: real time    0.0112
    --------------------------------------------
      LOOP:  cpu time   70.7253: real time   70.8943

 eigenvalue-minimisations  : 10320
 total energy-change (2. order) :-0.1450616E+00  (-0.1462475E+00)
 number of electron     801.9999980 magnetization      76.8592375
 augmentation part      233.1171396 magnetization      55.1526442

 Broyden mixing:
  rms(total) = 0.10345E+02    rms(broyden)= 0.10345E+02
  rms(prec ) = 0.10473E+02
  weight for this iteration     100.00

 Free energy of the ion-electron system (eV)
  ---------------------------------------------------
  alpha Z        PSCENC =      2543.22265468
  Ewald energy   TEWEN  =    178497.31387635
  -Hartree energ DENC   =   -242592.03580314
  -exchange      EXHF   =         0.00000000
  -V(xc)+E(xc)   XCENC  =       292.80712958
  PAW double counting   =     55687.29074418   -53424.98231869
  entropy T*S    EENTRO =         0.00000000
  eigenvalues    EBANDS =       145.28289583
  atomic energy  EATOM  =     58354.21911236
  Solvation  Ediel_sol  =         0.00000000
  ---------------------------------------------------
  free energy    TOTEN  =      -496.88170886 eV

  energy without entropy =     -496.88170886  energy(sigma->0) =     -496.88170886


--------------------------------------------------------------------------------------------------------




--------------------------------------- Iteration      1(   6)  ---------------------------------------


    POTLOK:  cpu time    0.5133: real time    0.5146
    SETDIJ:  cpu time    0.0404: real time    0.0405
    EDDIAG:  cpu time    9.6857: real time    9.7094
  RMM-DIIS:  cpu time   39.7498: real time   39.8978
    ORTHCH:  cpu time    1.2778: real time    1.2808
 BZINTS: Fermi energy:  2.660410;802.000000 electrons
         Band energy:-670.738686;  BLOECHL correction: -0.081030
       DOS:  cpu time    0.0193: real time    0.0194
    CHARGE:  cpu time    3.3114: real time    3.3192
    MIXING:  cpu time    0.0112: real time    0.1033
    --------------------------------------------
      LOOP:  cpu time   54.6089: real time   54.8849

 eigenvalue-minimisations  :  9010
 total energy-change (2. order) : 0.1668535E+02  (-0.7966789E+01)
 number of electron     801.9999978 magnetization      73.0057139
 augmentation part      246.1803189 magnetization      52.2170435

 Broyden mixing:
  rms(total) = 0.80394E+01    rms(broyden)= 0.80394E+01
  rms(prec ) = 0.88315E+01
  weight for this iteration     100.00

 eigenvalues of (default mixing * dielectric matrix)
  average eigenvalue GAMMA=   0.8260
  0.8260

 Free energy of the ion-electron system (eV)
  ---------------------------------------------------
  alpha Z        PSCENC =      2543.22265468
  Ewald energy   TEWEN  =    178497.31387635
  -Hartree energ DENC   =   -241622.21031387
  -exchange      EXHF   =         0.00000000
  -V(xc)+E(xc)   XCENC  =       276.23615094
  PAW double counting   =     62059.65763817   -59917.89679429
  entropy T*S    EENTRO =         0.00000000
  eigenvalues    EBANDS =      -670.73868611
  atomic energy  EATOM  =     58354.21911236
  Solvation  Ediel_sol  =         0.00000000
  ---------------------------------------------------
  free energy    TOTEN  =      -480.19636176 eV

  energy without entropy =     -480.19636176  energy(sigma->0) =     -480.19636176


--------------------------------------------------------------------------------------------------------




--------------------------------------- Iteration      1(   7)  ---------------------------------------


    POTLOK:  cpu time    0.5000: real time    0.5012
    SETDIJ:  cpu time    0.0402: real time    0.0403
    EDDIAG:  cpu time    9.6737: real time    9.6969
  RMM-DIIS:  cpu time   38.7293: real time   38.8211
    ORTHCH:  cpu time    1.2867: real time    1.2898
 BZINTS: Fermi energy:  4.522668;802.000000 electrons
         Band energy: 230.848817;  BLOECHL correction: -0.105829
       DOS:  cpu time    0.0188: real time    0.0189
    CHARGE:  cpu time    3.2951: real time    3.3029
    MIXING:  cpu time    0.0114: real time    0.0115
    --------------------------------------------
      LOOP:  cpu time   53.5553: real time   53.6825

 eigenvalue-minimisations  :  8987
 total energy-change (2. order) :-0.1093644E+03  (-0.1152259E+02)
 number of electron     801.9999982 magnetization      65.4694320
 augmentation part      239.5558536 magnetization      54.8145544

 Broyden mixing:
  rms(total) = 0.97458E+01    rms(broyden)= 0.97458E+01
  rms(prec ) = 0.12418E+02
  weight for this iteration     100.00

 eigenvalues of (default mixing * dielectric matrix)
  average eigenvalue GAMMA=   0.7784
  1.2682  0.2885

 Free energy of the ion-electron system (eV)
  ---------------------------------------------------
  alpha Z        PSCENC =      2543.22265468
  Ewald energy   TEWEN  =    178497.31387635
  -Hartree energ DENC   =   -242589.34549006
  -exchange      EXHF   =         0.00000000
  -V(xc)+E(xc)   XCENC  =       269.41172643
  PAW double counting   =     65476.79882388   -63372.03025140
  entropy T*S    EENTRO =         0.00000000
  eigenvalues    EBANDS =       230.84881699
  atomic energy  EATOM  =     58354.21911236
  Solvation  Ediel_sol  =         0.00000000
  ---------------------------------------------------
  free energy    TOTEN  =      -589.56073077 eV

  energy without entropy =     -589.56073077  energy(sigma->0) =     -589.56073077


--------------------------------------------------------------------------------------------------------




--------------------------------------- Iteration      1(   8)  ---------------------------------------


    POTLOK:  cpu time    0.5005: real time    0.5017
    SETDIJ:  cpu time    0.0403: real time    0.0404
    EDDIAG:  cpu time    9.6669: real time    9.6900
  RMM-DIIS:  cpu time   39.3176: real time   39.4108
    ORTHCH:  cpu time    1.2827: real time    1.2857
 BZINTS: Fermi energy:  2.904402;802.000000 electrons
         Band energy:-410.393857;  BLOECHL correction: -0.072296
       DOS:  cpu time    0.0184: real time    0.0184
    CHARGE:  cpu time    3.2732: real time    3.2810
    MIXING:  cpu time    0.0113: real time    0.0113
    --------------------------------------------
      LOOP:  cpu time   54.1109: real time   54.2393

 eigenvalue-minimisations  :  9015
 total energy-change (2. order) : 0.1143098E+03  (-0.5507291E+01)
 number of electron     801.9999980 magnetization      62.0795918
 augmentation part      249.7148750 magnetization      47.3364905

 Broyden mixing:
  rms(total) = 0.48179E+01    rms(broyden)= 0.48179E+01
  rms(prec ) = 0.58644E+01
  weight for this iteration     100.00

 eigenvalues of (default mixing * dielectric matrix)
  average eigenvalue GAMMA=   0.9164
  1.9484  0.5451  0.2556

 Free energy of the ion-electron system (eV)
  ---------------------------------------------------
  alpha Z        PSCENC =      2543.22265468
  Ewald energy   TEWEN  =    178497.31387635
  -Hartree energ DENC   =   -241768.01987523
  -exchange      EXHF   =         0.00000000
  -V(xc)+E(xc)   XCENC  =       268.43803472
  PAW double counting   =     70223.00641908   -68183.03729018
  entropy T*S    EENTRO =         0.00000000
  eigenvalues    EBANDS =      -410.39385724
  atomic energy  EATOM  =     58354.21911236
  Solvation  Ediel_sol  =         0.00000000
  ---------------------------------------------------
  free energy    TOTEN  =      -475.25092546 eV

  energy without entropy =     -475.25092546  energy(sigma->0) =     -475.25092546


--------------------------------------------------------------------------------------------------------




--------------------------------------- Iteration      1(   9)  ---------------------------------------


    POTLOK:  cpu time    0.5086: real time    0.5098
    SETDIJ:  cpu time    0.0441: real time    0.0442
    EDDIAG:  cpu time    9.7044: real time    9.7274
  RMM-DIIS:  cpu time   39.2505: real time   39.3440
    ORTHCH:  cpu time    1.2872: real time    1.2902
 BZINTS: Fermi energy:  3.379242;802.000000 electrons
         Band energy:-510.991746;  BLOECHL correction: -0.260119
       DOS:  cpu time    0.0182: real time    0.0182
    CHARGE:  cpu time    3.2878: real time    3.2956
    MIXING:  cpu time    0.0120: real time    0.0120
    --------------------------------------------
      LOOP:  cpu time   54.1128: real time   54.2415

 eigenvalue-minimisations  :  8995
 total energy-change (2. order) :-0.4319465E+02  (-0.5401046E+01)
 number of electron     801.9999978 magnetization      59.7161886
 augmentation part      247.8413606 magnetization      46.0333512

 Broyden mixing:
  rms(total) = 0.67329E+01    rms(broyden)= 0.67329E+01
  rms(prec ) = 0.10577E+02
  weight for this iteration     100.00

 eigenvalues of (default mixing * dielectric matrix)
  average eigenvalue GAMMA=   0.7962
  2.1624  0.6003  0.2516  0.1704

 Free energy of the ion-electron system (eV)
  ---------------------------------------------------
  alpha Z        PSCENC =      2543.22265468
  Ewald energy   TEWEN  =    178497.31387635
  -Hartree energ DENC   =   -241704.08372579
  -exchange      EXHF   =         0.00000000
  -V(xc)+E(xc)   XCENC  =       270.25719614
  PAW double counting   =     71391.28585552   -69359.66879746
  entropy T*S    EENTRO =         0.00000000
  eigenvalues    EBANDS =      -510.99174604
  atomic energy  EATOM  =     58354.21911236
  Solvation  Ediel_sol  =         0.00000000
  ---------------------------------------------------
  free energy    TOTEN  =      -518.44557424 eV

  energy without entropy =     -518.44557424  energy(sigma->0) =     -518.44557424


--------------------------------------------------------------------------------------------------------




--------------------------------------- Iteration      1(  10)  ---------------------------------------


    POTLOK:  cpu time    0.5082: real time    0.5094
    SETDIJ:  cpu time    0.0407: real time    0.0408
    EDDIAG:  cpu time    9.7306: real time    9.7536
  RMM-DIIS:  cpu time   39.3402: real time   39.4332
    ORTHCH:  cpu time    1.2879: real time    1.2909
 BZINTS: Fermi energy:  2.968082;802.000000 electrons
         Band energy:-420.241347;  BLOECHL correction: -0.139823
       DOS:  cpu time    0.0185: real time    0.0186
    CHARGE:  cpu time    3.2867: real time    3.2945
    MIXING:  cpu time    0.0125: real time    0.0125
    --------------------------------------------
      LOOP:  cpu time   54.2253: real time   54.3536

 eigenvalue-minimisations  :  9015
 total energy-change (2. order) : 0.4066831E+02  (-0.1606013E+01)
 number of electron     801.9999978 magnetization      56.4104021
 augmentation part      249.3964378 magnetization      42.2077305

 Broyden mixing:
  rms(total) = 0.49487E+01    rms(broyden)= 0.49487E+01
  rms(prec ) = 0.65855E+01
  weight for this iteration     100.00

 eigenvalues of (default mixing * dielectric matrix)
  average eigenvalue GAMMA=   0.7187
  2.3064  0.6187  0.3177  0.2305  0.1205

 Free energy of the ion-electron system (eV)
  ---------------------------------------------------
  alpha Z        PSCENC =      2543.22265468
  Ewald energy   TEWEN  =    178497.31387635
  -Hartree energ DENC   =   -241748.95634753
  -exchange      EXHF   =         0.00000000
  -V(xc)+E(xc)   XCENC  =       270.61756553
  PAW double counting   =     72044.60967948   -70018.56245804
  entropy T*S    EENTRO =         0.00000000
  eigenvalues    EBANDS =      -420.24134727
  atomic energy  EATOM  =     58354.21911236
  Solvation  Ediel_sol  =         0.00000000
  ---------------------------------------------------
  free energy    TOTEN  =      -477.77726444 eV

  energy without entropy =     -477.77726444  energy(sigma->0) =     -477.77726444


--------------------------------------------------------------------------------------------------------




--------------------------------------- Iteration      1(  11)  ---------------------------------------


    POTLOK:  cpu time    0.5094: real time    0.5106
    SETDIJ:  cpu time    0.0411: real time    0.0412
    EDDIAG:  cpu time    9.6869: real time    9.7098
  RMM-DIIS:  cpu time   39.6211: real time   39.7164
    ORTHCH:  cpu time    1.2917: real time    1.2947
 BZINTS: Fermi energy:  2.928851;802.000000 electrons
         Band energy:-342.475828;  BLOECHL correction: -0.377507
       DOS:  cpu time    0.0187: real time    0.0187
    CHARGE:  cpu time    3.3119: real time    3.3197
    MIXING:  cpu time    0.0131: real time    0.0844
    --------------------------------------------
      LOOP:  cpu time   54.4938: real time   54.6956

 eigenvalue-minimisations  :  9011
 total energy-change (2. order) : 0.1987335E+02  (-0.8701844E+00)
 number of electron     801.9999978 magnetization      55.2554807
 augmentation part      249.3843355 magnetization      38.3471149

 Broyden mixing:
  rms(total) = 0.28820E+01    rms(broyden)= 0.28820E+01
  rms(prec ) = 0.42431E+01
  weight for this iteration     100.00

 eigenvalues of (default mixing * dielectric matrix)
  average eigenvalue GAMMA=   0.6815
  2.1595  0.6318  0.6318  0.2807  0.2807  0.1043

 Free energy of the ion-electron system (eV)
  ---------------------------------------------------
  alpha Z        PSCENC =      2543.22265468
  Ewald energy   TEWEN  =    178497.31387635
  -Hartree energ DENC   =   -241803.45037274
  -exchange      EXHF   =         0.00000000
  -V(xc)+E(xc)   XCENC  =       271.24782869
  PAW double counting   =     72686.81686120   -70664.79805177
  entropy T*S    EENTRO =         0.00000000
  eigenvalues    EBANDS =      -342.47582789
  atomic energy  EATOM  =     58354.21911236
  Solvation  Ediel_sol  =         0.00000000
  ---------------------------------------------------
  free energy    TOTEN  =      -457.90391912 eV

  energy without entropy =     -457.90391912  energy(sigma->0) =     -457.90391912


--------------------------------------------------------------------------------------------------------




--------------------------------------- Iteration      1(  12)  ---------------------------------------


    POTLOK:  cpu time    0.5123: real time    0.5135
    SETDIJ:  cpu time    0.0408: real time    0.0409
    EDDIAG:  cpu time    9.6769: real time    9.7000
  RMM-DIIS:  cpu time   39.3572: real time   39.4505
    ORTHCH:  cpu time    1.3218: real time    1.3259
 BZINTS: Fermi energy:  2.918967;802.000000 electrons
         Band energy:-309.477284;  BLOECHL correction: -0.408301
       DOS:  cpu time    0.0173: real time    0.0173
    CHARGE:  cpu time    3.3239: real time    3.3324
    MIXING:  cpu time    0.0134: real time    0.0134
    --------------------------------------------
      LOOP:  cpu time   54.2635: real time   54.3939

 eigenvalue-minimisations  :  9020
 total energy-change (2. order) : 0.7827533E-01  (-0.5598103E+00)
 number of electron     801.9999979 magnetization      53.3995813
 augmentation part      248.6002111 magnetization      34.7870067

 Broyden mixing:
  rms(total) = 0.16732E+01    rms(broyden)= 0.16732E+01
  rms(prec ) = 0.20130E+01
  weight for this iteration     100.00

 eigenvalues of (default mixing * dielectric matrix)
  average eigenvalue GAMMA=   0.6790
  2.0132  0.8658  0.8658  0.3341  0.2849  0.2849  0.1043

 Free energy of the ion-electron system (eV)
  ---------------------------------------------------
  alpha Z        PSCENC =      2543.22265468
  Ewald energy   TEWEN  =    178497.31387635
  -Hartree energ DENC   =   -241844.02277389
  -exchange      EXHF   =         0.00000000
  -V(xc)+E(xc)   XCENC  =       270.41424084
  PAW double counting   =     72264.61780983   -70234.11327983
  entropy T*S    EENTRO =         0.00000000
  eigenvalues    EBANDS =      -309.47728412
  atomic energy  EATOM  =     58354.21911236
  Solvation  Ediel_sol  =         0.00000000
  ---------------------------------------------------
  free energy    TOTEN  =      -457.82564379 eV

  energy without entropy =     -457.82564379  energy(sigma->0) =     -457.82564379


--------------------------------------------------------------------------------------------------------




--------------------------------------- Iteration      1(  13)  ---------------------------------------


    POTLOK:  cpu time    0.5013: real time    0.5027
    SETDIJ:  cpu time    0.0410: real time    0.0411
    EDDIAG:  cpu time    9.6838: real time    9.7084
  RMM-DIIS:  cpu time   39.4106: real time   39.5110
    ORTHCH:  cpu time    1.2787: real time    1.2819
 BZINTS: Fermi energy:  2.970475;802.000000 electrons
         Band energy:-291.125007;  BLOECHL correction: -0.464892
       DOS:  cpu time    0.0176: real time    0.0176
    CHARGE:  cpu time    3.3216: real time    3.3301
    MIXING:  cpu time    0.0139: real time    0.0139
    --------------------------------------------
      LOOP:  cpu time   54.2686: real time   54.4068

 eigenvalue-minimisations  :  9011
 total energy-change (2. order) :-0.3934053E+01  (-0.3548919E+00)
 number of electron     801.9999978 magnetization      51.0296683
 augmentation part      248.2881315 magnetization      33.3222200

 Broyden mixing:
  rms(total) = 0.19293E+01    rms(broyden)= 0.19293E+01
  rms(prec ) = 0.25603E+01
  weight for this iteration     100.00

 eigenvalues of (default mixing * dielectric matrix)
  average eigenvalue GAMMA=   0.6678
  1.9870  0.9380  0.9380  0.5395  0.2975  0.2975  0.2405  0.1045

 Free energy of the ion-electron system (eV)
  ---------------------------------------------------
  alpha Z        PSCENC =      2543.22265468
  Ewald energy   TEWEN  =    178497.31387635
  -Hartree energ DENC   =   -241869.43328224
  -exchange      EXHF   =         0.00000000
  -V(xc)+E(xc)   XCENC  =       269.40728088
  PAW double counting   =     72001.92438948   -69967.28872166
  entropy T*S    EENTRO =         0.00000000
  eigenvalues    EBANDS =      -291.12500652
  atomic energy  EATOM  =     58354.21911236
  Solvation  Ediel_sol  =         0.00000000
  ---------------------------------------------------
  free energy    TOTEN  =      -461.75969667 eV

  energy without entropy =     -461.75969667  energy(sigma->0) =     -461.75969667


--------------------------------------------------------------------------------------------------------




--------------------------------------- Iteration      1(  14)  ---------------------------------------


    POTLOK:  cpu time    0.4992: real time    0.5005
    SETDIJ:  cpu time    0.0421: real time    0.0422
    EDDIAG:  cpu time    9.7113: real time    9.7361
  RMM-DIIS:  cpu time   39.4800: real time   39.5812
    ORTHCH:  cpu time    1.2770: real time    1.2804
 BZINTS: Fermi energy:  2.953914;802.000000 electrons
         Band energy:-278.272299;  BLOECHL correction: -0.480374
       DOS:  cpu time    0.0178: real time    0.0178
    CHARGE:  cpu time    3.3247: real time    3.3331
    MIXING:  cpu time    0.0141: real time    0.0141
    --------------------------------------------
      LOOP:  cpu time   54.3660: real time   54.5055

 eigenvalue-minimisations  :  9009
 total energy-change (2. order) : 0.6293094E-01  (-0.9298673E-01)
 number of electron     801.9999978 magnetization      48.9716484
 augmentation part      248.4039004 magnetization      30.3792406

 Broyden mixing:
  rms(total) = 0.95521E+00    rms(broyden)= 0.95521E+00
  rms(prec ) = 0.11338E+01
  weight for this iteration     100.00

 eigenvalues of (default mixing * dielectric matrix)
  average eigenvalue GAMMA=   0.6785
  2.0358  1.0825  1.0825  0.5173  0.4285  0.1044  0.3412  0.2570  0.2570

 Free energy of the ion-electron system (eV)
  ---------------------------------------------------
  alpha Z        PSCENC =      2543.22265468
  Ewald energy   TEWEN  =    178497.31387635
  -Hartree energ DENC   =   -241878.25194143
  -exchange      EXHF   =         0.00000000
  -V(xc)+E(xc)   XCENC  =       268.04189047
  PAW double counting   =     72179.61163254   -70147.58169128
  entropy T*S    EENTRO =         0.00000000
  eigenvalues    EBANDS =      -278.27229941
  atomic energy  EATOM  =     58354.21911236
  Solvation  Ediel_sol  =         0.00000000
  ---------------------------------------------------
  free energy    TOTEN  =      -461.69676573 eV

  energy without entropy =     -461.69676573  energy(sigma->0) =     -461.69676573


--------------------------------------------------------------------------------------------------------




--------------------------------------- Iteration      1(  15)  ---------------------------------------


    POTLOK:  cpu time    0.4963: real time    0.4975
    SETDIJ:  cpu time    0.0405: real time    0.0406
    EDDIAG:  cpu time    9.7381: real time    9.7630
  RMM-DIIS:  cpu time   39.4517: real time   39.5526
    ORTHCH:  cpu time    1.2829: real time    1.2862
 BZINTS: Fermi energy:  2.968469;802.000000 electrons
         Band energy:-265.619191;  BLOECHL correction: -0.493150
       DOS:  cpu time    0.0161: real time    0.0162
    CHARGE:  cpu time    3.3267: real time    3.3351
    MIXING:  cpu time    0.0166: real time    0.0166
    --------------------------------------------
      LOOP:  cpu time   54.3689: real time   54.5077

 eigenvalue-minimisations  :  9006
 total energy-change (2. order) :-0.2718943E+01  (-0.1143400E+00)
 number of electron     801.9999978 magnetization      44.8849893
 augmentation part      248.3756959 magnetization      26.5601577

 Broyden mixing:
  rms(total) = 0.79552E+00    rms(broyden)= 0.79552E+00
  rms(prec ) = 0.90790E+00
  weight for this iteration     100.00

 eigenvalues of (default mixing * dielectric matrix)
  average eigenvalue GAMMA=   0.7348
  2.0149  1.4828  1.4828  0.5717  0.5717  0.1044  0.3483  0.2683  0.2683  0.2350

 Free energy of the ion-electron system (eV)
  ---------------------------------------------------
  alpha Z        PSCENC =      2543.22265468
  Ewald energy   TEWEN  =    178497.31387635
  -Hartree energ DENC   =   -241890.80674660
  -exchange      EXHF   =         0.00000000
  -V(xc)+E(xc)   XCENC  =       266.30168556
  PAW double counting   =     72249.86898417   -70218.91608421
  entropy T*S    EENTRO =         0.00000000
  eigenvalues    EBANDS =      -265.61919122
  atomic energy  EATOM  =     58354.21911236
  Solvation  Ediel_sol  =         0.00000000
  ---------------------------------------------------
  free energy    TOTEN  =      -464.41570892 eV

  energy without entropy =     -464.41570892  energy(sigma->0) =     -464.41570892


--------------------------------------------------------------------------------------------------------




--------------------------------------- Iteration      1(  16)  ---------------------------------------


    POTLOK:  cpu time    0.5142: real time    0.5156
    SETDIJ:  cpu time    0.0437: real time    0.0438
    EDDIAG:  cpu time    9.6888: real time    9.7136
  RMM-DIIS:  cpu time   39.5447: real time   39.6460
    ORTHCH:  cpu time    1.2849: real time    1.2884
 BZINTS: Fermi energy:  2.993884;802.000000 electrons
         Band energy:-247.010132;  BLOECHL correction: -0.453544
       DOS:  cpu time    0.0184: real time    0.0184
    CHARGE:  cpu time    3.3275: real time    3.3359
    MIXING:  cpu time    0.0149: real time    0.0155
    --------------------------------------------
      LOOP:  cpu time   54.4372: real time   54.5772

 eigenvalue-minimisations  :  8997
 total energy-change (2. order) :-0.4444273E+01  (-0.2742462E+00)
 number of electron     801.9999979 magnetization      43.3102150
 augmentation part      248.1995456 magnetization      25.9647376

 Broyden mixing:
  rms(total) = 0.62702E+00    rms(broyden)= 0.62702E+00
  rms(prec ) = 0.74363E+00
  weight for this iteration     100.00

 eigenvalues of (default mixing * dielectric matrix)
  average eigenvalue GAMMA=   0.7463
  2.1199  2.1199  0.8851  0.8851  0.5250  0.5250  0.1044  0.2779  0.2779  0.2695
  0.2195

 Free energy of the ion-electron system (eV)
  ---------------------------------------------------
  alpha Z        PSCENC =      2543.22265468
  Ewald energy   TEWEN  =    178497.31387635
  -Hartree energ DENC   =   -241912.31450055
  -exchange      EXHF   =         0.00000000
  -V(xc)+E(xc)   XCENC  =       263.90332017
  PAW double counting   =     72204.98024085   -70173.17455404
  entropy T*S    EENTRO =         0.00000000
  eigenvalues    EBANDS =      -247.01013166
  atomic energy  EATOM  =     58354.21911236
  Solvation  Ediel_sol  =         0.00000000
  ---------------------------------------------------
  free energy    TOTEN  =      -468.85998184 eV

  energy without entropy =     -468.85998184  energy(sigma->0) =     -468.85998184


--------------------------------------------------------------------------------------------------------




--------------------------------------- Iteration      1(  17)  ---------------------------------------


    POTLOK:  cpu time    0.5010: real time    0.5024
    SETDIJ:  cpu time    0.0413: real time    0.0414
    EDDIAG:  cpu time    9.6859: real time    9.7106
  RMM-DIIS:  cpu time   39.4656: real time   39.5665
    ORTHCH:  cpu time    1.2768: real time    1.2801
 BZINTS: Fermi energy:  2.985858;802.000000 electrons
         Band energy:-248.629388;  BLOECHL correction: -0.451463
       DOS:  cpu time    0.0176: real time    0.0176
    CHARGE:  cpu time    3.3254: real time    3.3338
    MIXING:  cpu time    0.0160: real time    0.0160
    --------------------------------------------
      LOOP:  cpu time   54.3295: real time   54.4683

 eigenvalue-minimisations  :  8998
 total energy-change (2. order) :-0.1101209E+01  (-0.5804956E-01)
 number of electron     801.9999979 magnetization      42.4709795
 augmentation part      248.0826757 magnetization      25.5038481

 Broyden mixing:
  rms(total) = 0.47770E+00    rms(broyden)= 0.47770E+00
  rms(prec ) = 0.52173E+00
  weight for this iteration     100.00

 eigenvalues of (default mixing * dielectric matrix)
  average eigenvalue GAMMA=   0.7252
  2.1806  2.1806  0.9153  0.9153  0.5382  0.5382  0.1044  0.3046  0.3046  0.2528
  0.2528  0.2148

 Free energy of the ion-electron system (eV)
  ---------------------------------------------------
  alpha Z        PSCENC =      2543.22265468
  Ewald energy   TEWEN  =    178497.31387635
  -Hartree energ DENC   =   -241912.05526938
  -exchange      EXHF   =         0.00000000
  -V(xc)+E(xc)   XCENC  =       263.22627859
  PAW double counting   =     72169.61354411   -70136.87199989
  entropy T*S    EENTRO =         0.00000000
  eigenvalues    EBANDS =      -248.62938764
  atomic energy  EATOM  =     58354.21911236
  Solvation  Ediel_sol  =         0.00000000
  ---------------------------------------------------
  free energy    TOTEN  =      -469.96119082 eV

  energy without entropy =     -469.96119082  energy(sigma->0) =     -469.96119082


--------------------------------------------------------------------------------------------------------




--------------------------------------- Iteration      1(  18)  ---------------------------------------


    POTLOK:  cpu time    0.4964: real time    0.4978
    SETDIJ:  cpu time    0.0404: real time    0.0405
    EDDIAG:  cpu time    9.6885: real time    9.7133
  RMM-DIIS:  cpu time   39.5502: real time   39.6513
    ORTHCH:  cpu time    1.2731: real time    1.2765
 BZINTS: Fermi energy:  2.979252;802.000000 electrons
[...]
      1.060028  1.157204  7.183138            0           0           0  
      1.068702  1.147784  0.504953            0           0           0  
      6.677163  9.248051  2.772639            0           0           0  
      6.579859  4.348301  9.487463            0           0           0  
      8.077803  5.205690  4.999213            0           0           0  
     10.958663  6.876475  9.486624            0           0           0  
      5.277628  1.962280  2.767691            0           0           0  
      2.466180  1.961067  2.759036            0           0           0  
     15.092518  7.635141  4.979677            0           0           0  
     12.283728  6.015574  7.188854            0           0           0  
      6.675959  6.014123  7.215659            0           0           0  
     12.294035  6.008877  0.504919            0           0           0  
      6.681554  6.009500  0.508749            0           0           0  
      8.082749  6.819530  2.778897            0           0           0  
      6.684640  4.395690  2.777014            0           0           0  
      3.861406  2.770827  4.967923            0           0           0  
     10.870853  3.592687  7.205060            0           0           0  
     10.888704  3.579756  0.505751            0           0           0  
     10.884254  0.346651  4.980151            0           0           0  
      9.478098  7.631206  4.989721            0           0           0  
     10.878936  5.205301  4.989388            0           0           0  
      6.679433  7.631950  4.986543            0           0           0  
      5.271399  0.347971  4.973723            0           0           0  
      5.275611  6.823485  2.773460            0           0           0  
      8.077977  0.346437  4.979858            0           0           0  
      9.479217  1.160368  7.186261            0           0           0  
     10.878756  8.449613  7.188579            0           0           0  
      9.487756  1.149888  0.504732            0           0           0  
     10.891247  8.438936  0.504554            0           0           0  
      5.275119  5.205764  4.979267            0           0           0  
     12.284447  2.775458  4.975935            0           0           0  
     15.096145  9.252078  2.772317            0           0           0  
      9.480124  2.780763  4.986373            0           0           0  
      6.676177  2.777748  4.979760            0           0           0  
      7.911103  5.120155 10.328042     0.386487    0.241231   -0.341303  
      9.658149  6.130899 10.344417     0.557769    0.301605    0.523332  
 
   5 f  =    8.634085 THz    54.249553 2PiTHz  288.002050 cm-1    35.707716 meV
             X         Y         Z           dx          dy          dz
     13.687457  8.448503  7.187987            0           0           0  
      5.271751  8.448021  7.185599            0           0           0  
      3.867960  6.016570  7.181963            0           0           0  
     13.695720  8.438295  0.505804            0           0           0  
      5.280258  8.438054  0.504305            0           0           0  
      3.877205  6.010714  0.502571            0           0           0  
      8.081470  1.962574  2.773577            0           0           0  
      9.482997  9.244411  2.772551            0           0           0  
      2.461576  3.586691  7.179134            0           0           0  
      2.472936  3.582201  0.503927            0           0           0  
     10.883023  1.963839  2.772447            0           0           0  
     13.690493  5.204470  4.973605            0           0           0  
      3.863838  1.157001  7.179697            0           0           0  
      9.477336  6.017266  7.225991            0           0           0  
      5.264713  3.585707  7.179573            0           0           0  
      3.878492  1.147219  0.504465            0           0           0  
      9.487972  6.008537  0.510783            0           0           0  
      5.281200  3.580443  0.506661            0           0           0  
     12.289941  9.250520  2.772001            0           0           0  
     12.284055  7.633513  4.982451            0           0           0  
     13.691971  6.823164  2.771493            0           0           0  
      9.482019  4.395349  2.779079            0           0           0  
      8.074129  8.436634  7.205236            0           0           0  
      8.084630  8.437272  0.505561            0           0           0  
     10.885776  6.821991  2.774858            0           0           0  
      2.465560  0.344490  4.975831            0           0           0  
     15.091546  9.262422  9.456223            0           0           0  
      3.842921  4.398040  9.447279            0           0           0  
      6.661850  9.269419  9.457868            0           0           0  
     12.303934  4.383040  9.450663            0           0           0  
      9.471244  9.288616  9.451267            0           0           0  
     10.882742  1.959446  9.458249            0           0           0  
      2.452471  1.966133  9.448748            0           0           0  
     12.289855  9.275516  9.454959            0           0           0  
     13.701852  6.829959  9.455134            0           0           0  
      5.254747  1.953219  9.447470            0           0           0  
      8.044621  6.874246  9.542004            0           0           0  
      9.500092  4.354984  9.541075            0           0           0  
      5.237106  6.848667  9.452777            0           0           0  
      8.073278  1.935515  9.453203            0           0           0  
      8.073654  3.592897  7.215828            0           0           0  
      8.085430  3.577814  0.508620            0           0           0  
      6.672207  1.159518  7.181958            0           0           0  
      6.684124  1.147965  0.502955            0           0           0  
     12.282667  4.395285  2.772588            0           0           0  
      3.873596  4.394734  2.767942            0           0           0  
      1.060028  1.157204  7.183138            0           0           0  
      1.068702  1.147784  0.504953            0           0           0  
      6.677163  9.248051  2.772639            0           0           0  
      6.579859  4.348301  9.487463            0           0           0  
      8.077803  5.205690  4.999213            0           0           0  
     10.958663  6.876475  9.486624            0           0           0  
      5.277628  1.962280  2.767691            0           0           0  
      2.466180  1.961067  2.759036            0           0           0  
     15.092518  7.635141  4.979677            0           0           0  
     12.283728  6.015574  7.188854            0           0           0  
      6.675959  6.014123  7.215659            0           0           0  
     12.294035  6.008877  0.504919            0           0           0  
      6.681554  6.009500  0.508749            0           0           0  
      8.082749  6.819530  2.778897            0           0           0  
      6.684640  4.395690  2.777014            0           0           0  
      3.861406  2.770827  4.967923            0           0           0  
     10.870853  3.592687  7.205060            0           0           0  
     10.888704  3.579756  0.505751            0           0           0  
     10.884254  0.346651  4.980151            0           0           0  
      9.478098  7.631206  4.989721            0           0           0  
     10.878936  5.205301  4.989388            0           0           0  
      6.679433  7.631950  4.986543            0           0           0  
      5.271399  0.347971  4.973723            0           0           0  
      5.275611  6.823485  2.773460            0           0           0  
      8.077977  0.346437  4.979858            0           0           0  
      9.479217  1.160368  7.186261            0           0           0  
     10.878756  8.449613  7.188579            0           0           0  
      9.487756  1.149888  0.504732            0           0           0  
     10.891247  8.438936  0.504554            0           0           0  
      5.275119  5.205764  4.979267            0           0           0  
     12.284447  2.775458  4.975935            0           0           0  
     15.096145  9.252078  2.772317            0           0           0  
      9.480124  2.780763  4.986373            0           0           0  
      6.676177  2.777748  4.979760            0           0           0  
      7.911103  5.120155 10.328042     0.510522   -0.859578   -0.011025  
      9.658149  6.130899 10.344417     0.014128   -0.012426    0.004110  
 
   6 f/i=    7.702771 THz    48.397940 2PiTHz  256.936789 cm-1    31.856113 meV
             X         Y         Z           dx          dy          dz
     13.687457  8.448503  7.187987            0           0           0  
      5.271751  8.448021  7.185599            0           0           0  
      3.867960  6.016570  7.181963            0           0           0  
     13.695720  8.438295  0.505804            0           0           0  
      5.280258  8.438054  0.504305            0           0           0  
      3.877205  6.010714  0.502571            0           0           0  
      8.081470  1.962574  2.773577            0           0           0  
      9.482997  9.244411  2.772551            0           0           0  
      2.461576  3.586691  7.179134            0           0           0  
      2.472936  3.582201  0.503927            0           0           0  
     10.883023  1.963839  2.772447            0           0           0  
     13.690493  5.204470  4.973605            0           0           0  
      3.863838  1.157001  7.179697            0           0           0  
      9.477336  6.017266  7.225991            0           0           0  
      5.264713  3.585707  7.179573            0           0           0  
      3.878492  1.147219  0.504465            0           0           0  
      9.487972  6.008537  0.510783            0           0           0  
      5.281200  3.580443  0.506661            0           0           0  
     12.289941  9.250520  2.772001            0           0           0  
     12.284055  7.633513  4.982451            0           0           0  
     13.691971  6.823164  2.771493            0           0           0  
      9.482019  4.395349  2.779079            0           0           0  
      8.074129  8.436634  7.205236            0           0           0  
      8.084630  8.437272  0.505561            0           0           0  
     10.885776  6.821991  2.774858            0           0           0  
      2.465560  0.344490  4.975831            0           0           0  
     15.091546  9.262422  9.456223            0           0           0  
      3.842921  4.398040  9.447279            0           0           0  
      6.661850  9.269419  9.457868            0           0           0  
     12.303934  4.383040  9.450663            0           0           0  
      9.471244  9.288616  9.451267            0           0           0  
     10.882742  1.959446  9.458249            0           0           0  
      2.452471  1.966133  9.448748            0           0           0  
     12.289855  9.275516  9.454959            0           0           0  
     13.701852  6.829959  9.455134            0           0           0  
      5.254747  1.953219  9.447470            0           0           0  
      8.044621  6.874246  9.542004            0           0           0  
      9.500092  4.354984  9.541075            0           0           0  
      5.237106  6.848667  9.452777            0           0           0  
      8.073278  1.935515  9.453203            0           0           0  
      8.073654  3.592897  7.215828            0           0           0  
      8.085430  3.577814  0.508620            0           0           0  
      6.672207  1.159518  7.181958            0           0           0  
      6.684124  1.147965  0.502955            0           0           0  
     12.282667  4.395285  2.772588            0           0           0  
      3.873596  4.394734  2.767942            0           0           0  
      1.060028  1.157204  7.183138            0           0           0  
      1.068702  1.147784  0.504953            0           0           0  
      6.677163  9.248051  2.772639            0           0           0  
      6.579859  4.348301  9.487463            0           0           0  
      8.077803  5.205690  4.999213            0           0           0  
     10.958663  6.876475  9.486624            0           0           0  
      5.277628  1.962280  2.767691            0           0           0  
      2.466180  1.961067  2.759036            0           0           0  
     15.092518  7.635141  4.979677            0           0           0  
     12.283728  6.015574  7.188854            0           0           0  
      6.675959  6.014123  7.215659            0           0           0  
     12.294035  6.008877  0.504919            0           0           0  
      6.681554  6.009500  0.508749            0           0           0  
      8.082749  6.819530  2.778897            0           0           0  
      6.684640  4.395690  2.777014            0           0           0  
      3.861406  2.770827  4.967923            0           0           0  
     10.870853  3.592687  7.205060            0           0           0  
     10.888704  3.579756  0.505751            0           0           0  
     10.884254  0.346651  4.980151            0           0           0  
      9.478098  7.631206  4.989721            0           0           0  
     10.878936  5.205301  4.989388            0           0           0  
      6.679433  7.631950  4.986543            0           0           0  
      5.271399  0.347971  4.973723            0           0           0  
      5.275611  6.823485  2.773460            0           0           0  
      8.077977  0.346437  4.979858            0           0           0  
      9.479217  1.160368  7.186261            0           0           0  
     10.878756  8.449613  7.188579            0           0           0  
      9.487756  1.149888  0.504732            0           0           0  
     10.891247  8.438936  0.504554            0           0           0  
      5.275119  5.205764  4.979267            0           0           0  
     12.284447  2.775458  4.975935            0           0           0  
     15.096145  9.252078  2.772317            0           0           0  
      9.480124  2.780763  4.986373            0           0           0  
      6.676177  2.777748  4.979760            0           0           0  
      7.911103  5.120155 10.328042     0.013288   -0.012656   -0.002255  
      9.658149  6.130899 10.344417    -0.487467    0.872876    0.011042  
 
 Finite differences POTIM=  1.500000000000000E-002
  LATTYP: Found a hexagonal cell.
 ALAT       =    11.2227001190
 C/A-ratio  =     1.9603125600
  
  Lattice vectors:
  
 A1 = (   5.6113500595,  -9.7191434021,   0.0000000000)
 A2 = ( -11.2227001190,   0.0000000000,   0.0000000000)
 A3 = (   0.0000000000,   0.0000000000, -22.0000000000)


Analysis of symmetry for initial positions (statically):
=====================================================================
 Subroutine PRICEL returns:
 Original cell was already a primitive cell.
 

 Routine SETGRP: Setting up the symmetry group for a 
 hexagonal supercell.


 Subroutine GETGRP returns: Found  1 space group operations
 (whereof  1 operations were pure point group operations)
 out of a pool of 24 trial point group operations.


The static configuration has the point symmetry C_1 .


Analysis of symmetry for dynamics (positions and initial velocities):
=====================================================================
 Subroutine PRICEL returns:
 Original cell was already a primitive cell.
 

 Routine SETGRP: Setting up the symmetry group for a 
 hexagonal supercell.


 Subroutine GETGRP returns: Found  1 space group operations
 (whereof  1 operations were pure point group operations)
 out of a pool of 24 trial point group operations.


The dynamic configuration has the point symmetry C_1 .


Analysis of constrained symmetry for selective dynamics:
=====================================================================
 Subroutine PRICEL returns:
 Original cell was already a primitive cell.
 

 Routine SETGRP: Setting up the symmetry group for a 
 hexagonal supercell.


 Subroutine GETGRP returns: Found  1 space group operations
 (whereof  1 operations were pure point group operations)
 out of a pool of 24 trial point group operations.


The constrained configuration has the point symmetry C_1 .


Analysis of structural, dynamic, and magnetic symmetry:
=====================================================================
 Subroutine PRICEL returns:
 Original cell was already a primitive cell.
 

 Routine SETGRP: Setting up the symmetry group for a 
 hexagonal supercell.


 Subroutine GETGRP returns: Found  1 space group operations
 (whereof  1 operations were pure point group operations)
 out of a pool of 24 trial point group operations.


The magnetic configuration has the point symmetry C_1 .


 Subroutine INISYM returns: Found  1 space group operations
 (whereof  1 operations are pure point group operations),
 and found     1 'primitive' translations

 
 KPOINTS: mesh auto                               

Automatic generation of k-mesh.
Space group operators:
 irot       det(A)        alpha          n_x          n_y          n_z        tau_x        tau_y        tau_z
    1     1.000000     0.000000     1.000000     0.000000     0.000000     0.000000     0.000000     0.000000
 
 Subroutine IBZKPT returns following result:
 ===========================================
 
 Found      4 irreducible k-points:
 
 Following reciprocal coordinates:
            Coordinates               Weight
  0.000000  0.000000  0.000000      1.000000
  0.500000  0.000000  0.000000      1.000000
  0.000000  0.500000  0.000000      1.000000
  0.500000  0.500000  0.000000      1.000000
 
 Following cartesian coordinates:
            Coordinates               Weight
  0.000000  0.000000  0.000000      1.000000
  0.044553 -0.025722  0.000000      1.000000
  0.000000  0.051445  0.000000      1.000000
  0.044553  0.025722  0.000000      1.000000
 
 TETIRR: Found     12 inequivalent tetrahedra from       24
     LOOP+:  cpu time  699.2682: real time  700.9574
    4ORBIT:  cpu time    0.0000: real time    0.0000
 BZINTS: Fermi energy:  2.824455;802.000000 electrons
         Band energy:-365.375678;  BLOECHL correction: -0.547099

 total amount of memory used by VASP MPI-rank0   418519. kBytes
=======================================================================

   base      :      30000. kBytes
   nonlr-proj:     108278. kBytes
   fftplans  :      15524. kBytes
   grid      :     133430. kBytes
   one-center:       2550. kBytes
   wavefun   :     128737. kBytes
 
  
  
 General timing and accounting informations for this job:
 ========================================================
  
                  Total CPU time used (sec):     9562.496
                            User time (sec):     9526.129
                          System time (sec):       36.367
                         Elapsed time (sec):     9588.635
  
                   Maximum memory used (kb):     1222972.
                   Average memory used (kb):           0.
  
                          Minor page faults:      4467651
                          Major page faults:            0
                 Voluntary context switches:         4448
