 vasp.5.4.4.18Apr17-6-g9f103f2a35 (build Oct 25 2019 11:13:22) complex          
  
 executed on             LinuxIFC date 2021.10.30  05:44:48
 running on   48 total cores
 distrk:  each k-point on   48 cores,    1 groups
 distr:  one band on NCORES_PER_BAND=   4 cores,   12 groups


--------------------------------------------------------------------------------------------------------


 INCAR:
 POTCAR:    PAW_PBE Pt 04Feb2005                  
 POTCAR:    PAW_PBE Fe 06Sep2000                  
 POTCAR:    PAW_PBE Co 02Aug2007                  
 POTCAR:    PAW_PBE Cu 22Jun2005                  
 POTCAR:    PAW_PBE Ni 02Aug2007                  
 POTCAR:    PAW_PBE H 15Jun2001                   
 POTCAR:    PAW_PBE Pt 04Feb2005                  
   VRHFIN =Pt: s1d9                                                             
   LEXCH  = PE                                                                  
   EATOM  =   729.1176 eV,   53.5886 Ry                                         
                                                                                
   TITEL  = PAW_PBE Pt 04Feb2005                                                
   LULTRA =        F    use ultrasoft PP ?                                      
   IUNSCR =        1    unscreen: 0-lin 1-nonlin 2-no                           
   RPACOR =    2.330    partial core radius                                     
   POMASS =  195.080; ZVAL   =   10.000    mass and valenz                      
   RCORE  =    2.600    outmost cutoff radius                                   
   RWIGS  =    2.750; RWIGS  =    1.455    wigner-seitz radius (au A)           
   ENMAX  =  230.283; ENMIN  =  172.712 eV                                      
   ICORE  =        3    local potential                                         
   LCOR   =        T    correct aug charges                                     
   LPAW   =        T    paw PP                                                  
   EAUG   =  358.966                                                            
   DEXC   =    0.000                                                            
   RMAX   =    2.658    core radius for proj-oper                               
   RAUG   =    1.300    factor for augmentation sphere                          
   RDEP   =    2.761    radius for radial grids                                 
   RDEPT  =    2.203    core radius for aug-charge                              
                                                                                
   Atomic configuration                                                         
   16 entries                                                                   
     n  l   j            E        occ.                                          
     1  0  0.50    -78401.1885   2.0000                                         
     2  0  0.50    -13770.7750   2.0000                                         
     2  1  1.50    -11931.0468   6.0000                                         
     3  0  0.50     -3234.7234   2.0000                                         
     3  1  1.50     -2699.2216   6.0000                                         
     3  2  2.50     -2119.5714  10.0000                                         
     4  0  0.50      -695.1528   2.0000                                         
     4  1  1.50      -519.6034   6.0000                                         
     4  2  2.50      -306.6786  10.0000                                         
     4  3  3.50       -70.1041  14.0000                                         
     5  0  0.50      -101.7747   2.0000                                         
     5  1  1.50       -55.9873   6.0000                                         
     5  2  2.50        -6.1423   9.0000                                         
     6  0  0.50        -5.6573   1.0000                                         
     6  1  1.50        -6.8029   0.0000                                         
     5  3  2.50        -1.3606   0.0000                                         
   Description                                                                  
     l       E           TYP  RCUT    TYP  RCUT                                 
     2     -6.1423404     23  2.500                                             
     2     -7.5029230     23  2.500                                             
     0     -5.6573207     23  2.500                                             
     0      0.7416693     23  2.500                                             
     1     -2.7211652     23  2.600                                             
     1     20.4087390     23  2.600                                             
     3     -1.3605826     23  2.500                                             
  local pseudopotential read in
  partial core-charges read in
  partial kinetic energy density read in
  atomic valenz-charges read in
  non local Contribution for L=           2  read in
    real space projection operators read in
  non local Contribution for L=           2  read in
    real space projection operators read in
  non local Contribution for L=           0  read in
    real space projection operators read in
  non local Contribution for L=           0  read in
    real space projection operators read in
  non local Contribution for L=           1  read in
    real space projection operators read in
  non local Contribution for L=           1  read in
    real space projection operators read in
    PAW grid and wavefunctions read in
 
   number of l-projection  operators is LMAX  =           6
   number of lm-projection operators is LMMAX =          18
 
 POTCAR:    PAW_PBE Fe 06Sep2000                  
   VRHFIN =Fe:  d7 s1                                                           
   LEXCH  = PE                                                                  
   EATOM  =   594.3153 eV,   43.6809 Ry                                         
                                                                                
   TITEL  = PAW_PBE Fe 06Sep2000                                                
   LULTRA =        F    use ultrasoft PP ?                                      
   IUNSCR =        1    unscreen: 0-lin 1-nonlin 2-no                           
   RPACOR =    2.000    partial core radius                                     
   POMASS =   55.847; ZVAL   =    8.000    mass and valenz                      
   RCORE  =    2.300    outmost cutoff radius                                   
   RWIGS  =    2.460; RWIGS  =    1.302    wigner-seitz radius (au A)           
   ENMAX  =  267.882; ENMIN  =  200.911 eV                                      
   RCLOC  =    1.701    cutoff for local pot                                    
   LCOR   =        T    correct aug charges                                     
   LPAW   =        T    paw PP                                                  
   EAUG   =  511.368                                                            
   DEXC   =    0.000                                                            
   RMAX   =    2.356    core radius for proj-oper                               
   RAUG   =    1.300    factor for augmentation sphere                          
   RDEP   =    2.442    radius for radial grids                                 
   RDEPT  =    1.890    core radius for aug-charge                              
                                                                                
   Atomic configuration                                                         
    9 entries                                                                   
     n  l   j            E        occ.                                          
     1  0  0.50     -6993.8440   2.0000                                         
     2  0  0.50      -814.6047   2.0000                                         
     2  1  1.50      -693.3689   6.0000                                         
     3  0  0.50       -89.4732   2.0000                                         
     3  1  1.50       -55.6373   6.0000                                         
     3  2  2.50        -3.8151   7.0000                                         
     4  0  0.50        -4.2551   1.0000                                         
     4  1  1.50        -3.4015   0.0000                                         
     4  3  2.50        -1.3606   0.0000                                         
   Description                                                                  
     l       E           TYP  RCUT    TYP  RCUT                                 
     2     -3.8151135     23  2.300                                             
     2     -5.1756961     23  2.300                                             
     0     -4.2550963     23  2.300                                             
     0      7.2035603     23  2.300                                             
     1     -2.7211652     23  2.300                                             
     1     18.4316424     23  2.300                                             
  local pseudopotential read in
  partial core-charges read in
  partial kinetic energy density read in
  atomic valenz-charges read in
  non local Contribution for L=           2  read in
    real space projection operators read in
  non local Contribution for L=           2  read in
    real space projection operators read in
  non local Contribution for L=           0  read in
    real space projection operators read in
  non local Contribution for L=           0  read in
    real space projection operators read in
  non local Contribution for L=           1  read in
    real space projection operators read in
  non local Contribution for L=           1  read in
    real space projection operators read in
    PAW grid and wavefunctions read in
 
   number of l-projection  operators is LMAX  =           6
   number of lm-projection operators is LMMAX =          18
 
 POTCAR:    PAW_PBE Co 02Aug2007                  
   VRHFIN =Co: d8 s1                                                            
   LEXCH  = PE                                                                  
   EATOM  =   813.3670 eV,   59.7808 Ry                                         
                                                                                
   TITEL  = PAW_PBE Co 02Aug2007                                                
   LULTRA =        F    use ultrasoft PP ?                                      
   IUNSCR =        1    unscreen: 0-lin 1-nonlin 2-no                           
   RPACOR =    2.000    partial core radius                                     
   POMASS =   58.933; ZVAL   =    9.000    mass and valenz                      
   RCORE  =    2.300    outmost cutoff radius                                   
   RWIGS  =    2.460; RWIGS  =    1.302    wigner-seitz radius (au A)           
   ENMAX  =  267.968; ENMIN  =  200.976 eV                                      
   RCLOC  =    1.203    cutoff for local pot                                    
   LCOR   =        T    correct aug charges                                     
   LPAW   =        T    paw PP                                                  
   EAUG   =  477.818                                                            
   DEXC   =    0.000                                                            
   RMAX   =    2.360    core radius for proj-oper                               
   RAUG   =    1.300    factor for augmentation sphere                          
   RDEP   =    2.393    radius for radial grids                                 
   RDEPT  =    1.864    core radius for aug-charge                              
                                                                                
   Atomic configuration                                                         
    9 entries                                                                   
     n  l   j            E        occ.                                          
     1  0  0.50     -7587.6674   2.0000                                         
     2  0  0.50      -893.6084   2.0000                                         
     2  1  1.50      -764.5805   6.0000                                         
     3  0  0.50       -97.5973   2.0000                                         
     3  1  1.50       -60.9648   6.0000                                         
     3  2  2.50        -4.2382   8.0000                                         
     4  0  0.50        -4.3746   1.0000                                         
     4  1  1.50        -4.0817   0.0000                                         
     4  3  2.50        -1.3606   0.0000                                         
   Description                                                                  
     l       E           TYP  RCUT    TYP  RCUT                                 
     2     -4.2382362     23  2.300                                             
     2     -5.5988188     23  2.300                                             
     0     -4.3745797     23  2.300                                             
     0      5.7660125     23  2.300                                             
     1     -2.7211652     23  2.300                                             
     1     16.9860234     23  2.300                                             
  local pseudopotential read in
  partial core-charges read in
  partial kinetic energy density read in
  atomic valenz-charges read in
  non local Contribution for L=           2  read in
    real space projection operators read in
  non local Contribution for L=           2  read in
    real space projection operators read in
  non local Contribution for L=           0  read in
    real space projection operators read in
  non local Contribution for L=           0  read in
    real space projection operators read in
  non local Contribution for L=           1  read in
    real space projection operators read in
  non local Contribution for L=           1  read in
    real space projection operators read in
    PAW grid and wavefunctions read in
 
   number of l-projection  operators is LMAX  =           6
   number of lm-projection operators is LMMAX =          18
 
 POTCAR:    PAW_PBE Cu 22Jun2005                  
   VRHFIN =Cu: d10 p1                                                           
   LEXCH  = PE                                                                  
   EATOM  =  1390.9808 eV,  102.2342 Ry                                         
                                                                                
   TITEL  = PAW_PBE Cu 22Jun2005                                                
   LULTRA =        F    use ultrasoft PP ?                                      
   IUNSCR =        1    unscreen: 0-lin 1-nonlin 2-no                           
   RPACOR =    2.000    partial core radius                                     
   POMASS =   63.546; ZVAL   =   11.000    mass and valenz                      
   RCORE  =    2.300    outmost cutoff radius                                   
   RWIGS  =    2.200; RWIGS  =    1.164    wigner-seitz radius (au A)           
   ENMAX  =  295.446; ENMIN  =  221.585 eV                                      
   ICORE  =        3    local potential                                         
   LCOR   =        T    correct aug charges                                     
   LPAW   =        T    paw PP                                                  
   EAUG   =  586.980                                                            
   DEXC   =    0.000                                                            
   RMAX   =    2.344    core radius for proj-oper                               
   RAUG   =    1.300    factor for augmentation sphere                          
   RDEP   =    2.302    radius for radial grids                                 
   RDEPT  =    1.771    core radius for aug-charge                              
                                                                                
   Atomic configuration                                                         
    9 entries                                                                   
     n  l   j            E        occ.                                          
     1  0  0.50     -8850.2468   2.0000                                         
     2  0  0.50     -1062.3498   2.0000                                         
     2  1  1.50      -916.8226   6.0000                                         
     3  0  0.50      -114.6929   2.0000                                         
     3  1  1.50       -72.1325   6.0000                                         
     3  2  2.50        -5.0394  10.0000                                         
     4  0  0.50        -4.6097   1.0000                                         
     4  1  0.50        -4.0817   0.0000                                         
     4  3  2.50        -1.3606   0.0000                                         
   Description                                                                  
     l       E           TYP  RCUT    TYP  RCUT                                 
     2     -5.0393973     23  2.200                                             
     2     10.8846608     23  2.200                                             
     0     -4.6097109     23  2.200                                             
     0      8.2520465     23  2.200                                             
     1     -2.7211652     23  2.200                                             
     1     21.7055443     23  2.200                                             
     3      2.7211652     23  2.300                                             
  local pseudopotential read in
  partial core-charges read in
  partial kinetic energy density read in
  atomic valenz-charges read in
  non local Contribution for L=           2  read in
    real space projection operators read in
  non local Contribution for L=           2  read in
    real space projection operators read in
  non local Contribution for L=           0  read in
    real space projection operators read in
  non local Contribution for L=           0  read in
    real space projection operators read in
  non local Contribution for L=           1  read in
    real space projection operators read in
  non local Contribution for L=           1  read in
    real space projection operators read in
    PAW grid and wavefunctions read in
 
   number of l-projection  operators is LMAX  =           6
   number of lm-projection operators is LMMAX =          18
 
 POTCAR:    PAW_PBE Ni 02Aug2007                  
   VRHFIN =Ni:                                                                  
   LEXCH  = PE                                                                  
   EATOM  =  1077.6739 eV,   79.2068 Ry                                         
                                                                                
   TITEL  = PAW_PBE Ni 02Aug2007                                                
   LULTRA =        F    use ultrasoft PP ?                                      
   IUNSCR =        1    unscreen: 0-lin 1-nonlin 2-no                           
   RPACOR =    2.000    partial core radius                                     
   POMASS =   58.690; ZVAL   =   10.000    mass and valenz                      
   RCORE  =    2.300    outmost cutoff radius                                   
   RWIGS  =    2.430; RWIGS  =    1.286    wigner-seitz radius (au A)           
   ENMAX  =  269.532; ENMIN  =  202.149 eV                                      
   RCLOC  =    1.201    cutoff for local pot                                    
   LCOR   =        T    correct aug charges                                     
   LPAW   =        T    paw PP                                                  
   EAUG   =  544.565                                                            
   DEXC   =    0.000                                                            
   RMAX   =    2.357    core radius for proj-oper                               
   RAUG   =    1.300    factor for augmentation sphere                          
   RDEP   =    2.390    radius for radial grids                                 
   RDEPT  =    1.838    core radius for aug-charge                              
                                                                                
   Atomic configuration                                                         
    9 entries                                                                   
     n  l   j            E        occ.                                          
     1  0  0.50     -8206.4253   2.0000                                         
     2  0  0.50      -976.1748   2.0000                                         
     2  1  1.50      -839.0571   6.0000                                         
     3  0  0.50      -105.9991   2.0000                                         
     3  1  1.50       -66.4603   6.0000                                         
     3  2  2.50        -4.6458   9.0000                                         
     4  0  0.50        -4.4926   1.0000                                         
     4  1  1.50        -4.0817   0.0000                                         
     4  3  2.50        -1.3606   0.0000                                         
   Description                                                                  
     l       E           TYP  RCUT    TYP  RCUT                                 
     2     -4.6457903     23  2.300                                             
     2     -6.0063729     23  2.300                                             
     0     -4.4925590     23  2.300                                             
     0      5.0102601     23  2.300                                             
     1     -2.7211652     23  2.300                                             
     1     16.5183231     23  2.300                                             
  local pseudopotential read in
  partial core-charges read in
  partial kinetic energy density read in
  atomic valenz-charges read in
  non local Contribution for L=           2  read in
    real space projection operators read in
  non local Contribution for L=           2  read in
    real space projection operators read in
  non local Contribution for L=           0  read in
    real space projection operators read in
  non local Contribution for L=           0  read in
    real space projection operators read in
  non local Contribution for L=           1  read in
    real space projection operators read in
  non local Contribution for L=           1  read in
    real space projection operators read in
    PAW grid and wavefunctions read in
 
   number of l-projection  operators is LMAX  =           6
   number of lm-projection operators is LMMAX =          18
 
 POTCAR:    PAW_PBE H 15Jun2001                   
   VRHFIN =H: ultrasoft test                                                    
   LEXCH  = PE                                                                  
   EATOM  =    12.4884 eV,    0.9179 Ry                                         
                                                                                
   TITEL  = PAW_PBE H 15Jun2001                                                 
   LULTRA =        F    use ultrasoft PP ?                                      
   IUNSCR =        0    unscreen: 0-lin 1-nonlin 2-no                           
   RPACOR =    0.000    partial core radius                                     
   POMASS =    1.000; ZVAL   =    1.000    mass and valenz                      
   RCORE  =    1.100    outmost cutoff radius                                   
   RWIGS  =    0.700; RWIGS  =    0.370    wigner-seitz radius (au A)           
   ENMAX  =  250.000; ENMIN  =  200.000 eV                                      
   RCLOC  =    0.701    cutoff for local pot                                    
   LCOR   =        T    correct aug charges                                     
   LPAW   =        T    paw PP                                                  
   EAUG   =  400.000                                                            
   RMAX   =    1.123    core radius for proj-oper                               
   RAUG   =    1.200    factor for augmentation sphere                          
   RDEP   =    1.112    radius for radial grids                                 
   RDEPT  =    0.926    core radius for aug-charge                              
                                                                                
   Atomic configuration                                                         
    2 entries                                                                   
     n  l   j            E        occ.                                          
     1  0  0.50        -6.4927   1.0000                                         
     2  1  0.50        -3.4015   0.0000                                         
   Description                                                                  
     l       E           TYP  RCUT    TYP  RCUT                                 
     0     -6.4927494     23  1.100                                             
     0      6.8029130     23  1.100                                             
     1     -4.0817478     23  1.100                                             
  local pseudopotential read in
  atomic valenz-charges read in
  non local Contribution for L=           0  read in
    real space projection operators read in
  non local Contribution for L=           0  read in
    real space projection operators read in
  non local Contribution for L=           1  read in
    real space projection operators read in
    PAW grid and wavefunctions read in
 
   number of l-projection  operators is LMAX  =           3
   number of lm-projection operators is LMMAX =           5
 
 Optimization of the real space projectors (new method)

 maximal supplied QI-value         = 14.36
 optimisation between [QCUT,QGAM] = [ 11.92, 23.98] = [ 39.79,161.09] Ry 
 Optimized for a Real-space Cutoff    1.49 Angstroem

   l    n(q)    QCUT    max X(q) W(low)/X(q) W(high)/X(q)  e(spline) 
   2     10    11.920    66.195    0.79E-04    0.18E-03    0.24E-06
   2     10    11.920    64.643    0.81E-04    0.19E-03    0.24E-06
   0     11    11.920    95.520    0.28E-04    0.54E-04    0.18E-06
   0     11    11.920    63.403    0.27E-04    0.52E-04    0.17E-06
   1     10    11.920    19.961    0.18E-04    0.11E-03    0.23E-06
   1     10    11.920    13.289    0.25E-04    0.87E-04    0.19E-06
 Optimization of the real space projectors (new method)

 maximal supplied QI-value         = 16.25
 optimisation between [QCUT,QGAM] = [ 11.86, 23.89] = [ 39.41,159.82] Ry 
 Optimized for a Real-space Cutoff    1.49 Angstroem

   l    n(q)    QCUT    max X(q) W(low)/X(q) W(high)/X(q)  e(spline) 
   2     10    11.864    80.901    0.13E-03    0.23E-03    0.37E-06
   2     10    11.864    75.754    0.13E-03    0.23E-03    0.38E-06
   0     11    11.864    58.752    0.44E-04    0.11E-04    0.20E-06
   0     11    11.864    30.679    0.36E-04    0.10E-04    0.18E-06
   1     10    11.864    17.977    0.31E-04    0.45E-04    0.10E-06
   1     10    11.864    13.559    0.25E-04    0.37E-04    0.89E-07
 Optimization of the real space projectors (new method)

 maximal supplied QI-value         = 16.25
 optimisation between [QCUT,QGAM] = [ 11.86, 23.89] = [ 39.41,159.82] Ry 
 Optimized for a Real-space Cutoff    1.33 Angstroem

   l    n(q)    QCUT    max X(q) W(low)/X(q) W(high)/X(q)  e(spline) 
   2      9    11.864    65.824    0.22E-03    0.53E-03    0.26E-06
   2      9    11.864    61.429    0.22E-03    0.53E-03    0.26E-06
   0      9    11.864    56.174    0.21E-03    0.32E-04    0.15E-06
   0      9    11.864    31.263    0.19E-03    0.30E-04    0.14E-06
   1      9    11.864    19.828    0.63E-04    0.30E-03    0.16E-06
   1      9    11.864    15.139    0.49E-04    0.25E-03    0.13E-06
 Optimization of the real space projectors (new method)

 maximal supplied QI-value         = 16.25
 optimisation between [QCUT,QGAM] = [ 11.86, 23.89] = [ 39.41,159.82] Ry 
 Optimized for a Real-space Cutoff    1.49 Angstroem

   l    n(q)    QCUT    max X(q) W(low)/X(q) W(high)/X(q)  e(spline) 
   2     10    11.864     4.610    0.10E-03    0.20E-03    0.29E-06
   2     10    11.864     8.522    0.17E-03    0.33E-03    0.50E-06
   0     11    11.864    51.609    0.52E-04    0.55E-04    0.33E-06
   0     11    11.864    27.747    0.46E-04    0.52E-04    0.31E-06
   1     10    11.864    20.408    0.54E-04    0.25E-04    0.21E-06
   1     10    11.864    13.425    0.48E-04    0.22E-04    0.18E-06
 Optimization of the real space projectors (new method)

 maximal supplied QI-value         = 16.25
 optimisation between [QCUT,QGAM] = [ 11.86, 23.89] = [ 39.41,159.82] Ry 
 Optimized for a Real-space Cutoff    1.33 Angstroem

   l    n(q)    QCUT    max X(q) W(low)/X(q) W(high)/X(q)  e(spline) 
   2      9    11.864    60.317    0.21E-03    0.51E-03    0.25E-06
   2      9    11.864    55.921    0.21E-03    0.51E-03    0.26E-06
   0      9    11.864    51.690    0.22E-03    0.30E-04    0.17E-06
   0      9    11.864    30.015    0.20E-03    0.28E-04    0.15E-06
   1      9    11.864    18.849    0.76E-04    0.33E-03    0.17E-06
   1      9    11.864    14.624    0.60E-04    0.28E-03    0.15E-06
 Optimization of the real space projectors (new method)

 maximal supplied QI-value         = 34.20
 optimisation between [QCUT,QGAM] = [ 11.97, 23.94] = [ 40.13,160.53] Ry 
 Optimized for a Real-space Cutoff    1.18 Angstroem

   l    n(q)    QCUT    max X(q) W(low)/X(q) W(high)/X(q)  e(spline) 
   0      8    11.971    19.460    0.15E-03    0.31E-03    0.25E-06
   0      8    11.971    12.209    0.13E-03    0.29E-03    0.25E-06
   1      8    11.971     4.655    0.22E-03    0.24E-03    0.21E-06
  PAW_PBE Pt 04Feb2005                  :
 energy of atom  1       EATOM= -729.1176
 kinetic energy error for atom=    0.0021 (will be added to EATOM!!)
  PAW_PBE Fe 06Sep2000                  :
 energy of atom  2       EATOM= -594.3153
 kinetic energy error for atom=    0.0024 (will be added to EATOM!!)
  PAW_PBE Co 02Aug2007                  :
 energy of atom  3       EATOM= -813.3670
 kinetic energy error for atom=    0.0026 (will be added to EATOM!!)
  PAW_PBE Cu 22Jun2005                  :
 energy of atom  4       EATOM=-1390.9808
 kinetic energy error for atom=    0.0036 (will be added to EATOM!!)
  PAW_PBE Ni 02Aug2007                  :
 energy of atom  5       EATOM=-1077.6739
 kinetic energy error for atom=    0.0027 (will be added to EATOM!!)
  PAW_PBE H 15Jun2001                   :
 energy of atom  6       EATOM=  -12.4884
 kinetic energy error for atom=    0.0008 (will be added to EATOM!!)
 
 
 POSCAR: 11.26-high                              
  positions in direct lattice
  velocities in cartesian coordinates
 exchange correlation table for  LEXCH =        8
   RHO(1)=    0.500       N(1)  =     2000
   RHO(2)=  100.500       N(2)  =     4000
 


--------------------------------------------------------------------------------------------------------


 ion  position               nearest neighbor table
   1  0.776  0.870  0.315-  56 2.59  32 2.67  15 2.74  33 2.75  65 2.77  23 2.78   8 2.78  40 2.79
                            16 2.83  41 2.87   3 2.88   2 2.93
   2  0.037  0.869  0.316-  38 2.65  79 2.66  32 2.76  26 2.76   8 2.79  34 2.81  58 2.81  10 2.81
                            41 2.83   3 2.83  20 2.84   1 2.93
   3  0.036  0.617  0.313-  50 2.60  68 2.63  32 2.69   6 2.81   9 2.81   4 2.81   2 2.83  20 2.84
                            33 2.85  34 2.86  16 2.87   1 2.88
   4  0.028  0.371  0.319-  50 2.61  36 2.68  42 2.70  11 2.72  77 2.76   9 2.77  14 2.77  33 2.80
                             3 2.81  26 2.83   6 2.88   5 2.96
   5  0.290  0.106  0.318-  61 2.55  36 2.68  12 2.69  39 2.69  58 2.70  26 2.77  65 2.77  14 2.78
                            17 2.79  23 2.80   6 2.92   4 2.96
   6  0.287  0.368  0.317-  68 2.59  71 2.62  36 2.71  23 2.75  29 2.76   9 2.80  17 2.81   3 2.81
                            34 2.86   4 2.88  22 2.90   5 2.92
   7  0.860  0.689  0.125-  74 2.52  43 2.54  45 2.59  55 2.63  60 2.65  50 2.65  56 2.66  32 2.70
                            72 2.71  25 2.83  64 3.07
   8  0.861  0.955  0.416-  15 2.76  21 2.77   1 2.78  41 2.78   2 2.79  16 2.80  13 2.83  20 2.87
                            10 2.94
   9  0.115  0.456  0.419-  20 2.72   4 2.77  16 2.78  11 2.79   6 2.80  29 2.81   3 2.81  14 2.84
                            17 2.90
  10  0.124  0.953  0.420-  81 1.85  58 2.71  14 2.76  26 2.76  12 2.78   2 2.81  18 2.83  13 2.87
                            20 2.90   8 2.94
  11  0.870  0.449  0.421-   4 2.72  77 2.72  19 2.74  13 2.76  14 2.79   9 2.79  33 2.82  31 2.82
                            16 2.83
  12  0.375  0.947  0.418-   5 2.69  65 2.70  58 2.70  18 2.72  15 2.74  31 2.75  10 2.78  17 2.79
                            14 2.86
  13  0.866  0.205  0.416-  81 1.99  77 2.72  11 2.76  21 2.77  26 2.77  41 2.77  19 2.78  14 2.83
                             8 2.83  10 2.87
  14  0.120  0.201  0.420-  81 1.89  10 2.76   4 2.77   5 2.78  11 2.79  26 2.81  17 2.81  13 2.83
                             9 2.84  12 2.86
  15  0.619  0.946  0.418-   1 2.74  12 2.74  16 2.75  65 2.75  31 2.76   8 2.76  17 2.79  23 2.81
                            21 2.92
  16  0.867  0.703  0.420-  15 2.75  20 2.76  33 2.77   9 2.78  31 2.79   8 2.80   1 2.83  11 2.83
                             3 2.87
  17  0.372  0.197  0.420-  23 2.75  12 2.79   5 2.79  15 2.79   6 2.81  14 2.81  21 2.82  29 2.83
                             9 2.90
  18  0.378  0.703  0.417-  51 2.60  58 2.67  31 2.69  12 2.72  34 2.74  19 2.75  10 2.83  29 2.89
                            20 2.98
  19  0.622  0.456  0.419-  51 2.65  77 2.66  31 2.72  22 2.73  11 2.74  18 2.75  13 2.78  21 2.82
                            29 2.88
  20  0.115  0.699  0.421-   9 2.72  16 2.76  29 2.81  34 2.82   3 2.84   2 2.84   8 2.87  10 2.90
                            18 2.98
  21  0.619  0.206  0.417-  22 2.75  13 2.77   8 2.77  23 2.77  29 2.78  41 2.80  17 2.82  19 2.82
                            15 2.92
  22  0.541  0.377  0.317-  70 2.59  30 2.64  71 2.64  77 2.68  51 2.70  19 2.73  21 2.75  34 2.79
                            41 2.80  29 2.80   6 2.90  23 2.92
  23  0.532  0.121  0.317-  71 2.65  40 2.70  39 2.75  17 2.75   6 2.75  21 2.77   1 2.78   5 2.80
                            15 2.81  41 2.84  22 2.92  65 2.94
  24  0.544  0.120  0.050-  46 2.53  63 2.54  55 2.60  43 2.70  66 2.73  54 2.84  62 2.84  52 2.87
                            67 2.92
  25  0.114  0.439  0.123-  54 2.49  48 2.53  45 2.58  36 2.70  73 2.70  63 2.75  50 2.75  68 2.78
                             7 2.83  72 2.85  64 2.94  76 3.11
  26  0.039  0.114  0.316-  79 2.55  61 2.63  42 2.67   2 2.76  10 2.76  13 2.77   5 2.77  58 2.79
                            14 2.81  41 2.82   4 2.83  77 2.96
  27  0.024  0.132  0.037-  48 2.54  49 2.59  73 2.61  28 2.65  78 2.71  59 2.73  66 2.74  52 2.92
                            44 3.11
  28  0.115  0.958  0.130-  59 2.54  79 2.58  44 2.59  38 2.63  27 2.65  61 2.66  69 2.68  73 2.69
                            47 2.79  49 2.84  35 2.87  64 2.93
  29  0.368  0.451  0.419-   6 2.76  34 2.77  21 2.78  22 2.80   9 2.81  20 2.81  17 2.83  19 2.88
                            18 2.89
  30  0.456  0.540  0.221-  76 2.51  57 2.56  22 2.64  34 2.68  51 2.72  37 2.72  35 2.73  80 2.74
                            71 2.76  38 2.79  70 2.79  68 2.85
  31  0.619  0.700  0.421-  51 2.68  18 2.69  65 2.72  19 2.72  33 2.75  12 2.75  15 2.76  16 2.79
                            11 2.82
  32  0.941  0.791  0.218-  64 2.57  69 2.60   1 2.67   3 2.69   7 2.70   2 2.76  56 2.78  40 2.87
                            50 2.87  79 2.91  68 3.02  38 3.04
  33  0.780  0.622  0.318-  56 2.60  37 2.62  50 2.62  65 2.69  77 2.73  31 2.75  51 2.75   1 2.75
                            16 2.77   4 2.80  11 2.82   3 2.85
  34  0.289  0.621  0.318-  38 2.67  30 2.68  68 2.74  18 2.74  58 2.75  29 2.77  51 2.77  22 2.79
                             2 2.81  20 2.82   6 2.86   3 2.86
  35  0.377  0.709  0.122-  53 2.48  75 2.55  59 2.60  47 2.62  60 2.68  30 2.73  80 2.74  38 2.75
                            57 2.85  76 2.87  28 2.87  64 2.87
  36  0.198  0.277  0.223-  73 2.54  63 2.54   4 2.68   5 2.68  25 2.70   6 2.71  61 2.76  42 2.81
                            68 2.83  50 2.84  39 2.91  71 2.97
  37  0.694  0.548  0.222-  72 2.55  60 2.56  57 2.60  33 2.62  56 2.63  80 2.66  51 2.69  77 2.70
                            30 2.72  50 2.75  70 2.82  42 2.88
  38  0.211  0.792  0.224-  64 2.58  58 2.59  61 2.62  28 2.63   2 2.65  34 2.67  80 2.70  35 2.75
                            30 2.79  79 2.85  68 3.02  32 3.04
  39  0.456  0.016  0.221-  47 2.49  55 2.60  80 2.62  63 2.64  65 2.65  61 2.65   5 2.69  56 2.69
                            23 2.75  40 2.78  36 2.91  71 3.11
  40  0.686  0.047  0.215-  46 2.52  69 2.55  55 2.59  23 2.70  71 2.71  41 2.74  39 2.78   1 2.79
                            70 2.86  32 2.87  56 2.93  79 2.99
  41  0.785  0.121  0.313-  70 2.55  79 2.58  40 2.74  13 2.77   8 2.78  21 2.80  22 2.80  26 2.82
                             2 2.83  23 2.84  77 2.87   1 2.87
  42  0.943  0.286  0.222-  49 2.49  72 2.55  70 2.65  26 2.67  79 2.67  73 2.68  77 2.70   4 2.70
                            50 2.78  36 2.81  37 2.88  61 3.01
  43  0.787  0.882  0.049-  55 2.41  69 2.50   7 2.54  44 2.64  24 2.70  66 2.72  45 2.88  67 2.95

  44  0.036  0.851  0.047-  45 2.41  69 2.53  64 2.55  28 2.59  43 2.64  75 2.68  59 3.07  27 3.11

  45  0.048  0.630  0.044-  44 2.41  75 2.46  64 2.49  25 2.58   7 2.59  54 2.82  43 2.88
  46  0.621  0.226  0.132-  70 2.50  62 2.51  57 2.51  40 2.52  24 2.53  66 2.58  76 2.58  71 2.59
                            49 2.65  69 2.81  63 2.90
  47  0.371  0.944  0.131-  59 2.38  52 2.40  39 2.49  67 2.54  61 2.56  35 2.62  80 2.62  60 2.68
                            73 2.76  55 2.77  28 2.79
  48  0.994  0.372  0.045-  72 2.33  78 2.48  74 2.51  25 2.53  27 2.54  73 2.62
  49  0.863  0.212  0.131-  78 2.43  42 2.49  66 2.56  70 2.57  27 2.59  79 2.61  72 2.63  69 2.64
                            46 2.65  57 2.68  28 2.84  73 2.86
  50  0.946  0.532  0.224-   3 2.60   4 2.61  33 2.62  72 2.64   7 2.65  37 2.75  25 2.75  56 2.78
                            42 2.78  36 2.84  32 2.87  68 2.92
  51  0.537  0.619  0.323-  18 2.60  80 2.64  19 2.65  65 2.67  31 2.68  37 2.69  77 2.69  22 2.70
                            30 2.72  33 2.75  34 2.77  58 2.78
  52  0.294  0.109  0.050-  47 2.40  73 2.40  59 2.41  63 2.57  67 2.71  24 2.87  27 2.92
  53  0.565  0.596  0.047-  74 2.34  57 2.36  60 2.45  35 2.48  78 2.49  62 2.65  67 2.86
  54  0.304  0.384  0.050-  76 2.31  75 2.43  25 2.49  63 2.55  62 2.58  45 2.82  24 2.84
  55  0.628  0.924  0.130-  43 2.41  56 2.46  67 2.47  60 2.47  40 2.59  39 2.60  24 2.60   7 2.63
                            47 2.77
  56  0.699  0.780  0.223-  55 2.46  60 2.53   1 2.59  33 2.60  37 2.63  65 2.64   7 2.66  39 2.69
                            80 2.72  50 2.78  32 2.78  40 2.93
  57  0.622  0.449  0.131-  53 2.36  78 2.44  46 2.51  62 2.53  70 2.55  30 2.56  37 2.60  72 2.63
                            76 2.65  49 2.68  35 2.85  60 2.89
  58  0.289  0.866  0.320-  61 2.57  38 2.59  80 2.61  18 2.67   5 2.70  12 2.70  10 2.71  65 2.72
                            34 2.75  51 2.78  26 2.79   2 2.81
  59  0.279  0.903  0.041-  47 2.38  52 2.41  28 2.54  35 2.60  67 2.66  27 2.73  44 3.07
  60  0.614  0.710  0.130-  53 2.45  55 2.47  67 2.48  74 2.50  56 2.53  37 2.56  80 2.64   7 2.65
                            35 2.68  47 2.68  72 2.82  57 2.89
  61  0.217  0.022  0.226-   5 2.55  47 2.56  58 2.57  38 2.62  26 2.63  39 2.65  28 2.66  73 2.66
                            80 2.68  36 2.76  79 2.84  42 3.01
  62  0.536  0.376  0.040-  76 2.49  46 2.51  57 2.53  54 2.58  78 2.63  53 2.65  75 2.80  24 2.84

  63  0.370  0.211  0.137-  71 2.51  24 2.54  36 2.54  54 2.55  52 2.57  39 2.64  25 2.75  76 2.78
                            73 2.84  46 2.90
  64  0.133  0.690  0.137-  75 2.44  68 2.46  45 2.49  44 2.55  32 2.57  38 2.58  76 2.77  35 2.87
                            28 2.93  25 2.94   7 3.07
  65  0.536  0.858  0.319-  80 2.51  56 2.64  39 2.65  51 2.67  33 2.69  12 2.70  31 2.72  58 2.72
                            15 2.75   1 2.77   5 2.77  23 2.94
  66  0.784  0.126  0.040-  69 2.51  49 2.56  46 2.58  78 2.65  43 2.72  24 2.73  27 2.74
  67  0.533  0.866  0.041-  55 2.47  60 2.48  47 2.54  59 2.66  52 2.71  74 2.86  53 2.86  24 2.92
                            43 2.95
  68  0.211  0.523  0.221-  64 2.46   6 2.59  76 2.61   3 2.63  71 2.65  34 2.74  25 2.78  36 2.83
                            30 2.85  50 2.92  32 3.02  38 3.02
  69  0.869  0.974  0.132-  79 2.49  43 2.50  66 2.51  44 2.53  40 2.55  32 2.60  49 2.64  28 2.68
                            46 2.81
  70  0.705  0.291  0.225-  46 2.50  41 2.55  57 2.55  49 2.57  22 2.59  77 2.62  42 2.65  79 2.79
                            30 2.79  37 2.82  40 2.86
  71  0.453  0.295  0.224-  63 2.51  76 2.52  46 2.59   6 2.62  22 2.64  68 2.65  23 2.65  40 2.71
                            30 2.76  36 2.97  39 3.11
  72  0.856  0.450  0.131-  48 2.33  74 2.44  78 2.50  42 2.55  37 2.55  49 2.63  57 2.63  50 2.64
                             7 2.71  60 2.82  25 2.85  73 2.97
  73  0.127  0.192  0.131-  52 2.40  36 2.54  27 2.61  48 2.62  61 2.66  42 2.68  28 2.69  25 2.70
                            47 2.76  63 2.84  49 2.86  72 2.97
  74  0.773  0.598  0.042-  53 2.34  72 2.44  60 2.50  48 2.51   7 2.52  78 2.59  67 2.86
  75  0.275  0.613  0.046-  54 2.43  64 2.44  45 2.46  76 2.48  35 2.55  44 2.68  62 2.80
  76  0.385  0.450  0.132-  54 2.31  75 2.48  62 2.49  30 2.51  71 2.52  46 2.58  68 2.61  57 2.65
                            64 2.77  63 2.78  35 2.87  25 3.11
  77  0.777  0.380  0.320-  70 2.62  19 2.66  22 2.68  51 2.69  37 2.70  42 2.70  13 2.72  11 2.72
                            33 2.73   4 2.76  41 2.87  26 2.96
  78  0.776  0.366  0.044-  49 2.43  57 2.44  48 2.48  53 2.49  72 2.50  74 2.59  62 2.63  66 2.65
                            27 2.71
  79  0.954  0.043  0.223-  69 2.49  26 2.55  41 2.58  28 2.58  49 2.61   2 2.66  42 2.67  70 2.79
                            61 2.84  38 2.85  32 2.91  40 2.99
  80  0.455  0.784  0.227-  65 2.51  58 2.61  39 2.62  47 2.62  60 2.64  51 2.64  37 2.66  61 2.68
                            38 2.70  56 2.72  30 2.74  35 2.74
  81  0.039  0.115  0.464-  10 1.85  14 1.89  13 1.99
 
  LATTYP: Found a hexagonal cell.
 ALAT       =    11.2227001190
 C/A-ratio  =     1.9603125600
  
  Lattice vectors:
  
 A1 = (   5.6113500595,  -9.7191434021,   0.0000000000)
 A2 = ( -11.2227001190,   0.0000000000,   0.0000000000)
 A3 = (   0.0000000000,   0.0000000000, -22.0000000000)


Analysis of symmetry for initial positions (statically):
=====================================================================
 Subroutine PRICEL returns:
 Original cell was already a primitive cell.
 

 Routine SETGRP: Setting up the symmetry group for a 
 hexagonal supercell.


 Subroutine GETGRP returns: Found  1 space group operations
 (whereof  1 operations were pure point group operations)
 out of a pool of 24 trial point group operations.


The static configuration has the point symmetry C_1 .


Analysis of symmetry for dynamics (positions and initial velocities):
=====================================================================
 Subroutine PRICEL returns:
 Original cell was already a primitive cell.
 

 Routine SETGRP: Setting up the symmetry group for a 
 hexagonal supercell.


 Subroutine GETGRP returns: Found  1 space group operations
 (whereof  1 operations were pure point group operations)
 out of a pool of 24 trial point group operations.


The dynamic configuration has the point symmetry C_1 .


Analysis of constrained symmetry for selective dynamics:
=====================================================================
 Subroutine PRICEL returns:
 Original cell was already a primitive cell.
 

 Routine SETGRP: Setting up the symmetry group for a 
 hexagonal supercell.


 Subroutine GETGRP returns: Found  1 space group operations
 (whereof  1 operations were pure point group operations)
 out of a pool of 24 trial point group operations.


The constrained configuration has the point symmetry C_1 .


Analysis of structural, dynamic, and magnetic symmetry:
=====================================================================
 Subroutine PRICEL returns:
 Original cell was already a primitive cell.
 

 Routine SETGRP: Setting up the symmetry group for a 
 hexagonal supercell.


 Subroutine GETGRP returns: Found  1 space group operations
 (whereof  1 operations were pure point group operations)
 out of a pool of 24 trial point group operations.


The magnetic configuration has the point symmetry C_1 .


 Subroutine INISYM returns: Found  1 space group operations
 (whereof  1 operations are pure point group operations),
 and found     1 'primitive' translations

 
 
 KPOINTS: mesh auto                               

Automatic generation of k-mesh.
Space group operators:
 irot       det(A)        alpha          n_x          n_y          n_z        tau_x        tau_y        tau_z
    1     1.000000     0.000000     1.000000     0.000000     0.000000     0.000000     0.000000     0.000000
 
 Subroutine IBZKPT returns following result:
 ===========================================
 
 Found      4 irreducible k-points:
 
 Following reciprocal coordinates:
            Coordinates               Weight
  0.000000  0.000000  0.000000      1.000000
  0.500000  0.000000  0.000000      1.000000
  0.000000  0.500000  0.000000      1.000000
  0.500000  0.500000  0.000000      1.000000
 
 Following cartesian coordinates:
            Coordinates               Weight
  0.000000  0.000000  0.000000      1.000000
  0.044553 -0.025722  0.000000      1.000000
  0.000000  0.051445  0.000000      1.000000
  0.044553  0.025722  0.000000      1.000000
 


--------------------------------------------------------------------------------------------------------




 Dimension of arrays:
   k-points           NKPTS =      4   k-points in BZ     NKDIM =      4   number of bands    NBANDS=    588
   number of dos      NEDOS =    301   number of ions     NIONS =     81
   non local maximal  LDIM  =      6   non local SUM 2l+1 LMDIM =     18
   total plane-waves  NPLWV = ******
   max r-space proj   IRMAX =   7929   max aug-charges    IRDMAX=  34542
   dimension x,y,z NGX =    90 NGY =   90 NGZ =  168
   dimension x,y,z NGXF=   180 NGYF=  180 NGZF=  336
   support grid    NGXF=   180 NGYF=  180 NGZF=  336
   ions per type =              42  10   9  10   9   1
   NGX,Y,Z   is equivalent  to a cutoff of  13.33, 13.33, 12.70 a.u.
   NGXF,Y,Z  is equivalent  to a cutoff of  26.66, 26.66, 25.39 a.u.

 SYSTEM =  Pt111                                   
 POSCAR =  11.26-high                              

 Startparameter for this run:
   NWRITE =      2    write-flag & timer
   PREC   = accura    normal or accurate (medium, high low for compatibility)
   ISTART =      0    job   : 0-new  1-cont  2-samecut
   ICHARG =      2    charge: 1-file 2-atom 10-const
   ISPIN  =      2    spin polarized calculation?
   LNONCOLLINEAR =      F non collinear calculations
   LSORBIT =      F    spin-orbit coupling
   INIWAV =      1    electr: 0-lowe 1-rand  2-diag
   LASPH  =      F    aspherical Exc in radial PAW
   METAGGA=      F    non-selfconsistent MetaGGA calc.

 Electronic Relaxation 1
   ENCUT  =  550.0 eV  40.42 Ry    6.36 a.u.  21.46 21.46 42.07*2*pi/ulx,y,z
   ENINI  =  550.0     initial cutoff
   ENAUG  =  587.0 eV  augmentation charge cutoff
   NELM   =    200;   NELMIN=  2; NELMDL= -5     # of ELM steps 
   EDIFF  = 0.1E-04   stopping-criterion for ELM
   LREAL  =      T    real-space projection
   NLSPLINE    = F    spline interpolate recip. space projectors
   LCOMPAT=      F    compatible to vasp.4.4
   GGA_COMPAT  = T    GGA compatible to vasp.4.4-vasp.4.6
   LMAXPAW     = -100 max onsite density
   LMAXMIX     =    2 max onsite mixed and CHGCAR
   VOSKOWN=      0    Vosko Wilk Nusair interpolation
   ROPT   =   -0.00025  -0.00025  -0.00025  -0.00025
   ROPT   =   -0.00025  -0.00025
 Ionic relaxation
   EDIFFG = -.5E-01   stopping-criterion for IOM
   NSW    =    300    number of steps for IOM
   NBLOCK =      1;   KBLOCK =    300    inner block; outer block 
   IBRION =      2    ionic relax: 0-MD 1-quasi-New 2-CG
   NFREE  =      1    steps in history (QN), initial steepest desc. (CG)
   ISIF   =      2    stress and relaxation
   IWAVPR =     11    prediction:  0-non 1-charg 2-wave 3-comb
   ISYM   =      2    0-nonsym 1-usesym 2-fastsym
   LCORR  =      T    Harris-Foulkes like correction to forces

   POTIM  = 0.5000    time-step for ionic-motion
   TEIN   =    0.0    initial temperature
   TEBEG  =    0.0;   TEEND  =   0.0 temperature during run
   SMASS  =  -3.00    Nose mass-parameter (am)
   estimated Nose-frequenzy (Omega)   =  0.10E-29 period in steps =****** mass=  -0.288E-26a.u.
   SCALEE = 1.0000    scale energy and forces
   NPACO  =    256;   APACO  = 16.0  distance and # of slots for P.C.
   PSTRESS=    0.0 pullay stress

  Mass of Ions in am
   POMASS = 195.08 55.85 58.93 63.55 58.69  1.00
  Ionic Valenz
   ZVAL   =  10.00  8.00  9.00 11.00 10.00  1.00
  Atomic Wigner-Seitz radii
   RWIGS  =  -1.00 -1.00 -1.00 -1.00 -1.00 -1.00
  virtual crystal weights 
   VCA    =   1.00  1.00  1.00  1.00  1.00  1.00
   NELECT =     782.0000    total number of electrons
   NUPDOWN=      -1.0000    fix difference up-down

 DOS related values:
   EMIN   =  10.00;   EMAX   =-10.00  energy-range for DOS
   EFERMI =   0.00
   ISMEAR =     1;   SIGMA  =   0.10  broadening in eV -4-tet -1-fermi 0-gaus

 Electronic relaxation 2 (details)
   IALGO  =     68    algorithm
   LDIAG  =      T    sub-space diagonalisation (order eigenvalues)
   LSUBROT=      F    optimize rotation matrix (better conditioning)
   TURBO    =      0    0=normal 1=particle mesh
   IRESTART =      0    0=no restart 2=restart with 2 vectors
   NREBOOT  =      0    no. of reboots
   NMIN     =      0    reboot dimension
   EREF     =   0.00    reference energy to select bands
   IMIX   =      4    mixing-type and parameters
     AMIX     =   0.40;   BMIX     =  1.00
     AMIX_MAG =   1.60;   BMIX_MAG =  1.00
     AMIN     =   0.10
     WC   =   100.;   INIMIX=   1;  MIXPRE=   1;  MAXMIX= -45

 Intra band minimization:
   WEIMIN = 0.0010     energy-eigenvalue tresh-hold
   EBREAK =  0.43E-08  absolut break condition
   DEPER  =   0.30     relativ break condition  

   TIME   =   0.40     timestep for ELM

  volume/ion in A,a.u.               =      29.63       199.92
  Fermi-wavevector in a.u.,A,eV,Ry     =   1.126577  2.128923 17.268199  1.269177
  Thomas-Fermi vector in A             =   2.263260
 
 Write flags
   LWAVE        =      F    write WAVECAR
   LDOWNSAMPLE  =      F    k-point downsampling of WAVECAR
   LCHARG       =      F    write CHGCAR
   LVTOT        =      F    write LOCPOT, total local potential
   LVHAR        =      F    write LOCPOT, Hartree potential only
   LELF         =      F    write electronic localiz. function (ELF)
   LORBIT       =      0    0 simple, 1 ext, 2 COOP (PROOUT), +10 PAW based schemes


 Dipole corrections
   LMONO  =      F    monopole corrections only (constant potential shift)
   LDIPOL =      F    correct potential (dipole corrections)
   IDIPOL =      0    1-x, 2-y, 3-z, 4-all directions 
   EPSILON=  1.0000000 bulk dielectric constant

 Exchange correlation treatment:
   GGA     =    --    GGA type
   LEXCH   =     8    internal setting for exchange type
   VOSKOWN=      0    Vosko Wilk Nusair interpolation
   LHFCALC =     F    Hartree Fock is set to
   LHFONE  =     F    Hartree Fock one center treatment
   AEXX    =    0.0000 exact exchange contribution

 Linear response parameters
   LEPSILON=     F    determine dielectric tensor
   LRPA    =     F    only Hartree local field effects (RPA)
   LNABLA  =     F    use nabla operator in PAW spheres
   LVEL    =     F    velocity operator in full k-point grid
   LINTERFAST=   F  fast interpolation
   KINTER  =     0    interpolate to denser k-point grid
   CSHIFT  =0.1000    complex shift for real part using Kramers Kronig
   OMEGAMAX=  -1.0    maximum frequency
   DEG_THRESHOLD= 0.2000000E-02 threshold for treating states as degnerate
   RTIME   =   -0.100 relaxation time in fs
  (WPLASMAI=    0.000 imaginary part of plasma frequency in eV, 0.658/RTIME)
   DFIELD  = 0.0000000 0.0000000 0.0000000 field for delta impulse in time
 
 Orbital magnetization related:
   ORBITALMAG=     F  switch on orbital magnetization
   LCHIMAG   =     F  perturbation theory with respect to B field
   DQ        =  0.001000  dq finite difference perturbation B field
   LLRAUG    =     F  two centre corrections for induced B field



--------------------------------------------------------------------------------------------------------


 conjugate gradient relaxation of ions
   using selective dynamics as specified on POSCAR
 charge density and potential will be updated during run
 spin polarized calculation
 RMM-DIIS sequential band-by-band and
  variant of blocked Davidson during initial phase
 perform sub-space diagonalisation
    before iterative eigenvector-optimisation
 modified Broyden-mixing scheme, WC =      100.0
 initial mixing is a Kerker type mixing with AMIX =  0.4000 and BMIX =      1.0000
 Hartree-type preconditioning will be used
 using additional bands          197
 real space projection scheme for non local part
 use partial core corrections
 calculate Harris-corrections to forces 
   (improved forces if not selfconsistent)
 use gradient corrections 
 use of overlap-Matrix (Vanderbilt PP)
 Methfessel and Paxton  Order N= 1 SIGMA  =   0.10


--------------------------------------------------------------------------------------------------------


  energy-cutoff  :      550.00
  volume of cell :     2399.65
      direct lattice vectors                 reciprocal lattice vectors
    11.222700119  0.000000000  0.000000000     0.089105116 -0.051444863  0.000000000
     5.611350060  9.719143402  0.000000000     0.000000000  0.102889726  0.000000000
     0.000000000  0.000000000 22.000000000     0.000000000  0.000000000  0.045454545

  length of vectors
    11.222700119 11.222700119 22.000000000     0.102889726  0.102889726  0.045454545


 
 k-points in units of 2pi/SCALE and weight: mesh auto                               
   0.00000000  0.00000000  0.00000000       0.250
   0.04455256 -0.02572243  0.00000000       0.250
   0.00000000  0.05144486  0.00000000       0.250
   0.04455256  0.02572243  0.00000000       0.250
 
 k-points in reciprocal lattice and weights: mesh auto                               
   0.00000000  0.00000000  0.00000000       0.250
   0.50000000  0.00000000  0.00000000       0.250
   0.00000000  0.50000000  0.00000000       0.250
   0.50000000  0.50000000  0.00000000       0.250
 
 position of ions in fractional coordinates (direct lattice) 
   0.77565141  0.86995642  0.31454616
   0.03726767  0.86939735  0.31633907
   0.03633080  0.61739466  0.31308321
   0.02817284  0.37111849  0.31877620
   0.28981435  0.10615917  0.31846553
   0.28694614  0.36750652  0.31705326
   0.86038307  0.68854678  0.12531565
   0.86069082  0.95542901  0.41608579
   0.11497805  0.45611201  0.41918237
   0.12378233  0.95279974  0.41954381
   0.86991530  0.44881839  0.42066107
   0.37451156  0.94679451  0.41841843
   0.86561038  0.20525736  0.41580717
   0.11965739  0.20103720  0.42002402
   0.61932181  0.94576628  0.41793782
   0.86652285  0.70309507  0.41969294
   0.37224683  0.19668105  0.41982619
   0.37781609  0.70293761  0.41744273
   0.62177792  0.45633513  0.41932186
   0.11486893  0.69885824  0.42092527
   0.61873688  0.20625851  0.41701190
   0.54091360  0.37662976  0.31743913
   0.53152675  0.12125144  0.31653045
   0.54420190  0.12019148  0.05044345
   0.11424052  0.43860757  0.12340508
   0.03892265  0.11414894  0.31609053
   0.02432533  0.13236688  0.03690154
   0.11521348  0.95848802  0.12979272
   0.36812537  0.45060942  0.41935956
   0.45574359  0.53965249  0.22135250
   0.61893284  0.70045261  0.42070730
   0.94101394  0.79056552  0.21791424
   0.78018468  0.62239096  0.31794447
   0.28883354  0.62109808  0.31837640
   0.37681260  0.70908830  0.12233112
   0.19804412  0.27712854  0.22298714
   0.69395409  0.54843935  0.22211682
   0.21076833  0.79187996  0.22361313
   0.45574183  0.01649232  0.22064103
   0.68628609  0.04688739  0.21472279
   0.78458062  0.12142453  0.31297370
   0.94349309  0.28579245  0.22158907
   0.78678573  0.88216808  0.04880706
   0.03586233  0.85071210  0.04654319
   0.04812293  0.63029630  0.04396441
   0.62094942  0.22562192  0.13235731
   0.37094220  0.94439705  0.13130330
   0.99360993  0.37197898  0.04479349
   0.86316425  0.21223953  0.13085093
   0.94632970  0.53215547  0.22401160
   0.53690276  0.61906035  0.32268017
   0.29424967  0.10946403  0.05024110
   0.56523708  0.59647576  0.04673852
   0.30353543  0.38377122  0.04999638
   0.62775780  0.92360755  0.13039321
   0.69891684  0.78000591  0.22256618
   0.62226646  0.44852339  0.13148461
   0.28862215  0.86645821  0.32000596
   0.27920356  0.90344548  0.04109614
   0.61435034  0.71013018  0.13007464
   0.21650964  0.02241820  0.22577642
   0.53614829  0.37642561  0.04013354
   0.37023431  0.21051928  0.13657032
   0.13264840  0.68967264  0.13748505
   0.53558057  0.85771964  0.31850993
   0.78410875  0.12570915  0.04035826
   0.53292063  0.86611421  0.04082352
   0.21068881  0.52291933  0.22146415
   0.86931925  0.97366600  0.13234433
   0.70506050  0.29142744  0.22453327
   0.45331117  0.29469085  0.22351187
   0.85569873  0.44978941  0.13133023
   0.12736941  0.19194945  0.13066156
   0.77259672  0.59820800  0.04206678
   0.27526983  0.61273885  0.04635559
   0.38521707  0.45004557  0.13185726
   0.77733999  0.38038046  0.31965691
   0.77578291  0.36553722  0.04363425
   0.95382533  0.04285795  0.22280997
   0.45511611  0.78378709  0.22716765
   0.03871910  0.11483115  0.46388847
 
 position of ions in cartesian coordinates  (Angst):
  13.58653325  8.45523123  6.92001548
   5.29673679  8.44979751  6.95945955
   3.87214724  6.00054726  6.88783066
   2.39865113  3.60695384  7.01307648
   3.84819579  1.03177618  7.00624170
   5.28251818  3.57184852  6.97517183
  13.51949814  6.69208485  2.75694422
  15.02052160  9.28595154  9.15388738
   3.84976837  4.43301802  9.22201210
   6.73566480  9.26039728  9.22996380
  12.28127557  4.36213025  9.25454358
   9.51582632  9.20203158  9.20520554
  10.86625656  1.99492569  9.14775772
   2.47096915  1.95390936  9.24052850
  12.25748868  9.19203815  9.19463215
  13.67003872  6.83348184  9.23324467
   5.28126076  1.91157136  9.23617623
   8.18454572  6.83195148  9.18374013
   9.53868327  4.43518658  9.22508087
   5.21067777  6.79230343  9.26035602
   8.10128715  2.00465607  9.17426171
   8.18391251  3.66051863  6.98366078
   6.64554963  1.17846010  6.96366999
   6.78185123  1.16815827  1.10975587
   3.74326768  4.26288989  2.71491169
   1.07734692  1.10942995  6.95399167
   1.01575276  1.28649272  0.81183379
   6.67141817  9.31568253  2.85543986
   6.65988779  4.37953755  9.22591026
   8.14285267  5.24495994  4.86975508
  10.87658250  6.80779939  9.25556067
  14.99685718  7.68361965  4.79411333
  12.24823225  6.04910695  6.99477833
   6.72669100  6.03654129  7.00428089
   8.20779749  6.89173084  2.69128464
   3.77765507  2.69345205  4.90571710
  10.86552387  5.33036073  4.88657006
   6.80890548  7.69639494  4.91948892
   5.20719800  0.16029118  4.85410263
   7.96508457  0.45570528  4.72390144
   9.48646863  1.18014246  6.88542147
  12.19222152  2.77765781  4.87495965
  13.78001418  8.57391807  1.07375538
   5.17611559  8.26819293  1.02395014
   4.07688236  6.12594009  0.96721713
   8.23477271  2.19285182  2.91186093
   9.46231548  9.17873039  2.88867254
  13.23829050  3.61531702  0.98545676
  10.87798387  2.06278643  2.87872037
  13.60648511  5.17209535  4.92825516
   9.49926302  6.01673636  7.09896376
   3.91651686  1.06389665  1.10530426
   9.69052050  5.79723345  1.02824752
   5.55996175  3.72992755  1.09992033
  12.22782284  8.97667424  2.86865054
  12.22062035  7.58098930  4.89645605
   9.50033164  4.35926310  2.89266135
   8.10112017  8.42123155  7.04013101
   8.20296665  8.78071621  0.90411500
  10.87945866  6.90185704  2.86164217
   2.55561917  0.21788571  4.96708124
   8.12928731  3.65853446  0.88293797
   5.33632603  2.04606707  3.00454701
   5.35866784  6.70302732  3.02467112
  10.82362526  8.33630022  7.00721852
   9.50521537  1.22178527  0.88788171
  10.84087843  8.41788825  0.89811744
   5.29878074  5.08232791  4.87221127
  15.21969006  9.46319948  2.91157520
   9.54798398  2.83242508  4.93973185
   6.74098883  2.86414265  4.91726116
  12.12717608  4.37156778  2.88926501
   2.50652432  1.86558426  2.87455439
  12.02737582  5.81406929  0.92546912
   6.52756292  5.95529675  1.01982289
   6.84853891  4.37405744  2.90085982
  10.85830151  3.69697227  7.03245195
  10.75753628  3.55270863  0.95995355
  10.94498656  0.41654257  4.90181936
   9.50573532  7.61773913  4.99768830
   1.07889062  1.11606042 10.20554644
 


--------------------------------------------------------------------------------------------------------


 k-point  1 :   0.0000 0.0000 0.0000  plane waves:   70321
 k-point  2 :   0.5000 0.0000 0.0000  plane waves:   70264
 k-point  3 :   0.0000 0.5000 0.0000  plane waves:   70264
 k-point  4 :   0.5000 0.5000 0.0000  plane waves:   70264

 maximum and minimum number of plane-waves per node :     17611    17530

 maximum number of plane-waves:     70321
 maximum index in each direction: 
   IXMAX=   21   IYMAX=   21   IZMAX=   42
   IXMIN=  -21   IYMIN=  -21   IZMIN=  -42


 real space projection operators:
  total allocation   :      80383.36 KBytes
  max/ min on nodes  :      20551.43      19649.77


 parallel 3D FFT for wavefunctions:
    minimum data exchange during FFTs selected (reduces bandwidth)
 parallel 3D FFT for charge:
    minimum data exchange during FFTs selected (reduces bandwidth)


 total amount of memory used by VASP MPI-rank0   252739. kBytes
=======================================================================

   base      :      30000. kBytes
   nonlr-proj:      36150. kBytes
   fftplans  :      18297. kBytes
   grid      :      55120. kBytes
   one-center:        653. kBytes
   wavefun   :     112519. kBytes
 
     INWAV:  cpu time    0.0000: real time    0.0004
 Broyden mixing: mesh for mixing (old mesh)
   NGX = 43   NGY = 43   NGZ = 85
  (NGX  =180   NGY  =180   NGZ  =336)
  gives a total of 157165 points

 initial charge density was supplied:
 charge density of overlapping atoms calculated
 number of electron     782.0000000 magnetization     231.0000000
 keeping initial charge density in first step


--------------------------------------------------------------------------------------------------------


 Maximum index for non-local projection operator         2111
 Maximum index for augmentation-charges         1115 (set IRDMAX)


--------------------------------------------------------------------------------------------------------


 First call to EWALD:  gamma=   0.132
 Maximum number of real-space cells 4x 4x 2
 Maximum number of reciprocal cells 2x 2x 4

    FEWALD:  cpu time    0.0089: real time    0.0090


--------------------------------------- Iteration      1(   1)  ---------------------------------------


    POTLOK:  cpu time    0.4713: real time    0.5083
    SETDIJ:  cpu time    0.0372: real time    0.0373
     EDDAV:  cpu time   70.3801: real time   70.7341
       DOS:  cpu time    0.0025: real time    0.0293
    --------------------------------------------
      LOOP:  cpu time   70.8912: real time   71.3091

 eigenvalue-minimisations  :  9408
 total energy-change (2. order) : 0.7525299E+04  (-0.3320584E+05)
 number of electron     782.0000000 magnetization     231.0000000
 augmentation part      782.0000000 magnetization     231.0000000

 Free energy of the ion-electron system (eV)
  ---------------------------------------------------
  alpha Z        PSCENC =      2087.66410956
  Ewald energy   TEWEN  =    207658.66135655
  -Hartree energ DENC   =   -277366.91170213
  -exchange      EXHF   =         0.00000000
  -V(xc)+E(xc)   XCENC  =      1139.68201148
  PAW double counting   =     62149.36172160   -63175.55445867
  entropy T*S    EENTRO =        -0.00599111
  eigenvalues    EBANDS =      7524.83970161
  atomic energy  EATOM  =     67507.56188773
  Solvation  Ediel_sol  =         0.00000000
  ---------------------------------------------------
  free energy    TOTEN  =      7525.29863664 eV

  energy without entropy =     7525.30462775  energy(sigma->0) =     7525.30063368


--------------------------------------------------------------------------------------------------------




--------------------------------------- Iteration      1(   2)  ---------------------------------------


     EDDAV:  cpu time   71.1555: real time   71.4345
       DOS:  cpu time    0.0026: real time    0.0140
    --------------------------------------------
      LOOP:  cpu time   71.1582: real time   71.4485

 eigenvalue-minimisations  :  9564
 total energy-change (2. order) :-0.6886700E+04  (-0.6144203E+04)
 number of electron     782.0000000 magnetization     231.0000000
 augmentation part      782.0000000 magnetization     231.0000000

 Free energy of the ion-electron system (eV)
  ---------------------------------------------------
  alpha Z        PSCENC =      2087.66410956
  Ewald energy   TEWEN  =    207658.66135655
  -Hartree energ DENC   =   -277366.91170213
  -exchange      EXHF   =         0.00000000
  -V(xc)+E(xc)   XCENC  =      1139.68201148
  PAW double counting   =     62149.36172160   -63175.55445867
  entropy T*S    EENTRO =         0.01260277
  eigenvalues    EBANDS =       638.12077750
  atomic energy  EATOM  =     67507.56188773
  Solvation  Ediel_sol  =         0.00000000
  ---------------------------------------------------
  free energy    TOTEN  =       638.59830641 eV

  energy without entropy =      638.58570364  energy(sigma->0) =      638.59410549


--------------------------------------------------------------------------------------------------------




--------------------------------------- Iteration      1(   3)  ---------------------------------------


     EDDAV:  cpu time   70.9218: real time   71.1368
       DOS:  cpu time    0.0030: real time    0.0151
    --------------------------------------------
      LOOP:  cpu time   70.9248: real time   71.1518

 eigenvalue-minimisations  :  9504
 total energy-change (2. order) :-0.1015860E+04  (-0.8342766E+03)
 number of electron     782.0000000 magnetization     231.0000000
 augmentation part      782.0000000 magnetization     231.0000000

 Free energy of the ion-electron system (eV)
  ---------------------------------------------------
  alpha Z        PSCENC =      2087.66410956
  Ewald energy   TEWEN  =    207658.66135655
  -Hartree energ DENC   =   -277366.91170213
  -exchange      EXHF   =         0.00000000
  -V(xc)+E(xc)   XCENC  =      1139.68201148
  PAW double counting   =     62149.36172160   -63175.55445867
  entropy T*S    EENTRO =         0.00439576
  eigenvalues    EBANDS =      -377.73065361
  atomic energy  EATOM  =     67507.56188773
  Solvation  Ediel_sol  =         0.00000000
  ---------------------------------------------------
  free energy    TOTEN  =      -377.26133171 eV

  energy without entropy =     -377.26572747  energy(sigma->0) =     -377.26279696


--------------------------------------------------------------------------------------------------------




--------------------------------------- Iteration      1(   4)  ---------------------------------------


     EDDAV:  cpu time   84.9330: real time   85.3115
       DOS:  cpu time    0.0030: real time    0.0597
    --------------------------------------------
      LOOP:  cpu time   84.9360: real time   85.3712

 eigenvalue-minimisations  : 11928
 total energy-change (2. order) :-0.9106778E+02  (-0.8376831E+02)
 number of electron     782.0000000 magnetization     231.0000000
 augmentation part      782.0000000 magnetization     231.0000000

 Free energy of the ion-electron system (eV)
  ---------------------------------------------------
  alpha Z        PSCENC =      2087.66410956
  Ewald energy   TEWEN  =    207658.66135655
  -Hartree energ DENC   =   -277366.91170213
  -exchange      EXHF   =         0.00000000
  -V(xc)+E(xc)   XCENC  =      1139.68201148
  PAW double counting   =     62149.36172160   -63175.55445867
  entropy T*S    EENTRO =        -0.00396070
  eigenvalues    EBANDS =      -468.79007496
  atomic energy  EATOM  =     67507.56188773
  Solvation  Ediel_sol  =         0.00000000
  ---------------------------------------------------
  free energy    TOTEN  =      -468.32910952 eV

  energy without entropy =     -468.32514882  energy(sigma->0) =     -468.32778929


--------------------------------------------------------------------------------------------------------




--------------------------------------- Iteration      1(   5)  ---------------------------------------


     EDDAV:  cpu time   80.4469: real time   80.7046
       DOS:  cpu time    0.0033: real time    0.0275
    CHARGE:  cpu time    4.5413: real time    4.5534
    MIXING:  cpu time    0.0116: real time    0.0118
    --------------------------------------------
      LOOP:  cpu time   85.0031: real time   85.2974

 eigenvalue-minimisations  : 11196
 total energy-change (2. order) :-0.3651293E+01  (-0.3622710E+01)
 number of electron     782.0000027 magnetization     215.7034739
 augmentation part      312.8507504 magnetization     181.1931268

 Broyden mixing:
  rms(total) = 0.11784E+02    rms(broyden)= 0.11784E+02
  rms(prec ) = 0.12171E+02
  weight for this iteration     100.00

 Free energy of the ion-electron system (eV)
  ---------------------------------------------------
  alpha Z        PSCENC =      2087.66410956
  Ewald energy   TEWEN  =    207658.66135655
  -Hartree energ DENC   =   -277366.91170213
  -exchange      EXHF   =         0.00000000
  -V(xc)+E(xc)   XCENC  =      1139.68201148
  PAW double counting   =     62149.36172160   -63175.55445867
  entropy T*S    EENTRO =        -0.00438804
  eigenvalues    EBANDS =      -472.44094052
  atomic energy  EATOM  =     67507.56188773
  Solvation  Ediel_sol  =         0.00000000
  ---------------------------------------------------
  free energy    TOTEN  =      -471.98040242 eV

  energy without entropy =     -471.97601438  energy(sigma->0) =     -471.97893974


--------------------------------------------------------------------------------------------------------




--------------------------------------- Iteration      1(   6)  ---------------------------------------


    POTLOK:  cpu time    0.4536: real time    0.5154
    SETDIJ:  cpu time    0.0362: real time    0.0364
    EDDIAG:  cpu time   12.6628: real time   12.7080
  RMM-DIIS:  cpu time   45.5737: real time   45.7438
    ORTHCH:  cpu time    1.4645: real time    1.4691
       DOS:  cpu time    0.0026: real time    0.0026
    CHARGE:  cpu time    4.4979: real time    4.5101
    MIXING:  cpu time    0.0126: real time    0.0133
    --------------------------------------------
      LOOP:  cpu time   64.7040: real time   64.9987

 eigenvalue-minimisations  : 10048
 total energy-change (2. order) :-0.2870919E+03  (-0.1020467E+03)
 number of electron     782.0000039 magnetization     211.8015298
 augmentation part      370.4594497 magnetization     175.6937961

 Broyden mixing:
  rms(total) = 0.20581E+02    rms(broyden)= 0.20581E+02
  rms(prec ) = 0.27352E+02
  weight for this iteration     100.00

 eigenvalues of (default mixing * dielectric matrix)
  average eigenvalue GAMMA=   0.2552
  0.2552

 Free energy of the ion-electron system (eV)
  ---------------------------------------------------
  alpha Z        PSCENC =      2087.66410956
  Ewald energy   TEWEN  =    207658.66135655
  -Hartree energ DENC   =   -275788.36833991
  -exchange      EXHF   =         0.00000000
  -V(xc)+E(xc)   XCENC  =      1102.29656093
  PAW double counting   =     66605.34566927   -67456.64432742
  entropy T*S    EENTRO =        -0.00215873
  eigenvalues    EBANDS =     -2475.58707313
  atomic energy  EATOM  =     67507.56188773
  Solvation  Ediel_sol  =         0.00000000
  ---------------------------------------------------
  free energy    TOTEN  =      -759.07231514 eV

  energy without entropy =     -759.07015641  energy(sigma->0) =     -759.07159556


--------------------------------------------------------------------------------------------------------




--------------------------------------- Iteration      1(   7)  ---------------------------------------


    POTLOK:  cpu time    0.4635: real time    0.4656
    SETDIJ:  cpu time    0.0363: real time    0.0364
    EDDIAG:  cpu time   12.6300: real time   12.7089
  RMM-DIIS:  cpu time   42.7770: real time   42.9628
    ORTHCH:  cpu time    1.4929: real time    1.4973
       DOS:  cpu time    0.0027: real time    0.0027
    CHARGE:  cpu time    4.4791: real time    4.4911
    MIXING:  cpu time    0.0129: real time    0.0130
    --------------------------------------------
      LOOP:  cpu time   61.8945: real time   62.1778

 eigenvalue-minimisations  :  9423
 total energy-change (2. order) : 0.2110329E+03  (-0.1874403E+02)
 number of electron     782.0000026 magnetization     206.9542307
 augmentation part      340.5130759 magnetization     166.1723779

 Broyden mixing:
  rms(total) = 0.15209E+02    rms(broyden)= 0.15208E+02
  rms(prec ) = 0.19397E+02
  weight for this iteration     100.00

 eigenvalues of (default mixing * dielectric matrix)
  average eigenvalue GAMMA=   0.2681
  0.3824  0.1537

 Free energy of the ion-electron system (eV)
  ---------------------------------------------------
  alpha Z        PSCENC =      2087.66410956
  Ewald energy   TEWEN  =    207658.66135655
  -Hartree energ DENC   =   -276415.94843691
  -exchange      EXHF   =         0.00000000
  -V(xc)+E(xc)   XCENC  =      1120.70577808
  PAW double counting   =     67579.53370074   -68572.51568362
  entropy T*S    EENTRO =        -0.00841548
  eigenvalues    EBANDS =     -1513.69366367
  atomic energy  EATOM  =     67507.56188773
  Solvation  Ediel_sol  =         0.00000000
  ---------------------------------------------------
  free energy    TOTEN  =      -548.03936700 eV

  energy without entropy =     -548.03095153  energy(sigma->0) =     -548.03656184


--------------------------------------------------------------------------------------------------------




--------------------------------------- Iteration      1(   8)  ---------------------------------------


    POTLOK:  cpu time    0.4620: real time    0.4751
    SETDIJ:  cpu time    0.0368: real time    0.0369
    EDDIAG:  cpu time   12.6609: real time   12.6957
  RMM-DIIS:  cpu time   42.8853: real time   43.0115
    ORTHCH:  cpu time    1.4546: real time    1.4898
       DOS:  cpu time    0.0027: real time    0.0027
    CHARGE:  cpu time    4.3919: real time    4.4120
    MIXING:  cpu time    0.0136: real time    0.0140
    --------------------------------------------
      LOOP:  cpu time   61.9078: real time   62.1377

 eigenvalue-minimisations  :  9437
 total energy-change (2. order) : 0.1230114E+03  (-0.1736267E+02)
 number of electron     782.0000028 magnetization     199.8772713
 augmentation part      350.8901747 magnetization     156.5773228

 Broyden mixing:
  rms(total) = 0.12499E+02    rms(broyden)= 0.12499E+02
  rms(prec ) = 0.13870E+02
  weight for this iteration     100.00

 eigenvalues of (default mixing * dielectric matrix)
  average eigenvalue GAMMA=   0.3153
  0.5589  0.2769  0.1100

 Free energy of the ion-electron system (eV)
  ---------------------------------------------------
  alpha Z        PSCENC =      2087.66410956
  Ewald energy   TEWEN  =    207658.66135655
  -Hartree energ DENC   =   -276593.17496995
  -exchange      EXHF   =         0.00000000
  -V(xc)+E(xc)   XCENC  =      1130.34607933
  PAW double counting   =     68724.68896963   -69775.11986172
  entropy T*S    EENTRO =         0.00023655
  eigenvalues    EBANDS =     -1165.65579524
  atomic energy  EATOM  =     67507.56188773
  Solvation  Ediel_sol  =         0.00000000
  ---------------------------------------------------
  free energy    TOTEN  =      -425.02798755 eV

  energy without entropy =     -425.02822409  energy(sigma->0) =     -425.02806640


--------------------------------------------------------------------------------------------------------




--------------------------------------- Iteration      1(   9)  ---------------------------------------


    POTLOK:  cpu time    0.4619: real time    0.4766
    SETDIJ:  cpu time    0.0365: real time    0.0367
    EDDIAG:  cpu time   12.6632: real time   12.6976
  RMM-DIIS:  cpu time   42.9350: real time   43.1466
    ORTHCH:  cpu time    1.4507: real time    1.4545
       DOS:  cpu time    0.0028: real time    0.0028
    CHARGE:  cpu time    4.4614: real time    4.4733
    MIXING:  cpu time    0.0135: real time    0.0137
    --------------------------------------------
      LOOP:  cpu time   62.0249: real time   62.3017

 eigenvalue-minimisations  :  9450
 total energy-change (2. order) : 0.2315970E+02  (-0.2063295E+02)
 number of electron     782.0000035 magnetization     192.7508338
 augmentation part      347.4431615 magnetization     149.1309866

 Broyden mixing:
  rms(total) = 0.13748E+02    rms(broyden)= 0.13748E+02
  rms(prec ) = 0.15091E+02
  weight for this iteration     100.00

 eigenvalues of (default mixing * dielectric matrix)
  average eigenvalue GAMMA=   0.3487
  0.7567  0.3844  0.1269  0.1269

 Free energy of the ion-electron system (eV)
  ---------------------------------------------------
  alpha Z        PSCENC =      2087.66410956
  Ewald energy   TEWEN  =    207658.66135655
  -Hartree energ DENC   =   -276541.50260411
  -exchange      EXHF   =         0.00000000
  -V(xc)+E(xc)   XCENC  =      1142.53260789
  PAW double counting   =     70086.48451722   -71199.77431383
  entropy T*S    EENTRO =         0.01052126
  eigenvalues    EBANDS =     -1143.50636716
  atomic energy  EATOM  =     67507.56188773
  Solvation  Ediel_sol  =         0.00000000
  ---------------------------------------------------
  free energy    TOTEN  =      -401.86828488 eV

  energy without entropy =     -401.87880613  energy(sigma->0) =     -401.87179196


--------------------------------------------------------------------------------------------------------




--------------------------------------- Iteration      1(  10)  ---------------------------------------


    POTLOK:  cpu time    0.4488: real time    0.4752
    SETDIJ:  cpu time    0.0365: real time    0.0367
    EDDIAG:  cpu time   12.6268: real time   12.6676
  RMM-DIIS:  cpu time   42.9833: real time   43.1590
    ORTHCH:  cpu time    1.4518: real time    1.4639
       DOS:  cpu time    0.0028: real time    0.0028
    CHARGE:  cpu time    3.2108: real time    4.8462
[...]
   -.727E+02 -.193E+01 -.129E+04   0.716E+02 0.173E+01 0.129E+04   0.949E+00 0.190E+00 0.144E+01   0.489E-01 0.168E-01 0.476E-01
   0.439E+02 0.291E+02 -.133E+04   -.432E+02 -.288E+02 0.133E+04   -.688E+00 -.355E+00 0.148E+01   -.188E-01 0.189E-01 0.137E-01
   0.107E+02 -.250E+02 -.128E+04   -.109E+02 0.243E+02 0.128E+04   0.157E+00 0.717E+00 0.229E+01   0.189E-01 -.124E-02 0.311E-01
   -.429E+02 0.446E+01 -.136E+04   0.420E+02 -.398E+01 0.135E+04   0.739E+00 -.479E+00 0.156E+01   0.557E-01 -.110E-01 0.985E-02
   0.309E+01 -.825E+02 -.137E+04   -.383E+01 0.813E+02 0.137E+04   0.745E+00 0.118E+01 0.172E+01   0.989E-02 0.292E-01 0.454E-01
   0.512E+02 0.327E+01 -.140E+04   -.509E+02 -.337E+01 0.140E+04   -.274E+00 0.110E+00 0.167E+01   -.289E-02 0.609E-02 0.346E-01
   -.122E+03 -.400E+01 0.154E+04   0.121E+03 0.471E+01 -.154E+04   0.993E+00 -.729E+00 0.704E+00   0.123E-01 0.144E-02 0.263E-01
   -.104E+02 -.245E+01 -.264E+04   0.103E+02 0.213E+01 0.264E+04   0.162E+00 0.353E+00 0.172E+01   -.133E-01 -.119E-01 -.777E-02
   -.183E+02 0.608E+01 -.266E+04   0.178E+02 -.543E+01 0.266E+04   0.385E+00 -.667E+00 0.153E+01   0.375E-01 0.461E-02 -.299E-02
   0.381E+02 -.113E+01 -.266E+04   -.378E+02 0.191E+00 0.266E+04   -.313E+00 0.963E+00 0.181E+01   -.242E-01 -.465E-03 0.209E-01
   -.366E+02 0.599E+01 -.270E+04   0.364E+02 -.617E+01 0.270E+04   0.910E-01 0.161E+00 0.192E+01   0.317E-01 0.107E-01 0.333E-01
   0.173E+02 -.449E+02 -.271E+04   -.173E+02 0.445E+02 0.271E+04   -.254E-01 0.398E+00 0.222E+01   0.128E-01 0.220E-01 0.186E-01
   0.495E+01 0.372E+02 -.266E+04   -.569E+01 -.366E+02 0.266E+04   0.748E+00 -.469E+00 0.995E+00   -.208E-02 -.585E-01 0.388E-01
   -.117E+02 -.950E+01 -.267E+04   0.122E+02 0.985E+01 0.267E+04   -.552E+00 -.344E+00 0.829E+00   0.662E-02 -.141E-02 0.156E-01
   -.441E+02 -.334E+02 -.268E+04   0.441E+02 0.326E+02 0.268E+04   0.124E-02 0.731E+00 0.153E+01   0.985E-02 0.643E-02 -.638E-04
   -.334E+02 -.680E+00 -.266E+04   0.332E+02 0.926E+00 0.266E+04   0.241E+00 -.272E+00 0.134E+01   0.294E-01 0.870E-02 0.935E-02
   -.314E+01 -.308E+02 -.269E+04   0.338E+01 0.302E+02 0.268E+04   -.241E+00 0.680E+00 0.177E+01   -.192E-01 0.538E-02 -.106E-01
   0.575E+02 0.212E+02 -.269E+04   -.566E+02 -.207E+02 0.268E+04   -.100E+01 -.438E+00 0.208E+01   -.269E-01 -.123E-01 0.627E-02
   0.406E+02 0.203E+02 -.272E+04   -.396E+02 -.197E+02 0.272E+04   -.973E+00 -.613E+00 0.211E+01   -.399E-01 0.130E-01 0.416E-01
   0.699E+01 -.592E+01 -.266E+04   -.713E+01 0.568E+01 0.265E+04   0.149E+00 0.258E+00 0.142E+01   0.395E-03 -.194E-01 -.887E-02
   0.102E+02 0.206E+02 -.268E+04   -.101E+02 -.201E+02 0.267E+04   -.108E+00 -.500E+00 0.191E+01   -.629E-02 -.923E-02 0.114E-01
   0.502E+02 0.894E+00 -.143E+04   -.487E+02 -.147E+00 0.142E+04   -.142E+01 -.758E+00 0.138E+01   -.670E-01 -.303E-02 0.203E-01
   -.288E+01 0.127E+02 -.135E+04   0.266E+01 -.125E+02 0.135E+04   0.175E+00 -.269E+00 0.110E+01   -.169E-01 0.777E-02 0.383E-01
   0.820E+02 0.606E+02 0.270E+04   -.817E+02 -.606E+02 -.270E+04   -.306E+00 0.980E-01 -.261E+01   0.331E-01 -.423E-01 0.113E-01
   0.523E+02 -.333E+02 0.159E+04   -.529E+02 0.332E+02 -.160E+04   0.636E+00 0.134E+00 0.143E+01   -.405E-01 0.216E-01 0.876E-01
   -.145E+02 -.139E+02 -.137E+04   0.145E+02 0.136E+02 0.137E+04   -.184E-01 0.348E+00 0.220E+01   -.162E-01 -.372E-01 0.172E-01
   -.788E+02 0.858E+02 0.283E+04   0.796E+02 -.845E+02 -.283E+04   -.645E+00 -.135E+01 -.295E+01   -.157E-01 -.106E-01 0.123E-01
   -.147E+02 0.274E+02 0.149E+04   0.144E+02 -.273E+02 -.149E+04   0.303E+00 -.873E-01 -.337E+00   -.211E-01 0.693E-02 0.532E-01
   0.134E+02 0.394E+01 -.269E+04   -.138E+02 -.389E+01 0.268E+04   0.440E+00 -.675E-01 0.194E+01   -.359E-01 0.274E-01 -.955E-02
   0.119E+02 -.780E+02 0.585E+01   -.115E+02 0.773E+02 -.645E+01   -.406E+00 0.654E+00 0.568E+00   -.130E-01 0.732E-02 0.197E-01
   -.315E+02 0.993E+01 -.273E+04   0.308E+02 -.101E+02 0.273E+04   0.740E+00 0.201E+00 0.187E+01   -.301E-02 0.175E-01 0.217E-01
   0.206E+02 0.300E+02 0.972E+02   -.213E+02 -.308E+02 -.973E+02   0.789E+00 0.736E+00 0.137E+00   0.305E-01 0.902E-02 0.383E-01
   -.810E+02 0.241E+02 -.136E+04   0.801E+02 -.239E+02 0.135E+04   0.871E+00 -.225E+00 0.229E+01   0.568E-01 0.120E-01 0.250E-01
   0.463E+02 -.141E+02 -.138E+04   -.453E+02 0.147E+02 0.138E+04   -.109E+01 -.620E+00 0.138E+01   -.231E-01 0.308E-02 0.469E-01
   0.415E+02 -.784E+02 0.159E+04   -.401E+02 0.784E+02 -.159E+04   -.139E+01 -.205E-01 0.135E+01   0.191E-01 -.668E-03 0.210E-01
   0.411E+02 -.298E+02 0.267E+00   -.414E+02 0.297E+02 -.861E+00   0.393E+00 0.345E-01 0.618E+00   -.462E-02 0.175E-01 0.485E-01
   -.497E+02 -.419E+01 0.534E+01   0.502E+02 0.544E+01 -.604E+01   -.422E+00 -.133E+01 0.695E+00   0.167E-02 0.354E-02 -.177E-01
   0.523E+02 -.447E+01 0.248E+02   -.515E+02 0.564E+01 -.245E+02   -.923E+00 -.115E+01 -.212E+00   -.344E-01 0.114E-01 0.307E-01
   -.300E+02 -.616E+02 0.873E+02   0.290E+02 0.599E+02 -.888E+02   0.104E+01 0.170E+01 0.155E+01   -.170E-02 0.325E-01 0.302E-01
   0.137E+02 0.760E+02 0.138E+03   -.141E+02 -.751E+02 -.140E+03   0.450E+00 -.821E+00 0.162E+01   0.353E-01 0.352E-02 0.306E-01
   0.151E+02 0.738E+02 -.135E+04   -.146E+02 -.732E+02 0.135E+04   -.428E+00 -.462E+00 0.142E+01   0.309E-01 -.654E-01 0.142E-01
   -.108E+03 0.406E+01 0.259E+02   0.107E+03 -.411E+01 -.272E+02   0.926E+00 -.715E-02 0.134E+01   0.251E-01 -.288E-01 0.234E-02
   -.863E+00 0.745E+02 0.220E+04   0.204E+01 -.740E+02 -.220E+04   -.122E+01 -.472E+00 -.366E+01   -.418E-02 0.529E-02 0.982E-02
   -.189E+02 -.163E+02 0.222E+04   0.173E+02 0.145E+02 -.222E+04   0.175E+01 0.198E+01 -.304E+01   -.117E-01 0.182E-01 0.197E-01
   0.122E+03 0.273E+02 0.225E+04   -.120E+03 -.260E+02 -.224E+04   -.203E+01 -.135E+01 -.397E+01   -.294E-01 0.309E-01 0.130E-01
   0.421E+02 0.107E+03 0.112E+04   -.416E+02 -.106E+03 -.112E+04   -.579E+00 -.241E+00 -.642E+00   0.218E-01 -.768E-02 0.197E-01
   0.970E+01 -.404E+02 0.114E+04   -.951E+01 0.402E+02 -.114E+04   -.233E+00 0.164E+00 -.543E+00   -.387E-02 -.958E-02 0.712E-02
   -.212E+03 0.630E+01 0.225E+04   0.209E+03 -.654E+01 -.224E+04   0.268E+01 0.191E+00 -.347E+01   -.182E-01 0.232E-03 0.621E-02
   -.619E+02 0.691E+02 0.113E+04   0.617E+02 -.680E+02 -.113E+04   0.344E+00 -.106E+01 -.677E+00   -.110E-01 -.219E-01 0.283E-01
   -.549E+02 -.844E+01 0.339E+02   0.542E+02 0.842E+01 -.334E+02   0.588E+00 -.199E-01 -.683E+00   0.261E-01 -.479E-02 0.258E-01
   0.247E+02 0.844E+01 -.113E+04   -.246E+02 -.868E+01 0.113E+04   0.759E-02 0.142E+00 -.196E+00   -.358E-01 0.307E-01 0.295E-01
   -.288E+02 -.104E+03 0.220E+04   0.281E+02 0.102E+03 -.220E+04   0.686E+00 0.260E+01 -.314E+01   -.964E-02 -.338E-01 0.112E-01
   0.105E+03 -.140E+03 0.252E+04   -.104E+03 0.139E+03 -.252E+04   -.127E+01 0.106E+01 -.308E+01   0.402E-02 0.333E-02 0.145E-01
   0.201E+03 0.809E+02 0.252E+04   -.200E+03 -.796E+02 -.252E+04   -.115E+01 -.137E+01 -.301E+01   0.109E-01 -.475E-02 0.178E-01
   -.503E+02 -.587E+02 0.131E+04   0.501E+02 0.581E+02 -.131E+04   0.220E+00 0.616E+00 -.540E+00   0.105E-01 0.355E-02 -.905E-02
   -.996E+02 -.128E+01 0.412E+02   0.994E+02 0.107E+01 -.414E+02   0.244E+00 0.258E+00 0.921E-01   0.273E-01 -.104E-01 0.168E-01
   -.173E+01 -.460E+02 0.122E+04   0.193E+01 0.454E+02 -.122E+04   -.223E+00 0.754E+00 -.429E+00   -.307E-02 0.837E-02 0.345E-02
   0.565E+02 0.108E+01 -.125E+04   -.563E+02 -.105E+01 0.125E+04   -.270E+00 -.291E-01 0.356E+00   -.235E-01 0.445E-02 0.296E-01
   0.711E+02 0.478E+02 0.255E+04   -.704E+02 -.459E+02 -.254E+04   -.722E+00 -.188E+01 -.409E+01   0.119E-01 -.898E-02 0.916E-02
   -.572E+01 -.354E+02 0.127E+04   0.591E+01 0.357E+02 -.127E+04   -.218E+00 -.384E+00 -.388E+00   -.182E-01 -.104E-01 -.173E-01
   0.281E+02 -.461E+02 0.258E+02   -.275E+02 0.456E+02 -.254E+02   -.621E+00 0.603E+00 -.369E+00   -.276E-01 0.809E-02 0.233E-01
   0.798E+02 0.128E+02 0.316E+04   -.797E+02 -.122E+02 -.316E+04   -.163E+00 -.614E+00 -.437E+01   0.777E-01 -.394E-03 0.130E-01
   0.661E+02 0.767E+02 0.155E+04   -.666E+02 -.762E+02 -.155E+04   0.475E+00 -.544E+00 0.237E+00   0.185E-03 -.340E-01 0.797E-01
   0.938E+02 -.728E+02 0.147E+04   -.939E+02 0.727E+02 -.147E+04   0.107E+00 0.136E+00 -.492E+00   -.117E-01 0.324E-01 0.717E-01
   -.454E+02 -.371E+02 -.151E+04   0.449E+02 0.362E+02 0.151E+04   0.582E+00 0.102E+01 0.102E+01   -.320E-02 0.267E-01 0.583E-01
   0.159E+02 0.140E+03 0.310E+04   -.158E+02 -.141E+03 -.310E+04   -.885E-01 0.254E+00 -.352E+01   -.368E-02 -.406E-02 0.178E-01
   -.382E+02 -.590E+02 0.312E+04   0.372E+02 0.596E+02 -.312E+04   0.100E+01 -.513E+00 -.473E+01   -.803E-03 -.224E-01 0.350E-02
   0.122E+03 -.504E+02 0.278E+02   -.122E+03 0.496E+02 -.272E+02   -.389E-01 0.782E+00 -.701E+00   -.215E-01 0.147E-01 0.650E-01
   0.389E+02 0.113E+03 0.157E+04   -.387E+02 -.112E+03 -.157E+04   -.259E+00 -.680E+00 -.127E+01   0.116E-01 0.105E-01 0.562E-01
   -.141E+02 0.422E+02 -.204E+02   0.148E+02 -.425E+02 0.204E+02   -.610E+00 0.437E+00 -.942E-02   -.168E-01 -.442E-01 -.218E-01
   0.507E+02 0.733E+02 -.352E+02   -.503E+02 -.727E+02 0.352E+02   -.488E+00 -.636E+00 -.632E-01   -.823E-02 -.589E-02 0.504E-01
   -.149E+03 -.602E+01 0.134E+04   0.148E+03 0.592E+01 -.134E+04   0.757E+00 0.124E+00 -.930E+00   -.491E-02 0.985E-02 0.408E-01
   -.216E+02 -.111E+02 0.146E+04   0.220E+02 0.110E+02 -.146E+04   -.483E+00 0.259E+00 -.767E+00   -.156E-01 -.117E-01 0.452E-01
   -.204E+03 -.115E+03 0.285E+04   0.204E+03 0.114E+03 -.285E+04   0.534E+00 0.134E+01 -.257E+01   -.270E-01 0.242E-01 0.629E-02
   -.195E+02 -.126E+03 0.282E+04   0.176E+02 0.126E+03 -.282E+04   0.197E+01 0.231E+00 -.167E+01   0.388E-01 0.461E-01 0.160E-01
   0.625E+02 -.392E+02 0.140E+04   -.617E+02 0.390E+02 -.140E+04   -.836E+00 0.306E+00 -.572E+00   0.516E-01 0.127E-01 0.771E-01
   -.545E+02 0.187E+02 -.140E+04   0.542E+02 -.185E+02 0.140E+04   0.378E+00 -.234E+00 -.576E-01   0.882E-02 -.152E-01 0.200E-01
   -.597E+02 0.504E+02 0.281E+04   0.601E+02 -.498E+02 -.281E+04   -.296E+00 -.635E+00 -.130E+01   -.315E-01 0.686E-02 0.124E-01
   -.131E+02 0.596E+02 0.148E+02   0.134E+02 -.593E+02 -.145E+02   -.316E+00 -.374E+00 -.284E+00   -.994E-02 -.249E-01 0.309E-01
   0.415E+02 0.623E+01 0.808E+01   -.411E+02 -.595E+01 -.797E+01   -.341E+00 -.340E+00 -.287E+00   -.290E-01 -.738E-02 0.113E-01
   0.304E+01 0.275E+01 -.312E+03   -.320E+01 -.288E+01 0.313E+03   0.127E+00 0.152E+00 -.126E+01   -.214E-04 -.151E-03 -.157E-02
 -----------------------------------------------------------------------------------------------
   -.893E+00 0.350E+00 0.244E+01   0.862E-13 -.114E-12 0.114E-10   0.895E+00 -.351E+00 -.427E+01   -.190E-01 0.253E-01 0.183E+01
 
 
 POSITION                                       TOTAL-FORCE (eV/Angst)
 -----------------------------------------------------------------------------------
     13.58566      8.45888      6.92000        -0.001084     -0.012423      0.011395
      5.27878      8.45486      6.93879        -0.001250     -0.000668     -0.016827
      3.86394      5.98189      6.87560         0.006567      0.020753      0.015546
      2.38868      3.59820      7.01837         0.002963     -0.010113      0.000556
      3.84548      1.03031      7.00962         0.014731      0.014044      0.014308
      5.27754      3.56742      6.98200         0.006281      0.000629      0.013313
     13.51950      6.69208      2.75694        -0.024007     -0.021196      0.009058
     15.06161      9.24226      9.16207        -0.003185      0.009378     -0.010502
      3.84533      4.44402      9.23291         0.001353     -0.005412     -0.009763
      6.70518      9.17049      9.20609         0.006855     -0.004657      0.007902
     12.27988      4.39805      9.26004         0.004756      0.000383     -0.008566
      9.50472      9.18360      9.20398         0.016599      0.002796     -0.004330
     10.84353      1.99836      9.20031        -0.019971     -0.006429     -0.042902
      2.53063      1.98408      9.29287         0.010904      0.011980     -0.020835
     12.26329      9.20662      9.19063        -0.002447     -0.002521      0.006322
     13.69224      6.84368      9.22677         0.010680      0.001839      0.010583
      5.28871      1.90833      9.24128        -0.012002     -0.009883     -0.016259
      8.14537      6.83309      9.19027        -0.008241      0.015453     -0.011152
      9.54736      4.43317      9.22775         0.006101      0.007977     -0.013653
      5.24754      6.80775      9.20846        -0.001944     -0.000023     -0.007298
      8.08694      1.99314      9.17975         0.028638      0.000832     -0.000437
      8.18737      3.65341      6.98907        -0.002226      0.013880      0.001870
      6.65130      1.18334      6.96218        -0.019531     -0.002525     -0.016824
      6.78185      1.16816      1.10976        -0.012521      0.011704      0.001940
      3.74327      4.26289      2.71491         0.018067      0.004545      0.015386
      1.07657      1.11321      6.96302        -0.009936     -0.009704      0.017569
      1.01575      1.28649      0.81183         0.008159     -0.004076      0.024639
      6.67142      9.31568      2.85544         0.000617      0.023253     -0.026018
      6.65980      4.40105      9.22358        -0.014603      0.015705     -0.000753
      8.14285      5.24496      4.86976        -0.011785      0.007073     -0.012762
     10.86150      6.81206      9.24982         0.008076     -0.011945      0.009868
     14.99686      7.68362      4.79411        -0.001267      0.010568     -0.046303
     12.24472      6.04878      6.99838        -0.009617      0.015377     -0.015393
      6.72848      6.03479      6.98957         0.000750     -0.024605      0.028684
      8.20780      6.89173      2.69128        -0.005031     -0.013957     -0.013464
      3.77766      2.69345      4.90572        -0.032696     -0.006709      0.018498
     10.86552      5.33036      4.88657        -0.008439     -0.010745     -0.036421
      6.80891      7.69639      4.91949        -0.013083      0.025809      0.060273
      5.20720      0.16029      4.85410         0.012088      0.001159     -0.010330
      7.96508      0.45571      4.72390         0.022006      0.001869     -0.042852
      9.48497      1.18602      6.89685         0.025280     -0.014972      0.019209
     12.19222      2.77766      4.87496         0.011521     -0.026221      0.032250
     13.78001      8.57392      1.07376        -0.003245     -0.007128     -0.011498
      5.17612      8.26819      1.02395         0.019580      0.004243     -0.005335
      4.07688      6.12594      0.96722         0.015622      0.007905      0.015494
      8.23477      2.19285      2.91186        -0.001553      0.000163      0.002914
      9.46232      9.17873      2.88867        -0.010885      0.007960     -0.005419
     13.23829      3.61532      0.98546         0.006568     -0.010773      0.002962
     10.87798      2.06279      2.87872         0.005014     -0.017998      0.005054
     13.60649      5.17210      4.92826         0.001422     -0.009650     -0.007965
      9.49414      6.01574      7.10156         0.006989     -0.004097      0.005575
      3.91652      1.06390      1.10530         0.015738      0.003284      0.034915
      9.69052      5.79723      1.02825        -0.016364     -0.003663     -0.002678
      5.55996      3.72993      1.09992        -0.008843     -0.039766     -0.009136
     12.22782      8.97667      2.86865        -0.014620     -0.007132      0.016799
     12.22062      7.58099      4.89646         0.000409      0.004723      0.005038
      9.50033      4.35926      2.89266        -0.004627      0.009563      0.000953
      8.10640      8.43499      7.03536         0.003426     -0.021138     -0.013518
      8.20297      8.78072      0.90411         0.007945      0.012861     -0.008723
     10.87946      6.90186      2.86164        -0.025982     -0.007717      0.014069
      2.55562      0.21789      4.96708        -0.010670      0.029610      0.055378
      8.12929      3.65853      0.88294        -0.002349      0.007852     -0.005450
      5.33633      2.04607      3.00455         0.018069     -0.009356     -0.006000
      5.35867      6.70303      3.02467         0.009397      0.008447     -0.006387
     10.82212      8.33818      7.00952         0.001342     -0.005492     -0.006410
      9.50522      1.22179      0.88788         0.005360      0.006404     -0.009634
     10.84088      8.41789      0.89812        -0.021382      0.015774     -0.007302
      5.29878      5.08233      4.87221         0.020251     -0.007602     -0.011015
     15.21969      9.46320      2.91158         0.022639      0.003181      0.019432
      9.54798      2.83243      4.93973         0.007753     -0.009336     -0.015077
      6.74099      2.86414      4.91726         0.008471      0.011968      0.009537
     12.12718      4.37157      2.88927         0.006895     -0.011714      0.010103
      2.50652      1.86558      2.87455        -0.013298      0.009602     -0.018225
     12.02738      5.81407      0.92547        -0.016814     -0.007061      0.009380
      6.52756      5.95530      1.01982        -0.005504     -0.037256     -0.004285
      6.84854      4.37406      2.90086        -0.017430     -0.014458      0.000548
     10.85987      3.68493      7.03570         0.000513      0.013947     -0.012500
     10.75754      3.55271      0.95995         0.000357      0.004957     -0.011222
     10.94499      0.41654      4.90182         0.022207      0.013704      0.048366
      9.50574      7.61774      4.99769        -0.015942      0.013879      0.001155
      1.06741      1.16092     10.01935        -0.024587      0.023090     -0.015416
 -----------------------------------------------------------------------------------
    total drift:                               -0.016829      0.024692     -0.004043


--------------------------------------------------------------------------------------------------------



  FREE ENERGIE OF THE ION-ELECTRON SYSTEM (eV)
  ---------------------------------------------------
  free  energy   TOTEN  =      -507.87014075 eV

  energy  without entropy=     -507.87814122  energy(sigma->0) =     -507.87280757
 
 d Force = 0.5255232E-04[-0.410E-04, 0.146E-03]  d Energy = 0.8934922E-04-0.368E-04
 d Force = 0.1325640E+02[ 0.133E+02, 0.133E+02]  d Ewald  = 0.1325640E+02 0.162E-05


--------------------------------------------------------------------------------------------------------


    POTLOK:  cpu time    0.4918: real time    0.4939


--------------------------------------------------------------------------------------------------------




--------------------------------------------------------------------------------------------------------


  
 reached required accuracy - stopping structural energy minimisation
     LOOP+:  cpu time  505.4355: real time  507.4059
    4ORBIT:  cpu time    0.0000: real time    0.0000

 total amount of memory used by VASP MPI-rank0   252739. kBytes
=======================================================================

   base      :      30000. kBytes
   nonlr-proj:      36150. kBytes
   fftplans  :      18297. kBytes
   grid      :      55120. kBytes
   one-center:        653. kBytes
   wavefun   :     112519. kBytes
 
  
  
 General timing and accounting informations for this job:
 ========================================================
  
                  Total CPU time used (sec):    16633.279
                            User time (sec):    16159.553
                          System time (sec):      473.727
                         Elapsed time (sec):    16724.565
  
                   Maximum memory used (kb):      413736.
                   Average memory used (kb):           0.
  
                          Minor page faults:     19069872
                          Major page faults:          387
                 Voluntary context switches:        10302
