 vasp.5.4.4.18Apr17-6-g9f103f2a35 (build Nov 30 2020 22:55:02) complex          
  
 executed on             LinuxIFC date 2021.11.25  12:44:57
 running on   40 total cores
 distrk:  each k-point on   40 cores,    1 groups
 distr:  one band on NCORES_PER_BAND=   1 cores,   40 groups


--------------------------------------------------------------------------------------------------------


 INCAR:
 POTCAR:    PAW_PBE Pt 04Feb2005                  
 POTCAR:    PAW_PBE H 15Jun2001                   

 ----------------------------------------------------------------------------- 
|                                                                             |
|           W    W    AA    RRRRR   N    N  II  N    N   GGGG   !!!           |
|           W    W   A  A   R    R  NN   N  II  NN   N  G    G  !!!           |
|           W    W  A    A  R    R  N N  N  II  N N  N  G       !!!           |
|           W WW W  AAAAAA  RRRRR   N  N N  II  N  N N  G  GGG   !            |
|           WW  WW  A    A  R   R   N   NN  II  N   NN  G    G                |
|           W    W  A    A  R    R  N    N  II  N    N   GGGG   !!!           |
|                                                                             |
|      For optimal performance we recommend to set                            |
|        NCORE= 4 - approx SQRT( number of cores)                             |
|      NCORE specifies how many cores store one orbital (NPAR=cpu/NCORE).     |
|      This setting can  greatly improve the performance of VASP for DFT.     |
|      The default,   NCORE=1            might be grossly inefficient         |
|      on modern multi-core architectures or massively parallel machines.     |
|      Do your own testing !!!!                                               |
|      Unfortunately you need to use the default for GW and RPA calculations. |
|      (for HF NCORE is supported but not extensively tested yet)             |
|                                                                             |
 ----------------------------------------------------------------------------- 

 POTCAR:    PAW_PBE Pt 04Feb2005                  
   VRHFIN =Pt: s1d9                                                             
   LEXCH  = PE                                                                  
   EATOM  =   729.1176 eV,   53.5886 Ry                                         
                                                                                
   TITEL  = PAW_PBE Pt 04Feb2005                                                
   LULTRA =        F    use ultrasoft PP ?                                      
   IUNSCR =        1    unscreen: 0-lin 1-nonlin 2-no                           
   RPACOR =    2.330    partial core radius                                     
   POMASS =  195.080; ZVAL   =   10.000    mass and valenz                      
   RCORE  =    2.600    outmost cutoff radius                                   
   RWIGS  =    2.750; RWIGS  =    1.455    wigner-seitz radius (au A)           
   ENMAX  =  230.283; ENMIN  =  172.712 eV                                      
   ICORE  =        3    local potential                                         
   LCOR   =        T    correct aug charges                                     
   LPAW   =        T    paw PP                                                  
   EAUG   =  358.966                                                            
   DEXC   =    0.000                                                            
   RMAX   =    2.658    core radius for proj-oper                               
   RAUG   =    1.300    factor for augmentation sphere                          
   RDEP   =    2.761    radius for radial grids                                 
   RDEPT  =    2.203    core radius for aug-charge                              
                                                                                
   Atomic configuration                                                         
   16 entries                                                                   
     n  l   j            E        occ.                                          
     1  0  0.50    -78401.1885   2.0000                                         
     2  0  0.50    -13770.7750   2.0000                                         
     2  1  1.50    -11931.0468   6.0000                                         
     3  0  0.50     -3234.7234   2.0000                                         
     3  1  1.50     -2699.2216   6.0000                                         
     3  2  2.50     -2119.5714  10.0000                                         
     4  0  0.50      -695.1528   2.0000                                         
     4  1  1.50      -519.6034   6.0000                                         
     4  2  2.50      -306.6786  10.0000                                         
     4  3  3.50       -70.1041  14.0000                                         
     5  0  0.50      -101.7747   2.0000                                         
     5  1  1.50       -55.9873   6.0000                                         
     5  2  2.50        -6.1423   9.0000                                         
     6  0  0.50        -5.6573   1.0000                                         
     6  1  1.50        -6.8029   0.0000                                         
     5  3  2.50        -1.3606   0.0000                                         
   Description                                                                  
     l       E           TYP  RCUT    TYP  RCUT                                 
     2     -6.1423404     23  2.500                                             
     2     -7.5029230     23  2.500                                             
     0     -5.6573207     23  2.500                                             
     0      0.7416693     23  2.500                                             
     1     -2.7211652     23  2.600                                             
     1     20.4087390     23  2.600                                             
     3     -1.3605826     23  2.500                                             
  local pseudopotential read in
  partial core-charges read in
  partial kinetic energy density read in
  atomic valenz-charges read in
  non local Contribution for L=           2  read in
    real space projection operators read in
  non local Contribution for L=           2  read in
    real space projection operators read in
  non local Contribution for L=           0  read in
    real space projection operators read in
  non local Contribution for L=           0  read in
    real space projection operators read in
  non local Contribution for L=           1  read in
    real space projection operators read in
  non local Contribution for L=           1  read in
    real space projection operators read in
    PAW grid and wavefunctions read in
 
   number of l-projection  operators is LMAX  =           6
   number of lm-projection operators is LMMAX =          18
 
 POTCAR:    PAW_PBE H 15Jun2001                   
   VRHFIN =H: ultrasoft test                                                    
   LEXCH  = PE                                                                  
   EATOM  =    12.4884 eV,    0.9179 Ry                                         
                                                                                
   TITEL  = PAW_PBE H 15Jun2001                                                 
   LULTRA =        F    use ultrasoft PP ?                                      
   IUNSCR =        0    unscreen: 0-lin 1-nonlin 2-no                           
   RPACOR =    0.000    partial core radius                                     
   POMASS =    1.000; ZVAL   =    1.000    mass and valenz                      
   RCORE  =    1.100    outmost cutoff radius                                   
   RWIGS  =    0.700; RWIGS  =    0.370    wigner-seitz radius (au A)           
   ENMAX  =  250.000; ENMIN  =  200.000 eV                                      
   RCLOC  =    0.701    cutoff for local pot                                    
   LCOR   =        T    correct aug charges                                     
   LPAW   =        T    paw PP                                                  
   EAUG   =  400.000                                                            
   RMAX   =    1.123    core radius for proj-oper                               
   RAUG   =    1.200    factor for augmentation sphere                          
   RDEP   =    1.112    radius for radial grids                                 
   RDEPT  =    0.926    core radius for aug-charge                              
                                                                                
   Atomic configuration                                                         
    2 entries                                                                   
     n  l   j            E        occ.                                          
     1  0  0.50        -6.4927   1.0000                                         
     2  1  0.50        -3.4015   0.0000                                         
   Description                                                                  
     l       E           TYP  RCUT    TYP  RCUT                                 
     0     -6.4927494     23  1.100                                             
     0      6.8029130     23  1.100                                             
     1     -4.0817478     23  1.100                                             
  local pseudopotential read in
  atomic valenz-charges read in
  non local Contribution for L=           0  read in
    real space projection operators read in
  non local Contribution for L=           0  read in
    real space projection operators read in
  non local Contribution for L=           1  read in
    real space projection operators read in
    PAW grid and wavefunctions read in
 
   number of l-projection  operators is LMAX  =           3
   number of lm-projection operators is LMMAX =           5
 
 Optimization of the real space projectors (new method)

 maximal supplied QI-value         = 14.36
 optimisation between [QCUT,QGAM] = [ 11.92, 23.98] = [ 39.79,161.09] Ry 
 Optimized for a Real-space Cutoff    1.49 Angstroem

   l    n(q)    QCUT    max X(q) W(low)/X(q) W(high)/X(q)  e(spline) 
   2     10    11.920    66.195    0.79E-04    0.18E-03    0.24E-06
   2     10    11.920    64.643    0.81E-04    0.19E-03    0.24E-06
   0     11    11.920    95.520    0.28E-04    0.54E-04    0.18E-06
   0     11    11.920    63.403    0.27E-04    0.52E-04    0.17E-06
   1     10    11.920    19.961    0.18E-04    0.11E-03    0.23E-06
   1     10    11.920    13.289    0.25E-04    0.87E-04    0.19E-06
 Optimization of the real space projectors (new method)

 maximal supplied QI-value         = 34.20
 optimisation between [QCUT,QGAM] = [ 11.97, 23.94] = [ 40.13,160.53] Ry 
 Optimized for a Real-space Cutoff    1.18 Angstroem

   l    n(q)    QCUT    max X(q) W(low)/X(q) W(high)/X(q)  e(spline) 
   0      8    11.971    19.460    0.15E-03    0.31E-03    0.25E-06
   0      8    11.971    12.209    0.13E-03    0.29E-03    0.25E-06
   1      8    11.971     4.655    0.22E-03    0.24E-03    0.21E-06
  PAW_PBE Pt 04Feb2005                  :
 energy of atom  1       EATOM= -729.1176
 kinetic energy error for atom=    0.0021 (will be added to EATOM!!)
  PAW_PBE H 15Jun2001                   :
 energy of atom  2       EATOM=  -12.4884
 kinetic energy error for atom=    0.0008 (will be added to EATOM!!)
 
 
 POSCAR: Pt111                                   
  positions in cartesian coordinates
  No initial velocities read in
 exchange correlation table for  LEXCH =        8
   RHO(1)=    0.500       N(1)  =     2000
   RHO(2)=  100.500       N(2)  =     4000
 


--------------------------------------------------------------------------------------------------------


 ion  position               nearest neighbor table
   1  0.785  0.869  0.327-  71 2.74  20 2.74  55 2.74  27 2.79  35 2.79  34 2.79  43 2.81   3 2.81
                            73 2.81   2 2.81  56 2.81  72 2.81
   2  0.035  0.869  0.327-  55 2.73  65 2.74  68 2.74  39 2.77  29 2.78  27 2.80  23 2.80  72 2.81
                            47 2.81   1 2.81  57 2.81   3 2.81
   3  0.035  0.619  0.327-  55 2.74  12 2.74  76 2.74  39 2.77  28 2.79  35 2.80  15 2.80   9 2.80
                            56 2.80   1 2.81  57 2.81   2 2.81
   4  0.787  0.868  0.023-  21 2.78  78 2.78  19 2.79   6 2.80   5 2.80  58 2.80  75 2.80  74 2.80
                            44 2.81
   5  0.037  0.868  0.023-  49 2.78  70 2.79  78 2.79  48 2.80  74 2.80   4 2.80  24 2.81   6 2.81
                            59 2.81
   6  0.037  0.618  0.023-  46 2.78  70 2.79  21 2.79   4 2.80  10 2.80  58 2.80  18 2.80  59 2.81
                             5 2.81
   7  0.619  0.202  0.126-  71 2.73  79 2.74  80 2.75  42 2.78  44 2.79  74 2.79  53 2.80  11 2.80
                            78 2.80  19 2.80  22 2.81  61 2.81
   8  0.370  0.951  0.126-  69 2.74  66 2.74  26 2.74  16 2.78  24 2.79  75 2.79  25 2.80  19 2.80
                            60 2.81  49 2.81  54 2.81  53 2.81
   9  0.035  0.369  0.327-  12 2.74  77 2.74  62 2.74  28 2.78  30 2.79  33 2.79  13 2.80  47 2.80
                             3 2.80  15 2.81  56 2.81  63 2.81
  10  0.037  0.368  0.023-  54 2.77  46 2.79  45 2.79   6 2.80  58 2.80  64 2.81  18 2.81  48 2.81
                            16 2.81
  11  0.869  0.202  0.126-  77 2.74  65 2.74  79 2.75  64 2.78  74 2.78  48 2.79   7 2.80  78 2.80
                            22 2.81  45 2.81  54 2.81  49 2.81
  12  0.952  0.536  0.226-  21 2.73   9 2.74   3 2.74  45 2.74  56 2.74  46 2.74  77 2.81  62 2.81
                            20 2.81  55 2.81  67 2.81  76 2.81
  13  0.284  0.120  0.327-  62 2.74  26 2.74  69 2.74  31 2.78  36 2.78  33 2.79   9 2.80  47 2.80
                            73 2.81  43 2.81  15 2.81  23 2.81
  14  0.534  0.619  0.328-  51 2.74  66 2.75  67 2.76  52 2.79  41 2.80  57 2.80  63 2.80  23 2.80
                            56 2.81  38 2.81  73 2.81  37 2.82
  15  0.285  0.369  0.327-  76 2.74  80 2.74  62 2.75  50 2.77  36 2.79  28 2.79  41 2.80   3 2.80
                            57 2.80  43 2.80   9 2.81  13 2.81
  16  0.287  0.118  0.023-   8 2.78  54 2.78  53 2.79  75 2.80  44 2.80  18 2.81  24 2.81  48 2.81
                            10 2.81
  17  0.537  0.618  0.023-  22 2.78  25 2.79  60 2.79  24 2.80  59 2.80  64 2.80  42 2.81  58 2.81
                            75 2.81
  18  0.287  0.368  0.023-  53 2.78  61 2.79  46 2.79  59 2.80   6 2.80  42 2.81  10 2.81  16 2.81
                            44 2.81
  19  0.619  0.952  0.126-  20 2.74  71 2.74  69 2.74  44 2.78  75 2.78   4 2.79   8 2.80  53 2.80
                             7 2.80  25 2.81  21 2.81  78 2.81
  20  0.702  0.785  0.227-  56 2.74  25 2.74  19 2.74  73 2.74   1 2.74  21 2.74  67 2.81  66 2.81
                            12 2.81  69 2.81  55 2.81  71 2.81
  21  0.869  0.702  0.126-  12 2.73  55 2.74  20 2.74   4 2.78  58 2.79   6 2.79  46 2.80  45 2.80
                            70 2.80  19 2.81  25 2.81  78 2.81
  22  0.619  0.452  0.126-  79 2.73  67 2.74  51 2.75  17 2.78  42 2.78  64 2.80  61 2.80  60 2.80
                            11 2.81  45 2.81   7 2.81  25 2.81
  23  0.285  0.869  0.327-  68 2.74  66 2.74  26 2.75  37 2.77  31 2.79  29 2.79  73 2.80   2 2.80
                            14 2.80  57 2.80  47 2.81  13 2.81
  24  0.287  0.868  0.023-   8 2.79  60 2.79  49 2.79  17 2.80  59 2.80  48 2.81   5 2.81  16 2.81
                            75 2.81
  25  0.619  0.702  0.126-  20 2.74  67 2.74  66 2.74  75 2.78  17 2.79  58 2.79   8 2.80  45 2.80
                            19 2.81  21 2.81  60 2.81  22 2.81
  26  0.202  0.036  0.226-  49 2.73  13 2.74   8 2.74  54 2.74  47 2.74  23 2.75  77 2.80  69 2.80
                            62 2.80  65 2.81  66 2.81  68 2.81
  27  0.868  0.953  0.430-  39 2.77  40 2.78   1 2.79  72 2.79   2 2.80  29 2.80  32 2.80  34 2.81
                            35 2.81
  28  0.116  0.453  0.430-  50 2.77  30 2.78   9 2.78   3 2.79  15 2.79  33 2.80  35 2.80  39 2.81
                            36 2.82
  29  0.116  0.954  0.430-  37 2.77  32 2.78  47 2.78   2 2.78  23 2.79  27 2.80  33 2.80  39 2.81
                            31 2.82
  30  0.869  0.453  0.430-  38 2.77  28 2.78  56 2.79   9 2.79  63 2.79  33 2.80  35 2.80  52 2.81
                            32 2.82
  31  0.367  0.954  0.430-  37 2.77  36 2.78  13 2.78  23 2.79  73 2.79  33 2.80  34 2.80  52 2.81
                            29 2.82
  32  0.869  0.202  0.430-  38 2.77  29 2.78  72 2.79  47 2.79  63 2.79  33 2.80  27 2.80  40 2.81
                            30 2.82
  33  0.117  0.203  0.430-   9 2.79  47 2.79  13 2.79  30 2.80  31 2.80  36 2.80  32 2.80  28 2.80
                            29 2.80
  34  0.618  0.953  0.430-  40 2.77  52 2.78   1 2.79  73 2.79  43 2.79  36 2.80  35 2.80  31 2.80
                            27 2.81
  35  0.867  0.703  0.430-  52 2.77  39 2.77   1 2.79  56 2.79   3 2.80  30 2.80  28 2.80  34 2.80
                            27 2.81
  36  0.368  0.202  0.430-  50 2.77  31 2.78  13 2.78  15 2.79  43 2.79  33 2.80  34 2.80  40 2.81
                            28 2.82
  37  0.364  0.709  0.431-  81 1.86  31 2.77  29 2.77  23 2.77  57 2.81  14 2.82  52 2.84  39 2.84
                            50 2.91  38 2.91
  38  0.623  0.450  0.431-  81 1.86  32 2.77  30 2.77  63 2.78  41 2.81  14 2.81  40 2.84  52 2.84
                            50 2.91  37 2.91
  39  0.114  0.705  0.430-   3 2.77  27 2.77  35 2.77   2 2.77  57 2.79  28 2.81  29 2.81  50 2.84
                            37 2.84
  40  0.619  0.199  0.430-  43 2.77  34 2.77  27 2.78  72 2.78  41 2.79  36 2.81  32 2.81  38 2.84
                            50 2.84
  41  0.534  0.370  0.328-  51 2.74  80 2.75  79 2.76  40 2.79  14 2.80  57 2.80  15 2.80  63 2.80
                            38 2.81  72 2.81  43 2.81  50 2.82
  42  0.537  0.368  0.023-   7 2.78  22 2.78  61 2.79  64 2.80  74 2.80  44 2.80  17 2.81  18 2.81
                            59 2.81
  43  0.534  0.119  0.327-  69 2.74  80 2.74  71 2.74  40 2.77  36 2.79  34 2.79  73 2.80  15 2.80
                            13 2.81   1 2.81  41 2.81  72 2.81
  44  0.537  0.118  0.023-  19 2.78   7 2.79  53 2.79  16 2.80  75 2.80  74 2.80  42 2.80   4 2.81
                            18 2.81
  45  0.869  0.452  0.126-  77 2.73  12 2.74  67 2.75  58 2.78  64 2.78  10 2.79  25 2.80  21 2.80
                            22 2.81  11 2.81  54 2.81  46 2.81
  46  0.119  0.452  0.126-  62 2.73  76 2.74  12 2.74   6 2.78  10 2.79  18 2.79  70 2.80  21 2.80
                            61 2.81  53 2.81  54 2.81  45 2.81
  47  0.035  0.119  0.327-  65 2.74  77 2.74  26 2.74  29 2.78  32 2.79  33 2.79  13 2.80   9 2.80
                            72 2.81   2 2.81  23 2.81  63 2.81
  48  0.037  0.118  0.023-  54 2.78  49 2.78  11 2.79   5 2.80  74 2.80  24 2.81  64 2.81  10 2.81
                            16 2.81
  49  0.119  0.952  0.126-  26 2.73  68 2.74  65 2.74   5 2.78  48 2.78  24 2.79  70 2.80  78 2.80
                            60 2.81   8 2.81  54 2.81  11 2.81
  50  0.364  0.450  0.432-  81 1.86  28 2.77  36 2.77  15 2.77  57 2.81  41 2.82  39 2.84  40 2.84
                            38 2.91  37 2.91
  51  0.452  0.536  0.227-  60 2.74  61 2.74  41 2.74  14 2.74  22 2.75  57 2.75  76 2.80  68 2.80
                            67 2.80  66 2.80  80 2.80  79 2.80
  52  0.619  0.705  0.430-  73 2.77  35 2.77  34 2.78  56 2.78  14 2.79  31 2.81  30 2.81  37 2.84
                            38 2.84
  53  0.370  0.202  0.126-  69 2.74  80 2.74  62 2.74  18 2.78  16 2.79  44 2.79   7 2.80  19 2.80
                            61 2.81  46 2.81  54 2.81   8 2.81
  54  0.119  0.202  0.125-  26 2.74  62 2.74  77 2.75  10 2.77  48 2.78  16 2.78  11 2.81  49 2.81
                            46 2.81   8 2.81  53 2.81  45 2.81
  55  0.952  0.786  0.227-   2 2.73   3 2.74  78 2.74  21 2.74  70 2.74   1 2.74  12 2.81  68 2.81
                            65 2.81  76 2.81  71 2.81  20 2.81
  56  0.785  0.619  0.327-  20 2.74  67 2.74  12 2.74  52 2.78  30 2.79  35 2.79  63 2.80   3 2.80
                             9 2.81   1 2.81  14 2.81  73 2.81
  57  0.285  0.619  0.328-  51 2.75  68 2.75  76 2.75  39 2.79  14 2.80  41 2.80  23 2.80  15 2.80
                             2 2.81   3 2.81  37 2.81  50 2.81
  58  0.787  0.618  0.023-  45 2.78  21 2.79  25 2.79   4 2.80  75 2.80  10 2.80   6 2.80  64 2.81
                            17 2.81
  59  0.287  0.618  0.023-  61 2.78  60 2.79  70 2.79  18 2.80  24 2.80  17 2.80   6 2.81  42 2.81
                             5 2.81
  60  0.369  0.702  0.126-  66 2.74  68 2.74  51 2.74  59 2.79  24 2.79  17 2.79  61 2.80  22 2.80
                            49 2.81  70 2.81   8 2.81  25 2.81
  61  0.369  0.452  0.126-  80 2.73  76 2.74  51 2.74  59 2.78  18 2.79  42 2.79  22 2.80  60 2.80
                            53 2.81   7 2.81  46 2.81  70 2.81
  62  0.202  0.286  0.226-  46 2.73  13 2.74  53 2.74   9 2.74  54 2.74  15 2.75  69 2.80  26 2.80
                            77 2.81  12 2.81  80 2.81  76 2.81
  63  0.784  0.369  0.327-  67 2.74  79 2.74  77 2.75  38 2.78  32 2.79  30 2.79  56 2.80  72 2.80
                            14 2.80  41 2.80  47 2.81   9 2.81
  64  0.787  0.368  0.023-  11 2.78  45 2.78  22 2.80  42 2.80  17 2.80  10 2.81  58 2.81  74 2.81
                            48 2.81
  65  0.952  0.036  0.226-   2 2.74  78 2.74  11 2.74  47 2.74  72 2.74  49 2.74  77 2.80  26 2.81
                            71 2.81  55 2.81  79 2.81  68 2.81
  66  0.452  0.785  0.227-  60 2.74  73 2.74   8 2.74  23 2.74  25 2.74  14 2.75  68 2.80  51 2.80
                            67 2.80  20 2.81  26 2.81  69 2.81
  67  0.702  0.536  0.227-  22 2.74  56 2.74  63 2.74  25 2.74  45 2.75  14 2.76  79 2.80  51 2.80
                            66 2.80  20 2.81  77 2.81  12 2.81
  68  0.202  0.785  0.227-  23 2.74  49 2.74  70 2.74   2 2.74  60 2.74  57 2.75  66 2.80  51 2.80
                            76 2.80  55 2.81  26 2.81  65 2.81
  69  0.452  0.036  0.226-  43 2.74  73 2.74  53 2.74   8 2.74  13 2.74  19 2.74  26 2.80  62 2.80
                            20 2.81  71 2.81  66 2.81  80 2.81
  70  0.119  0.702  0.126-  76 2.74  68 2.74  55 2.74   5 2.79   6 2.79  59 2.79  49 2.80  46 2.80
                            78 2.80  21 2.80  60 2.81  61 2.81
  71  0.702  0.036  0.227-   7 2.73  72 2.74  43 2.74  19 2.74   1 2.74  78 2.74  65 2.81  79 2.81
                            69 2.81  80 2.81  55 2.81  20 2.81
  72  0.785  0.119  0.327-  71 2.74  79 2.74  65 2.74  40 2.78  32 2.79  27 2.79  63 2.80   2 2.81
                            47 2.81   1 2.81  41 2.81  43 2.81
  73  0.534  0.870  0.327-  69 2.74  66 2.74  20 2.74  52 2.77  34 2.79  31 2.79  43 2.80  23 2.80
                            13 2.81   1 2.81  14 2.81  56 2.81
  74  0.787  0.118  0.023-  11 2.78  78 2.78   7 2.79   5 2.80  44 2.80  42 2.80  48 2.80   4 2.80
                            64 2.81
  75  0.537  0.868  0.023-  19 2.78  25 2.78   8 2.79  16 2.80  44 2.80  58 2.80   4 2.80  24 2.81
                            17 2.81
  76  0.202  0.536  0.227-  15 2.74  70 2.74  46 2.74   3 2.74  61 2.74  57 2.75  80 2.80  51 2.80
                            68 2.80  62 2.81  55 2.81  12 2.81
  77  0.952  0.286  0.226-  45 2.73  11 2.74  47 2.74   9 2.74  54 2.75  63 2.75  65 2.80  26 2.80
                            12 2.81  62 2.81  79 2.81  67 2.81
  78  0.869  0.952  0.126-  65 2.74  55 2.74  71 2.74   4 2.78  74 2.78   5 2.79   7 2.80  70 2.80
                            49 2.80  11 2.80  19 2.81  21 2.81
  79  0.702  0.286  0.227-  22 2.73  72 2.74   7 2.74  63 2.74  11 2.75  41 2.76  67 2.80  51 2.80
                            80 2.80  71 2.81  77 2.81  65 2.81
  80  0.452  0.286  0.227-  61 2.73  43 2.74  53 2.74  15 2.74   7 2.75  41 2.75  76 2.80  51 2.80
                            79 2.80  62 2.81  71 2.81  69 2.81
  81  0.451  0.536  0.468-  38 1.86  37 1.86  50 1.86
 
  LATTYP: Found a hexagonal cell.
 ALAT       =    11.2227001190
 C/A-ratio  =     1.9603125600
  
  Lattice vectors:
  
 A1 = (   5.6113500595,  -9.7191434021,   0.0000000000)
 A2 = ( -11.2227001190,   0.0000000000,   0.0000000000)
 A3 = (   0.0000000000,   0.0000000000, -22.0000000000)


Analysis of symmetry for initial positions (statically):
=====================================================================
 Subroutine PRICEL returns:
 Original cell was already a primitive cell.
 

 Routine SETGRP: Setting up the symmetry group for a 
 hexagonal supercell.


 Subroutine GETGRP returns: Found  1 space group operations
 (whereof  1 operations were pure point group operations)
 out of a pool of 24 trial point group operations.


The static configuration has the point symmetry C_1 .


Analysis of symmetry for dynamics (positions and initial velocities):
=====================================================================
 Subroutine PRICEL returns:
 Original cell was already a primitive cell.
 

 Routine SETGRP: Setting up the symmetry group for a 
 hexagonal supercell.


 Subroutine GETGRP returns: Found  1 space group operations
 (whereof  1 operations were pure point group operations)
 out of a pool of 24 trial point group operations.


The dynamic configuration has the point symmetry C_1 .


Analysis of constrained symmetry for selective dynamics:
=====================================================================
 Subroutine PRICEL returns:
 Original cell was already a primitive cell.
 

 Routine SETGRP: Setting up the symmetry group for a 
 hexagonal supercell.


 Subroutine GETGRP returns: Found  1 space group operations
 (whereof  1 operations were pure point group operations)
 out of a pool of 24 trial point group operations.


The constrained configuration has the point symmetry C_1 .


Analysis of structural, dynamic, and magnetic symmetry:
=====================================================================
 Subroutine PRICEL returns:
 Original cell was already a primitive cell.
 

 Routine SETGRP: Setting up the symmetry group for a 
 hexagonal supercell.


 Subroutine GETGRP returns: Found  1 space group operations
 (whereof  1 operations were pure point group operations)
 out of a pool of 24 trial point group operations.


The magnetic configuration has the point symmetry C_1 .


 Subroutine INISYM returns: Found  1 space group operations
 (whereof  1 operations are pure point group operations),
 and found     1 'primitive' translations

 
 
 KPOINTS: mesh auto                               

Automatic generation of k-mesh.
Space group operators:
 irot       det(A)        alpha          n_x          n_y          n_z        tau_x        tau_y        tau_z
    1     1.000000     0.000000     1.000000     0.000000     0.000000     0.000000     0.000000     0.000000
 
 Subroutine IBZKPT returns following result:
 ===========================================
 
 Found      4 irreducible k-points:
 
 Following reciprocal coordinates:
            Coordinates               Weight
  0.000000  0.000000  0.000000      1.000000
  0.500000  0.000000  0.000000      1.000000
  0.000000  0.500000  0.000000      1.000000
  0.500000  0.500000  0.000000      1.000000
 
 Following cartesian coordinates:
            Coordinates               Weight
  0.000000  0.000000  0.000000      1.000000
  0.044553 -0.025722  0.000000      1.000000
  0.000000  0.051445  0.000000      1.000000
  0.044553  0.025722  0.000000      1.000000
 
 TETIRR: Found     12 inequivalent tetrahedra from       24
 
 Subroutine IBZKPT_HF returns following result:
 ==============================================
 
 Found      4 k-points in 1st BZ
 the following      4 k-points will be used (e.g. in the exchange kernel)
 Following reciprocal coordinates:   # in IRBZ
  0.000000  0.000000  0.000000    0.25000000   1 t-inv F
  0.500000  0.000000  0.000000    0.25000000   2 t-inv F
  0.000000  0.500000  0.000000    0.25000000   3 t-inv F
  0.500000  0.500000  0.000000    0.25000000   4 t-inv F


--------------------------------------------------------------------------------------------------------




 Dimension of arrays:
   k-points           NKPTS =      4   k-points in BZ     NKDIM =      4   number of bands    NBANDS=    560
   number of dos      NEDOS =    301   number of ions     NIONS =     81
   non local maximal  LDIM  =      6   non local SUM 2l+1 LMDIM =     18
   total plane-waves  NPLWV = ******
   max r-space proj   IRMAX =   7929   max aug-charges    IRDMAX=  34542
   dimension x,y,z NGX =    90 NGY =   90 NGZ =  168
   dimension x,y,z NGXF=   180 NGYF=  180 NGZF=  336
   support grid    NGXF=   180 NGYF=  180 NGZF=  336
   ions per type =              80   1
   NGX,Y,Z   is equivalent  to a cutoff of  13.33, 13.33, 12.70 a.u.
   NGXF,Y,Z  is equivalent  to a cutoff of  26.66, 26.66, 25.39 a.u.

 SYSTEM =  Pt111                                   
 POSCAR =  Pt111                                   

 Startparameter for this run:
   NWRITE =      2    write-flag & timer
   PREC   = accura    normal or accurate (medium, high low for compatibility)
   ISTART =      0    job   : 0-new  1-cont  2-samecut
   ICHARG =      2    charge: 1-file 2-atom 10-const
   ISPIN  =      2    spin polarized calculation?
   LNONCOLLINEAR =      F non collinear calculations
   LSORBIT =      F    spin-orbit coupling
   INIWAV =      1    electr: 0-lowe 1-rand  2-diag
   LASPH  =      F    aspherical Exc in radial PAW
   METAGGA=      F    non-selfconsistent MetaGGA calc.

 Electronic Relaxation 1
   ENCUT  =  550.0 eV  40.42 Ry    6.36 a.u.  21.46 21.46 42.07*2*pi/ulx,y,z
   ENINI  =  550.0     initial cutoff
   ENAUG  =  400.0 eV  augmentation charge cutoff
   NELM   =    200;   NELMIN=  2; NELMDL= -5     # of ELM steps 
   EDIFF  = 0.1E-04   stopping-criterion for ELM
   LREAL  =      T    real-space projection
   NLSPLINE    = F    spline interpolate recip. space projectors
   LCOMPAT=      F    compatible to vasp.4.4
   GGA_COMPAT  = T    GGA compatible to vasp.4.4-vasp.4.6
   LMAXPAW     = -100 max onsite density
   LMAXMIX     =    2 max onsite mixed and CHGCAR
   VOSKOWN=      0    Vosko Wilk Nusair interpolation
   ROPT   =   -0.00025  -0.00025
 Ionic relaxation
   EDIFFG = -.5E-01   stopping-criterion for IOM
   NSW    =   1009    number of steps for IOM
   NBLOCK =      1;   KBLOCK =   1009    inner block; outer block 
   IBRION =      5    ionic relax: 0-MD 1-quasi-New 2-CG
   NFREE  =      2    steps in history (QN), initial steepest desc. (CG)
   ISIF   =      2    stress and relaxation
   IWAVPR =     11    prediction:  0-non 1-charg 2-wave 3-comb
   ISYM   =      2    0-nonsym 1-usesym 2-fastsym
   LCORR  =      T    Harris-Foulkes like correction to forces

   POTIM  = 0.5000    time-step for ionic-motion
   TEIN   =    0.0    initial temperature
   TEBEG  =    0.0;   TEEND  =   0.0 temperature during run
   SMASS  =  -3.00    Nose mass-parameter (am)
   estimated Nose-frequenzy (Omega)   =  0.10E-29 period in steps =****** mass=  -0.288E-26a.u.
   SCALEE = 1.0000    scale energy and forces
   NPACO  =    256;   APACO  = 16.0  distance and # of slots for P.C.
   PSTRESS=    0.0 pullay stress

  Mass of Ions in am
   POMASS = 195.08  1.00
  Ionic Valenz
   ZVAL   =  10.00  1.00
  Atomic Wigner-Seitz radii
   RWIGS  =  -1.00 -1.00
  virtual crystal weights 
   VCA    =   1.00  1.00
   NELECT =     801.0000    total number of electrons
   NUPDOWN=      -1.0000    fix difference up-down

 DOS related values:
   EMIN   =  10.00;   EMAX   =-10.00  energy-range for DOS
   EFERMI =   0.00
   ISMEAR =    -5;   SIGMA  =   0.10  broadening in eV -4-tet -1-fermi 0-gaus

 Electronic relaxation 2 (details)
   IALGO  =     68    algorithm
   LDIAG  =      T    sub-space diagonalisation (order eigenvalues)
   LSUBROT=      F    optimize rotation matrix (better conditioning)
   TURBO    =      0    0=normal 1=particle mesh
   IRESTART =      0    0=no restart 2=restart with 2 vectors
   NREBOOT  =      0    no. of reboots
   NMIN     =      0    reboot dimension
   EREF     =   0.00    reference energy to select bands
   IMIX   =      4    mixing-type and parameters
     AMIX     =   0.40;   BMIX     =  1.00
     AMIX_MAG =   1.60;   BMIX_MAG =  1.00
     AMIN     =   0.10
     WC   =   100.;   INIMIX=   1;  MIXPRE=   1;  MAXMIX= -45

 Intra band minimization:
   WEIMIN = 0.0010     energy-eigenvalue tresh-hold
   EBREAK =  0.45E-08  absolut break condition
   DEPER  =   0.30     relativ break condition  

   TIME   =   0.40     timestep for ELM

  volume/ion in A,a.u.               =      29.63       199.92
  Fermi-wavevector in a.u.,A,eV,Ry     =   1.135629  2.146027 17.546785  1.289652
  Thomas-Fermi vector in A             =   2.272333
 
 Write flags
   LWAVE        =      F    write WAVECAR
   LDOWNSAMPLE  =      F    k-point downsampling of WAVECAR
   LCHARG       =      F    write CHGCAR
   LVTOT        =      F    write LOCPOT, total local potential
   LVHAR        =      F    write LOCPOT, Hartree potential only
   LELF         =      F    write electronic localiz. function (ELF)
   LORBIT       =      0    0 simple, 1 ext, 2 COOP (PROOUT), +10 PAW based schemes


 Dipole corrections
   LMONO  =      F    monopole corrections only (constant potential shift)
   LDIPOL =      F    correct potential (dipole corrections)
   IDIPOL =      0    1-x, 2-y, 3-z, 4-all directions 
   EPSILON=  1.0000000 bulk dielectric constant

 Exchange correlation treatment:
   GGA     =    --    GGA type
   LEXCH   =     8    internal setting for exchange type
   VOSKOWN=      0    Vosko Wilk Nusair interpolation
   LHFCALC =     F    Hartree Fock is set to
   LHFONE  =     F    Hartree Fock one center treatment
   AEXX    =    0.0000 exact exchange contribution

 Linear response parameters
   LEPSILON=     F    determine dielectric tensor
   LRPA    =     F    only Hartree local field effects (RPA)
   LNABLA  =     F    use nabla operator in PAW spheres
   LVEL    =     F    velocity operator in full k-point grid
   LINTERFAST=   F  fast interpolation
   KINTER  =     0    interpolate to denser k-point grid
   CSHIFT  =0.1000    complex shift for real part using Kramers Kronig
   OMEGAMAX=  -1.0    maximum frequency
   DEG_THRESHOLD= 0.2000000E-02 threshold for treating states as degnerate
   RTIME   =   -0.100 relaxation time in fs
  (WPLASMAI=    0.000 imaginary part of plasma frequency in eV, 0.658/RTIME)
   DFIELD  = 0.0000000 0.0000000 0.0000000 field for delta impulse in time
 
 Orbital magnetization related:
   ORBITALMAG=     F  switch on orbital magnetization
   LCHIMAG   =     F  perturbation theory with respect to B field
   DQ        =  0.001000  dq finite difference perturbation B field
   LLRAUG    =     F  two centre corrections for induced B field



--------------------------------------------------------------------------------------------------------


 finite differences
   using selective dynamics as specified on POSCAR
   WARNING: If single coordinates had been selected the selection of coordinates
            is made according to the corresponding   d i r e c t   coordinates!
            Don't support selection of single cartesian coordinates -- sorry ...
  !
 charge density and potential will be updated during run
 spin polarized calculation
 RMM-DIIS sequential band-by-band and
  variant of blocked Davidson during initial phase
 perform sub-space diagonalisation
    before iterative eigenvector-optimisation
 modified Broyden-mixing scheme, WC =      100.0
 initial mixing is a Kerker type mixing with AMIX =  0.4000 and BMIX =      1.0000
 Hartree-type preconditioning will be used
 using additional bands          159
 real space projection scheme for non local part
 use partial core corrections
 calculate Harris-corrections to forces 
   (improved forces if not selfconsistent)
 use gradient corrections 
 use of overlap-Matrix (Vanderbilt PP)
 Fermi weights with tetrahedron method with Bloechl corrections


--------------------------------------------------------------------------------------------------------


  energy-cutoff  :      550.00
  volume of cell :     2399.65
      direct lattice vectors                 reciprocal lattice vectors
    11.222700119  0.000000000  0.000000000     0.089105116 -0.051444863  0.000000000
     5.611350060  9.719143402  0.000000000     0.000000000  0.102889726  0.000000000
     0.000000000  0.000000000 22.000000000     0.000000000  0.000000000  0.045454545

  length of vectors
    11.222700119 11.222700119 22.000000000     0.102889726  0.102889726  0.045454545


 
 k-points in units of 2pi/SCALE and weight: mesh auto                               
   0.00000000  0.00000000  0.00000000       0.250
   0.04455256 -0.02572243  0.00000000       0.250
   0.00000000  0.05144486  0.00000000       0.250
   0.04455256  0.02572243  0.00000000       0.250
 
 k-points in reciprocal lattice and weights: mesh auto                               
   0.00000000  0.00000000  0.00000000       0.250
   0.50000000  0.00000000  0.00000000       0.250
   0.00000000  0.50000000  0.00000000       0.250
   0.50000000  0.50000000  0.00000000       0.250
 
 position of ions in fractional coordinates (direct lattice) 
   0.78465080  0.86928350  0.32706597
   0.03474760  0.86944109  0.32676846
   0.03469383  0.61903556  0.32683002
   0.78709045  0.86774010  0.02312041
   0.03664348  0.86815207  0.02299700
   0.03681366  0.61794608  0.02303567
   0.61938695  0.20167576  0.12618101
   0.36959949  0.95146821  0.12604964
   0.03492640  0.36903360  0.32672032
   0.03667898  0.36817193  0.02301070
   0.86903775  0.20189382  0.12598041
   0.95187826  0.53560522  0.22647642
   0.28435062  0.11951552  0.32670451
   0.53439286  0.61910442  0.32786695
   0.28475276  0.36938628  0.32714090
   0.28748810  0.11758738  0.02300985
   0.53676303  0.61780760  0.02307579
   0.28682623  0.36810036  0.02300944
   0.61926991  0.95180929  0.12614141
   0.70169174  0.78547102  0.22658298
   0.86929422  0.70180386  0.12617620
   0.61902474  0.45190431  0.12616121
   0.28472872  0.86915485  0.32708771
   0.28703219  0.86759734  0.02300031
   0.61921222  0.70188733  0.12612540
   0.20186218  0.03574599  0.22619810
   0.86751088  0.95285844  0.43017446
   0.11645137  0.45301730  0.43003551
   0.11621609  0.95392428  0.42993211
   0.86870503  0.45275780  0.42995847
   0.36712433  0.95412327  0.42997818
   0.86850620  0.20198377  0.42995057
   0.11746378  0.20301187  0.43007447
   0.61751888  0.95290324  0.43019065
   0.86713320  0.70305873  0.43025769
   0.36751487  0.20177077  0.42998882
   0.36436837  0.70901047  0.43144539
   0.62336216  0.44980370  0.43137920
   0.11354754  0.70468193  0.42976676
   0.61916692  0.19916266  0.42970585
   0.53437427  0.36973715  0.32786911
   0.53718160  0.36760432  0.02303389
   0.53447315  0.11929472  0.32676343
   0.53714438  0.11771607  0.02299136
   0.86896519  0.45209321  0.12606821
   0.11931945  0.45212167  0.12609900
   0.03485388  0.11947065  0.32673712
   0.03690038  0.11760785  0.02292731
   0.11932424  0.95154613  0.12606607
   0.36433451  0.45002523  0.43152591
   0.45185524  0.53568192  0.22698138
   0.61921806  0.70477304  0.42972848
   0.36959380  0.20192433  0.12606611
   0.11934040  0.20181201  0.12543859
   0.95207522  0.78555325  0.22658640
   0.78477891  0.61903158  0.32682826
   0.28496879  0.61915938  0.32790336
   0.78685015  0.61806335  0.02303022
   0.28690374  0.61782057  0.02305614
   0.36931258  0.70155837  0.12619535
   0.36949737  0.45191401  0.12616328
   0.20193216  0.28562902  0.22621874
   0.78442232  0.36946928  0.32708666
   0.78676516  0.36807204  0.02295502
   0.95186913  0.03580009  0.22644686
   0.45174709  0.78533966  0.22659096
   0.70150330  0.53558018  0.22657683
   0.20233052  0.78530519  0.22659611
   0.45176910  0.03569593  0.22645766
   0.11908677  0.70200622  0.12615827
   0.70179887  0.03585873  0.22658142
   0.78479412  0.11946433  0.32682201
   0.53436745  0.86952838  0.32685132
   0.78695165  0.11771271  0.02295143
   0.53714748  0.86795500  0.02297783
   0.20236292  0.53552277  0.22660659
   0.95198053  0.28560590  0.22619634
   0.86926528  0.95186950  0.12616081
   0.70161006  0.28605082  0.22655824
   0.45171893  0.28613249  0.22659711
   0.45107376  0.53642430  0.46784591
 
 position of ions in cartesian coordinates  (Angst):
  13.68375466  8.44869099  7.19545125
   5.26870024  8.45022262  7.18890609
   3.86298372  6.01649541  7.19026053
  13.70247354  8.43369050  0.50864893
   5.28274393  8.43769442  0.50593407
   3.88066040  6.00590653  0.50678471
   8.08286730  1.96011559  2.77598224
   9.48692538  9.24745595  2.77309209
   2.46274525  3.58669048  7.18784700
   2.47757879  3.57831581  0.50623550
  10.88584697  1.96223497  2.77156908
  13.68811262  5.20562393  4.98248133
   3.86182513  1.16158844  7.18749929
   9.47134241  6.01716465  7.21307280
   5.26845059  3.59011819  7.19709983
   3.88621665  1.14284860  0.50621670
   9.49066529  6.00456069  0.50766749
   5.28450476  3.57762014  0.50620760
  12.29081561  9.25077095  2.77511094
  12.28242875  7.63410543  4.98482560
  13.69389550  6.82093236  2.77587634
   9.48292223  4.39212275  2.77554669
   8.07255717  8.44744065  7.19592966
   8.08966856  8.43230300  0.50600690
  10.88776853  6.82174364  2.77475879
   2.46602199  0.34742036  4.97635816
  15.08263667  9.26096782  9.46383819
   3.84893742  4.40294007  9.46078119
   6.65706142  9.27132687  9.45850653
  12.28979858  4.40041801  9.45908633
   9.47404597  9.27326092  9.45952002
  10.88038622  1.96310922  9.45891246
   2.45743143  1.97310147  9.46163825
  12.27730291  9.26140326  9.46419421
  13.67668448  6.83312865  9.46566925
   5.25671556  1.96103907  9.45975403
   8.06770288  6.89097444  9.49179861
   9.51981261  4.37170668  9.49034230
   5.22852701  6.84890470  9.45486873
   8.06629614  1.93569049  9.45352875
   8.07184674  3.59352836  7.21312051
   8.09138452  3.57279912  0.50674559
   6.66763625  1.15944244  7.18879549
   6.68875641  1.14409934  0.50580997
  12.28898908  4.39395878  2.77350066
   3.87609940  4.39423539  2.77417808
   1.06154624  1.16115237  7.18821663
   1.07406072  1.14304757  0.50440083
   6.67859864  9.24821334  2.77345349
   6.61406611  4.37385977  9.49357013
   8.07693468  5.20636945  4.99359025
  10.90402688  6.84979022  9.45402658
   5.28090853  1.96253153  2.77345435
   2.47175937  1.96143982  2.75964902
  15.09286889  7.63490464  4.98490090
  12.28094121  6.01645669  7.19022170
   6.67243930  6.01769880  7.21387391
  12.29875312  6.00704634  0.50666476
   6.68664210  6.00468671  0.50723504
   8.08137391  6.81854642  2.77629765
   6.68260587  4.39221703  2.77559222
   3.86898849  2.77606943  4.97681235
  10.87655790  3.59092490  7.19590658
  10.89501058  3.57734498  0.50501036
  10.88342866  0.34794618  4.98183086
   9.47663791  7.63282879  4.98500107
  10.87808904  5.20538057  4.98469034
   6.67731715  7.63249380  4.98511451
   5.27037151  0.34693390  4.98206857
   5.27567778  6.82289913  2.77548185
   8.07729411  0.34851615  4.98479122
   9.47786528  1.16109098  7.19008419
  10.87627371  8.45107101  7.19072900
   9.49224953  1.14406667  0.50493154
  10.89864443  8.43577911  0.50551217
   5.27606412  5.20482261  4.98534497
  12.28642673  2.77584474  4.97631952
  15.09677654  9.25135616  2.77553785
   9.47909062  2.78016897  4.98428125
   6.67509563  2.78096273  4.98513653
   8.07233007  5.21358470 10.29261009
 


--------------------------------------------------------------------------------------------------------


 k-point  1 :   0.0000 0.0000 0.0000  plane waves:   70321
 k-point  2 :   0.5000 0.0000 0.0000  plane waves:   70264
 k-point  3 :   0.0000 0.5000 0.0000  plane waves:   70264
 k-point  4 :   0.5000 0.5000 0.0000  plane waves:   70264

 maximum and minimum number of plane-waves per node :     70321    70264

 maximum number of plane-waves:     70321
 maximum index in each direction: 
   IXMAX=   21   IYMAX=   21   IZMAX=   42
   IXMIN=  -21   IYMIN=  -21   IZMIN=  -42


 serial   3D FFT for wavefunctions
 parallel 3D FFT for charge:
    minimum data exchange during FFTs selected (reduces bandwidth)


 total amount of memory used by VASP MPI-rank0   418197. kBytes
=======================================================================

   base      :      30000. kBytes
   nonlr-proj:     107987. kBytes
   fftplans  :      15524. kBytes
   grid      :     133430. kBytes
   one-center:       2519. kBytes
   wavefun   :     128737. kBytes
 
     INWAV:  cpu time    0.0000: real time    0.0000
 Broyden mixing: mesh for mixing (old mesh)
   NGX = 43   NGY = 43   NGZ = 85
  (NGX  =180   NGY  =180   NGZ  =336)
  gives a total of 157165 points

 initial charge density was supplied:
 charge density of overlapping atoms calculated
 number of electron     801.0000000 magnetization      81.0000000
 keeping initial charge density in first step


--------------------------------------------------------------------------------------------------------


 Maximum index for non-local projection operator         7661
 Maximum index for augmentation-charges         1773 (set IRDMAX)


--------------------------------------------------------------------------------------------------------


 First call to EWALD:  gamma=   0.132
 Maximum number of real-space cells 4x 4x 2
 Maximum number of reciprocal cells 2x 2x 4

    FEWALD:  cpu time    0.0044: real time    0.0046


--------------------------------------- Iteration      1(   1)  ---------------------------------------


    POTLOK:  cpu time    0.5808: real time    0.5838
    SETDIJ:  cpu time    0.0410: real time    0.0414
     EDDAV:  cpu time   60.8981: real time   61.1345
 BZINTS: Fermi energy: 14.459638;801.000000 electrons
         Band energy:6004.853722;  BLOECHL correction:  0.000000
       DOS:  cpu time    0.0061: real time    0.0062
    --------------------------------------------
      LOOP:  cpu time   61.5261: real time   61.7658

 eigenvalue-minimisations  :  8960
 total energy-change (2. order) : 0.5364471E+04  (-0.3875219E+05)
 number of electron     801.0000000 magnetization      81.0000000
 augmentation part      801.0000000 magnetization      81.0000000

 Free energy of the ion-electron system (eV)
  ---------------------------------------------------
  alpha Z        PSCENC =      2539.23836485
  Ewald energy   TEWEN  =    178591.61265393
  -Hartree energ DENC   =   -242664.69807132
  -exchange      EXHF   =         0.00000000
  -V(xc)+E(xc)   XCENC  =       289.41645546
  PAW double counting   =     55685.49641431   -53423.17961727
  entropy T*S    EENTRO =         0.00000000
  eigenvalues    EBANDS =      6004.85372176
  atomic energy  EATOM  =     58341.73154849
  Solvation  Ediel_sol  =         0.00000000
  ---------------------------------------------------
  free energy    TOTEN  =      5364.47147022 eV

  energy without entropy =     5364.47147022  energy(sigma->0) =     5364.47147022


--------------------------------------------------------------------------------------------------------




--------------------------------------- Iteration      1(   2)  ---------------------------------------


     EDDAV:  cpu time   65.8250: real time   65.9873
 BZINTS: Fermi energy:  4.319267;801.000000 electrons
         Band energy: 410.861924;  BLOECHL correction: -0.280273
       DOS:  cpu time    0.0190: real time    0.0191
    --------------------------------------------
      LOOP:  cpu time   65.8440: real time   66.0064

 eigenvalue-minimisations  :  9920
 total energy-change (2. order) :-0.5593992E+04  (-0.5120703E+04)
 number of electron     801.0000000 magnetization      81.0000000
 augmentation part      801.0000000 magnetization      81.0000000

 Free energy of the ion-electron system (eV)
  ---------------------------------------------------
  alpha Z        PSCENC =      2539.23836485
  Ewald energy   TEWEN  =    178591.61265393
  -Hartree energ DENC   =   -242664.69807132
  -exchange      EXHF   =         0.00000000
  -V(xc)+E(xc)   XCENC  =       289.41645546
  PAW double counting   =     55685.49641431   -53423.17961727
  entropy T*S    EENTRO =         0.00000000
  eigenvalues    EBANDS =       410.86192352
  atomic energy  EATOM  =     58341.73154849
  Solvation  Ediel_sol  =         0.00000000
  ---------------------------------------------------
  free energy    TOTEN  =      -229.52032802 eV

  energy without entropy =     -229.52032802  energy(sigma->0) =     -229.52032802


--------------------------------------------------------------------------------------------------------




--------------------------------------- Iteration      1(   3)  ---------------------------------------


     EDDAV:  cpu time   67.4814: real time   67.6522
 BZINTS: Fermi energy:  3.766799;801.000000 electrons
         Band energy: 151.267896;  BLOECHL correction: -0.390078
       DOS:  cpu time    0.0197: real time    0.0197
    --------------------------------------------
      LOOP:  cpu time   67.5011: real time   67.6719

 eigenvalue-minimisations  : 10240
 total energy-change (2. order) :-0.2595940E+03  (-0.2455332E+03)
 number of electron     801.0000000 magnetization      81.0000000
 augmentation part      801.0000000 magnetization      81.0000000

 Free energy of the ion-electron system (eV)
  ---------------------------------------------------
  alpha Z        PSCENC =      2539.23836485
  Ewald energy   TEWEN  =    178591.61265393
  -Hartree energ DENC   =   -242664.69807132
  -exchange      EXHF   =         0.00000000
  -V(xc)+E(xc)   XCENC  =       289.41645546
  PAW double counting   =     55685.49641431   -53423.17961727
  entropy T*S    EENTRO =         0.00000000
  eigenvalues    EBANDS =       151.26789632
  atomic energy  EATOM  =     58341.73154849
  Solvation  Ediel_sol  =         0.00000000
  ---------------------------------------------------
  free energy    TOTEN  =      -489.11435523 eV

  energy without entropy =     -489.11435523  energy(sigma->0) =     -489.11435523


--------------------------------------------------------------------------------------------------------




--------------------------------------- Iteration      1(   4)  ---------------------------------------


     EDDAV:  cpu time   69.1481: real time   69.3231
 BZINTS: Fermi energy:  3.753944;801.000000 electrons
         Band energy: 145.872231;  BLOECHL correction: -0.377017
       DOS:  cpu time    0.0169: real time    0.0169
    --------------------------------------------
      LOOP:  cpu time   69.1650: real time   69.3400

 eigenvalue-minimisations  : 10560
 total energy-change (2. order) :-0.5395666E+01  (-0.5382835E+01)
 number of electron     801.0000000 magnetization      81.0000000
 augmentation part      801.0000000 magnetization      81.0000000

 Free energy of the ion-electron system (eV)
  ---------------------------------------------------
  alpha Z        PSCENC =      2539.23836485
  Ewald energy   TEWEN  =    178591.61265393
  -Hartree energ DENC   =   -242664.69807132
  -exchange      EXHF   =         0.00000000
  -V(xc)+E(xc)   XCENC  =       289.41645546
  PAW double counting   =     55685.49641431   -53423.17961727
  entropy T*S    EENTRO =         0.00000000
  eigenvalues    EBANDS =       145.87223054
  atomic energy  EATOM  =     58341.73154849
  Solvation  Ediel_sol  =         0.00000000
  ---------------------------------------------------
  free energy    TOTEN  =      -494.51002101 eV

  energy without entropy =     -494.51002101  energy(sigma->0) =     -494.51002101


--------------------------------------------------------------------------------------------------------




--------------------------------------- Iteration      1(   5)  ---------------------------------------


     EDDAV:  cpu time   68.0883: real time   68.2608
 BZINTS: Fermi energy:  3.753429;801.000000 electrons
         Band energy: 145.727541;  BLOECHL correction: -0.377044
       DOS:  cpu time    0.0183: real time    0.0183
    CHARGE:  cpu time    3.3563: real time    3.3650
    MIXING:  cpu time    0.0110: real time    0.0119
    --------------------------------------------
      LOOP:  cpu time   71.4740: real time   71.6560

 eigenvalue-minimisations  : 10320
 total energy-change (2. order) :-0.1446892E+00  (-0.1445431E+00)
 number of electron     800.9999988 magnetization      76.0328637
 augmentation part      233.1840505 magnetization      54.0828553

 Broyden mixing:
  rms(total) = 0.10306E+02    rms(broyden)= 0.10306E+02
  rms(prec ) = 0.10433E+02
  weight for this iteration     100.00

 Free energy of the ion-electron system (eV)
  ---------------------------------------------------
  alpha Z        PSCENC =      2539.23836485
  Ewald energy   TEWEN  =    178591.61265393
  -Hartree energ DENC   =   -242664.69807132
  -exchange      EXHF   =         0.00000000
  -V(xc)+E(xc)   XCENC  =       289.41645546
  PAW double counting   =     55685.49641431   -53423.17961727
  entropy T*S    EENTRO =         0.00000000
  eigenvalues    EBANDS =       145.72754135
  atomic energy  EATOM  =     58341.73154849
  Solvation  Ediel_sol  =         0.00000000
  ---------------------------------------------------
  free energy    TOTEN  =      -494.65471019 eV

  energy without entropy =     -494.65471019  energy(sigma->0) =     -494.65471019


--------------------------------------------------------------------------------------------------------




--------------------------------------- Iteration      1(   6)  ---------------------------------------


    POTLOK:  cpu time    0.5220: real time    0.5233
    SETDIJ:  cpu time    0.0413: real time    0.0415
    EDDIAG:  cpu time    9.7992: real time    9.8243
  RMM-DIIS:  cpu time   39.4787: real time   39.5790
    ORTHCH:  cpu time    1.3512: real time    1.3546
 BZINTS: Fermi energy:  2.660633;801.000000 electrons
         Band energy:-663.025951;  BLOECHL correction: -0.083102
       DOS:  cpu time    0.0189: real time    0.0190
    CHARGE:  cpu time    3.3291: real time    3.3377
    MIXING:  cpu time    0.0109: real time    0.0112
    --------------------------------------------
      LOOP:  cpu time   54.5514: real time   54.6905

 eigenvalue-minimisations  :  8998
 total energy-change (2. order) : 0.1596228E+02  (-0.7490695E+01)
 number of electron     800.9999986 magnetization      72.2719320
 augmentation part      246.0628994 magnetization      51.4472503

 Broyden mixing:
  rms(total) = 0.80068E+01    rms(broyden)= 0.80068E+01
  rms(prec ) = 0.87888E+01
  weight for this iteration     100.00

 eigenvalues of (default mixing * dielectric matrix)
  average eigenvalue GAMMA=   0.8260
  0.8260

 Free energy of the ion-electron system (eV)
  ---------------------------------------------------
  alpha Z        PSCENC =      2539.23836485
  Ewald energy   TEWEN  =    178591.61265393
  -Hartree energ DENC   =   -241701.97317105
  -exchange      EXHF   =         0.00000000
  -V(xc)+E(xc)   XCENC  =       271.55177846
  PAW double counting   =     62028.77418091   -59886.60183358
  entropy T*S    EENTRO =         0.00000000
  eigenvalues    EBANDS =      -663.02595102
  atomic energy  EATOM  =     58341.73154849
  Solvation  Ediel_sol  =         0.00000000
  ---------------------------------------------------
  free energy    TOTEN  =      -478.69242901 eV

  energy without entropy =     -478.69242901  energy(sigma->0) =     -478.69242901


--------------------------------------------------------------------------------------------------------




--------------------------------------- Iteration      1(   7)  ---------------------------------------


    POTLOK:  cpu time    0.5175: real time    0.5187
    SETDIJ:  cpu time    0.0410: real time    0.0411
    EDDIAG:  cpu time    9.7789: real time    9.8038
  RMM-DIIS:  cpu time   38.9104: real time   39.0113
    ORTHCH:  cpu time    1.3584: real time    1.3618
 BZINTS: Fermi energy:  4.507123;801.000000 electrons
         Band energy: 229.663923;  BLOECHL correction: -0.097465
       DOS:  cpu time    0.0182: real time    0.0182
    CHARGE:  cpu time    3.2859: real time    3.2944
    MIXING:  cpu time    0.0114: real time    0.0114
    --------------------------------------------
      LOOP:  cpu time   53.9217: real time   54.0608

 eigenvalue-minimisations  :  8985
 total energy-change (2. order) :-0.1087884E+03  (-0.1136207E+02)
 number of electron     800.9999990 magnetization      64.8451298
 augmentation part      239.5412758 magnetization      54.5868537

 Broyden mixing:
  rms(total) = 0.96718E+01    rms(broyden)= 0.96718E+01
  rms(prec ) = 0.12357E+02
  weight for this iteration     100.00

 eigenvalues of (default mixing * dielectric matrix)
  average eigenvalue GAMMA=   0.7806
  1.2712  0.2899

 Free energy of the ion-electron system (eV)
  ---------------------------------------------------
  alpha Z        PSCENC =      2539.23836485
  Ewald energy   TEWEN  =    178591.61265393
  -Hartree energ DENC   =   -242659.70549213
  -exchange      EXHF   =         0.00000000
  -V(xc)+E(xc)   XCENC  =       265.03622838
  PAW double counting   =     65422.88258736   -63317.94064305
  entropy T*S    EENTRO =         0.00000000
  eigenvalues    EBANDS =       229.66392314
  atomic energy  EATOM  =     58341.73154849
  Solvation  Ediel_sol  =         0.00000000
  ---------------------------------------------------
  free energy    TOTEN  =      -587.48082903 eV

  energy without entropy =     -587.48082903  energy(sigma->0) =     -587.48082903


--------------------------------------------------------------------------------------------------------




--------------------------------------- Iteration      1(   8)  ---------------------------------------


    POTLOK:  cpu time    0.5196: real time    0.5208
    SETDIJ:  cpu time    0.0411: real time    0.0412
    EDDIAG:  cpu time    9.8100: real time    9.8348
  RMM-DIIS:  cpu time   39.2490: real time   39.3485
    ORTHCH:  cpu time    1.3528: real time    1.3564
 BZINTS: Fermi energy:  2.863997;801.000000 electrons
         Band energy:-425.930027;  BLOECHL correction: -0.059746
       DOS:  cpu time    0.0191: real time    0.0191
    CHARGE:  cpu time    3.2870: real time    3.2953
    MIXING:  cpu time    0.0116: real time    0.0116
    --------------------------------------------
      LOOP:  cpu time   54.2901: real time   54.4277

 eigenvalue-minimisations  :  9013
 total energy-change (2. order) : 0.1164158E+03  (-0.5533520E+01)
 number of electron     800.9999989 magnetization      61.4395809
 augmentation part      249.8914640 magnetization      47.0760920

 Broyden mixing:
  rms(total) = 0.46922E+01    rms(broyden)= 0.46922E+01
  rms(prec ) = 0.56062E+01
  weight for this iteration     100.00

 eigenvalues of (default mixing * dielectric matrix)
  average eigenvalue GAMMA=   0.9198
  1.9570  0.5463  0.2561

 Free energy of the ion-electron system (eV)
  ---------------------------------------------------
  alpha Z        PSCENC =      2539.23836485
  Ewald energy   TEWEN  =    178591.61265393
  -Hartree energ DENC   =   -241821.82012692
  -exchange      EXHF   =         0.00000000
  -V(xc)+E(xc)   XCENC  =       264.07575577
  PAW double counting   =     70128.55528538   -68088.52848728
  entropy T*S    EENTRO =         0.00000000
  eigenvalues    EBANDS =      -425.93002667
  atomic energy  EATOM  =     58341.73154849
  Solvation  Ediel_sol  =         0.00000000
  ---------------------------------------------------
  free energy    TOTEN  =      -471.06503244 eV

  energy without entropy =     -471.06503244  energy(sigma->0) =     -471.06503244


--------------------------------------------------------------------------------------------------------




--------------------------------------- Iteration      1(   9)  ---------------------------------------


    POTLOK:  cpu time    0.5166: real time    0.5212
    SETDIJ:  cpu time    0.0409: real time    0.0410
    EDDIAG:  cpu time    9.7654: real time    9.7900
  RMM-DIIS:  cpu time   39.3268: real time   39.4266
    ORTHCH:  cpu time    1.3568: real time    1.3602
 BZINTS: Fermi energy:  3.277199;801.000000 electrons
         Band energy:-508.633416;  BLOECHL correction: -0.221889
       DOS:  cpu time    0.0189: real time    0.0189
    CHARGE:  cpu time    3.3060: real time    3.3144
    MIXING:  cpu time    0.0118: real time    0.0118
    --------------------------------------------
      LOOP:  cpu time   54.3433: real time   54.4842

 eigenvalue-minimisations  :  8999
 total energy-change (2. order) :-0.3656915E+02  (-0.5074101E+01)
 number of electron     800.9999986 magnetization      59.1960775
 augmentation part      248.1160277 magnetization      44.9477455

 Broyden mixing:
  rms(total) = 0.64177E+01    rms(broyden)= 0.64177E+01
  rms(prec ) = 0.10074E+02
  weight for this iteration     100.00

 eigenvalues of (default mixing * dielectric matrix)
  average eigenvalue GAMMA=   0.7979
  2.1601  0.5980  0.2497  0.1838

 Free energy of the ion-electron system (eV)
  ---------------------------------------------------
  alpha Z        PSCENC =      2539.23836485
  Ewald energy   TEWEN  =    178591.61265393
  -Hartree energ DENC   =   -241769.98786263
  -exchange      EXHF   =         0.00000000
  -V(xc)+E(xc)   XCENC  =       266.19467132
  PAW double counting   =     71295.03067654   -69262.82081452
  entropy T*S    EENTRO =         0.00000000
  eigenvalues    EBANDS =      -508.63341597
  atomic energy  EATOM  =     58341.73154849
  Solvation  Ediel_sol  =         0.00000000
  ---------------------------------------------------
  free energy    TOTEN  =      -507.63417798 eV

  energy without entropy =     -507.63417798  energy(sigma->0) =     -507.63417798


--------------------------------------------------------------------------------------------------------




--------------------------------------- Iteration      1(  10)  ---------------------------------------


    POTLOK:  cpu time    0.5222: real time    0.5234
    SETDIJ:  cpu time    0.0411: real time    0.0412
    EDDIAG:  cpu time    9.7560: real time    9.7808
  RMM-DIIS:  cpu time   39.5072: real time   39.6076
    ORTHCH:  cpu time    1.4064: real time    1.4099
 BZINTS: Fermi energy:  2.979924;801.000000 electrons
         Band energy:-431.018845;  BLOECHL correction: -0.136776
       DOS:  cpu time    0.0189: real time    0.0189
    CHARGE:  cpu time    3.3011: real time    3.3094
    MIXING:  cpu time    0.0124: real time    0.0124
    --------------------------------------------
      LOOP:  cpu time   54.5652: real time   54.7036

 eigenvalue-minimisations  :  9021
 total energy-change (2. order) : 0.2974844E+02  (-0.1497034E+01)
 number of electron     800.9999989 magnetization      55.8772635
 augmentation part      249.3627319 magnetization      41.6251502

 Broyden mixing:
  rms(total) = 0.50577E+01    rms(broyden)= 0.50577E+01
  rms(prec ) = 0.70468E+01
  weight for this iteration     100.00

 eigenvalues of (default mixing * dielectric matrix)
  average eigenvalue GAMMA=   0.7229
  2.3134  0.6237  0.3226  0.2387  0.1159

 Free energy of the ion-electron system (eV)
  ---------------------------------------------------
  alpha Z        PSCENC =      2539.23836485
  Ewald energy   TEWEN  =    178591.61265393
  -Hartree energ DENC   =   -241813.31878862
  -exchange      EXHF   =         0.00000000
  -V(xc)+E(xc)   XCENC  =       266.67547718
  PAW double counting   =     71906.48872314   -69879.29487435
  entropy T*S    EENTRO =         0.00000000
  eigenvalues    EBANDS =      -431.01884510
  atomic energy  EATOM  =     58341.73154849
  Solvation  Ediel_sol  =         0.00000000
  ---------------------------------------------------
  free energy    TOTEN  =      -477.88574048 eV

  energy without entropy =     -477.88574048  energy(sigma->0) =     -477.88574048


--------------------------------------------------------------------------------------------------------




--------------------------------------- Iteration      1(  11)  ---------------------------------------


    POTLOK:  cpu time    0.5204: real time    0.5218
    SETDIJ:  cpu time    0.0412: real time    0.0413
    EDDIAG:  cpu time    9.7519: real time    9.7768
  RMM-DIIS:  cpu time   39.5497: real time   39.6499
    ORTHCH:  cpu time    1.3589: real time    1.3625
 BZINTS: Fermi energy:  2.925782;801.000000 electrons
         Band energy:-331.852575;  BLOECHL correction: -0.278810
       DOS:  cpu time    0.0187: real time    0.0188
    CHARGE:  cpu time    3.3233: real time    3.3317
    MIXING:  cpu time    0.0132: real time    0.0133
    --------------------------------------------
      LOOP:  cpu time   54.5774: real time   54.7159

 eigenvalue-minimisations  :  9014
 total energy-change (2. order) : 0.2387071E+02  (-0.8286079E+00)
 number of electron     800.9999986 magnetization      55.0657304
 augmentation part      249.2716000 magnetization      37.1362274

 Broyden mixing:
  rms(total) = 0.26862E+01    rms(broyden)= 0.26862E+01
  rms(prec ) = 0.37493E+01
  weight for this iteration     100.00

 eigenvalues of (default mixing * dielectric matrix)
  average eigenvalue GAMMA=   0.6822
  2.1655  0.6334  0.6334  0.2792  0.2792  0.1025

 Free energy of the ion-electron system (eV)
  ---------------------------------------------------
  alpha Z        PSCENC =      2539.23836485
  Ewald energy   TEWEN  =    178591.61265393
  -Hartree energ DENC   =   -241884.73272681
  -exchange      EXHF   =         0.00000000
  -V(xc)+E(xc)   XCENC  =       267.23159143
  PAW double counting   =     72576.07195763   -70553.31584647
  entropy T*S    EENTRO =         0.00000000
  eigenvalues    EBANDS =      -331.85257456
  atomic energy  EATOM  =     58341.73154849
  Solvation  Ediel_sol  =         0.00000000
  ---------------------------------------------------
  free energy    TOTEN  =      -454.01503151 eV

  energy without entropy =     -454.01503151  energy(sigma->0) =     -454.01503151


--------------------------------------------------------------------------------------------------------




--------------------------------------- Iteration      1(  12)  ---------------------------------------


    POTLOK:  cpu time    0.5178: real time    0.5193
    SETDIJ:  cpu time    0.0414: real time    0.0414
    EDDIAG:  cpu time    9.7618: real time    9.7865
  RMM-DIIS:  cpu time   39.5093: real time   39.6097
    ORTHCH:  cpu time    1.3650: real time    1.3684
 BZINTS: Fermi energy:  2.882752;801.000000 electrons
         Band energy:-325.695563;  BLOECHL correction: -0.390717
       DOS:  cpu time    0.0186: real time    0.0187
    CHARGE:  cpu time    3.3387: real time    3.3473
    MIXING:  cpu time    0.0134: real time    0.0134
    --------------------------------------------
      LOOP:  cpu time   54.5661: real time   54.7046

 eigenvalue-minimisations  :  9021
 total energy-change (2. order) :-0.1657319E+01  (-0.5599354E+00)
 number of electron     800.9999988 magnetization      53.1793083
 augmentation part      248.6807646 magnetization      34.5743261

 Broyden mixing:
  rms(total) = 0.15183E+01    rms(broyden)= 0.15183E+01
  rms(prec ) = 0.18520E+01
  weight for this iteration     100.00

 eigenvalues of (default mixing * dielectric matrix)
  average eigenvalue GAMMA=   0.6940
  2.0098  0.8884  0.8884  0.4024  0.2833  0.2833  0.1026

 Free energy of the ion-electron system (eV)
  ---------------------------------------------------
  alpha Z        PSCENC =      2539.23836485
  Ewald energy   TEWEN  =    178591.61265393
  -Hartree energ DENC   =   -241899.91781855
  -exchange      EXHF   =         0.00000000
  -V(xc)+E(xc)   XCENC  =       266.09918224
  PAW double counting   =     72128.62332994   -70097.36404826
  entropy T*S    EENTRO =         0.00000000
  eigenvalues    EBANDS =      -325.69556272
  atomic energy  EATOM  =     58341.73154849
  Solvation  Ediel_sol  =         0.00000000
  ---------------------------------------------------
  free energy    TOTEN  =      -455.67235007 eV

  energy without entropy =     -455.67235007  energy(sigma->0) =     -455.67235007


--------------------------------------------------------------------------------------------------------




--------------------------------------- Iteration      1(  13)  ---------------------------------------


    POTLOK:  cpu time    0.5181: real time    0.5193
    SETDIJ:  cpu time    0.0395: real time    0.0396
    EDDIAG:  cpu time    9.7983: real time    9.8233
  RMM-DIIS:  cpu time   39.5634: real time   39.6638
    ORTHCH:  cpu time    1.3617: real time    1.3651
 BZINTS: Fermi energy:  2.931954;801.000000 electrons
         Band energy:-311.029827;  BLOECHL correction: -0.390887
       DOS:  cpu time    0.0185: real time    0.0185
    CHARGE:  cpu time    3.3460: real time    3.3546
    MIXING:  cpu time    0.0139: real time    0.0139
    --------------------------------------------
      LOOP:  cpu time   54.6594: real time   54.7982

 eigenvalue-minimisations  :  9018
 total energy-change (2. order) :-0.4108717E+01  (-0.3288039E+00)
 number of electron     800.9999986 magnetization      50.9303989
 augmentation part      248.4039793 magnetization      33.1956799

 Broyden mixing:
  rms(total) = 0.17747E+01    rms(broyden)= 0.17747E+01
  rms(prec ) = 0.21990E+01
  weight for this iteration     100.00

 eigenvalues of (default mixing * dielectric matrix)
  average eigenvalue GAMMA=   0.6742
  2.0121  0.9007  0.9007  0.6581  0.2887  0.2887  0.1026  0.2417

 Free energy of the ion-electron system (eV)
  ---------------------------------------------------
  alpha Z        PSCENC =      2539.23836485
  Ewald energy   TEWEN  =    178591.61265393
  -Hartree energ DENC   =   -241921.31884094
  -exchange      EXHF   =         0.00000000
  -V(xc)+E(xc)   XCENC  =       265.05764818
  PAW double counting   =     71897.11278878   -69862.18540273
  entropy T*S    EENTRO =         0.00000000
  eigenvalues    EBANDS =      -311.02982732
  atomic energy  EATOM  =     58341.73154849
  Solvation  Ediel_sol  =         0.00000000
  ---------------------------------------------------
  free energy    TOTEN  =      -459.78106675 eV

  energy without entropy =     -459.78106675  energy(sigma->0) =     -459.78106675


--------------------------------------------------------------------------------------------------------




--------------------------------------- Iteration      1(  14)  ---------------------------------------


    POTLOK:  cpu time    0.5171: real time    0.5184
    SETDIJ:  cpu time    0.0411: real time    0.0412
    EDDIAG:  cpu time    9.7717: real time    9.7966
  RMM-DIIS:  cpu time   39.6854: real time   39.7862
    ORTHCH:  cpu time    1.3667: real time    1.3701
 BZINTS: Fermi energy:  2.924646;801.000000 electrons
         Band energy:-288.558295;  BLOECHL correction: -0.474415
       DOS:  cpu time    0.0183: real time    0.0183
    CHARGE:  cpu time    3.3522: real time    3.3606
    MIXING:  cpu time    0.0140: real time    0.0140
    --------------------------------------------
      LOOP:  cpu time   54.7665: real time   54.9055

 eigenvalue-minimisations  :  9009
 total energy-change (2. order) : 0.1933289E+00  (-0.8762195E-01)
 number of electron     800.9999987 magnetization      48.6139662
 augmentation part      248.3410368 magnetization      29.8229825

 Broyden mixing:
  rms(total) = 0.77653E+00    rms(broyden)= 0.77653E+00
  rms(prec ) = 0.87963E+00
  weight for this iteration     100.00

 eigenvalues of (default mixing * dielectric matrix)
  average eigenvalue GAMMA=   0.7143
  2.0820  1.1307  1.1307  0.6157  0.5363  0.1026  0.2802  0.2802  0.2706

 Free energy of the ion-electron system (eV)
  ---------------------------------------------------
  alpha Z        PSCENC =      2539.23836485
  Ewald energy   TEWEN  =    178591.61265393
  -Hartree energ DENC   =   -241939.70358155
  -exchange      EXHF   =         0.00000000
  -V(xc)+E(xc)   XCENC  =       263.75089930
  PAW double counting   =     72090.07604183   -70057.73536997
  entropy T*S    EENTRO =         0.00000000
  eigenvalues    EBANDS =      -288.55829478
  atomic energy  EATOM  =     58341.73154849
  Solvation  Ediel_sol  =         0.00000000
  ---------------------------------------------------
  free energy    TOTEN  =      -459.58773790 eV

  energy without entropy =     -459.58773790  energy(sigma->0) =     -459.58773790


--------------------------------------------------------------------------------------------------------




--------------------------------------- Iteration      1(  15)  ---------------------------------------


    POTLOK:  cpu time    0.5194: real time    0.5208
    SETDIJ:  cpu time    0.0415: real time    0.0416
    EDDIAG:  cpu time    9.7563: real time    9.7810
  RMM-DIIS:  cpu time   39.6576: real time   39.7584
    ORTHCH:  cpu time    1.3622: real time    1.3656
 BZINTS: Fermi energy:  2.944920;801.000000 electrons
         Band energy:-273.382953;  BLOECHL correction: -0.515693
       DOS:  cpu time    0.0190: real time    0.0190
    CHARGE:  cpu time    3.3442: real time    3.3526
    MIXING:  cpu time    0.0147: real time    0.0148
    --------------------------------------------
      LOOP:  cpu time   54.7150: real time   54.8539

 eigenvalue-minimisations  :  9010
 total energy-change (2. order) :-0.3293839E+01  (-0.1404236E+00)
 number of electron     800.9999987 magnetization      45.7430369
 augmentation part      248.2858855 magnetization      27.5202364

 Broyden mixing:
  rms(total) = 0.89914E+00    rms(broyden)= 0.89914E+00
  rms(prec ) = 0.10386E+01
  weight for this iteration     100.00

 eigenvalues of (default mixing * dielectric matrix)
  average eigenvalue GAMMA=   0.7107
  2.0030  1.3405  1.3405  0.6163  0.6163  0.1026  0.3037  0.2735  0.2735  0.2367

 Free energy of the ion-electron system (eV)
  ---------------------------------------------------
  alpha Z        PSCENC =      2539.23836485
  Ewald energy   TEWEN  =    178591.61265393
  -Hartree energ DENC   =   -241955.51237776
  -exchange      EXHF   =         0.00000000
  -V(xc)+E(xc)   XCENC  =       261.87451890
  PAW double counting   =     72136.59256214   -70105.03589513
  entropy T*S    EENTRO =         0.00000000
  eigenvalues    EBANDS =      -273.38295264
  atomic energy  EATOM  =     58341.73154849
  Solvation  Ediel_sol  =         0.00000000
  ---------------------------------------------------
  free energy    TOTEN  =      -462.88157721 eV

  energy without entropy =     -462.88157721  energy(sigma->0) =     -462.88157721


--------------------------------------------------------------------------------------------------------




--------------------------------------- Iteration      1(  16)  ---------------------------------------


    POTLOK:  cpu time    0.5179: real time    0.5193
    SETDIJ:  cpu time    0.0410: real time    0.0411
    EDDIAG:  cpu time    9.8289: real time    9.8539
  RMM-DIIS:  cpu time   39.5871: real time   39.6874
    ORTHCH:  cpu time    1.3711: real time    1.3747
 BZINTS: Fermi energy:  2.953039;801.000000 electrons
         Band energy:-263.150424;  BLOECHL correction: -0.508142
       DOS:  cpu time    0.0166: real time    0.0167
    CHARGE:  cpu time    3.3553: real time    3.3637
    MIXING:  cpu time    0.0158: real time    0.0159
    --------------------------------------------
      LOOP:  cpu time   54.7339: real time   54.8727

 eigenvalue-minimisations  :  8999
 total energy-change (2. order) :-0.2631965E+01  (-0.1529512E+00)
 number of electron     800.9999987 magnetization      44.0538028
 augmentation part      248.1269985 magnetization      26.3807468

 Broyden mixing:
  rms(total) = 0.51551E+00    rms(broyden)= 0.51551E+00
  rms(prec ) = 0.55361E+00
  weight for this iteration     100.00

 eigenvalues of (default mixing * dielectric matrix)
  average eigenvalue GAMMA=   0.7346
  2.0612  2.0612  0.8125  0.8125  0.5953  0.5953  0.1026  0.2797  0.2797  0.2663
  0.2147

 Free energy of the ion-electron system (eV)
  ---------------------------------------------------
  alpha Z        PSCENC =      2539.23836485
  Ewald energy   TEWEN  =    178591.61265393
  -Hartree energ DENC   =   -241968.15533936
  -exchange      EXHF   =         0.00000000
  -V(xc)+E(xc)   XCENC  =       260.38827037
  PAW double counting   =     72062.07295796   -70029.25157431
  entropy T*S    EENTRO =         0.00000000
  eigenvalues    EBANDS =      -263.15042377
  atomic energy  EATOM  =     58341.73154849
  Solvation  Ediel_sol  =         0.00000000
  ---------------------------------------------------
  free energy    TOTEN  =      -465.51354182 eV

  energy without entropy =     -465.51354182  energy(sigma->0) =     -465.51354182


--------------------------------------------------------------------------------------------------------




--------------------------------------- Iteration      1(  17)  ---------------------------------------


    POTLOK:  cpu time    0.5480: real time    0.5494
    SETDIJ:  cpu time    0.0553: real time    0.0554
    EDDIAG:  cpu time    9.7569: real time    9.7818
  RMM-DIIS:  cpu time   39.4607: real time   39.5608
    ORTHCH:  cpu time    1.3633: real time    1.3667
 BZINTS: Fermi energy:  2.946656;801.000000 electrons
         Band energy:-267.144334;  BLOECHL correction: -0.466567
       DOS:  cpu time    0.0193: real time    0.0194
    CHARGE:  cpu time    3.3438: real time    3.3524
    MIXING:  cpu time    0.0158: real time    0.0158
    --------------------------------------------
      LOOP:  cpu time   54.5631: real time   54.7017

 eigenvalue-minimisations  :  9001
 total energy-change (2. order) :-0.1198719E+01  (-0.5245478E-01)
 number of electron     800.9999987 magnetization      42.4359490
 augmentation part      248.0234627 magnetization      25.1050452

 Broyden mixing:
  rms(total) = 0.47919E+00    rms(broyden)= 0.47919E+00
  rms(prec ) = 0.52137E+00
  weight for this iteration     100.00

 eigenvalues of (default mixing * dielectric matrix)
  average eigenvalue GAMMA=   0.7317
  2.1784  2.1784  0.8550  0.8550  0.6201  0.6201  0.1026  0.3175  0.3175  0.2648
  0.2648  0.2064

 Free energy of the ion-electron system (eV)
  ---------------------------------------------------
  alpha Z        PSCENC =      2539.23836485
  Ewald energy   TEWEN  =    178591.61265393
  -Hartree energ DENC   =   -241965.83444339
  -exchange      EXHF   =         0.00000000
  -V(xc)+E(xc)   XCENC  =       259.73051417
  PAW double counting   =     72014.26950907   -69980.31607333
  entropy T*S    EENTRO =         0.00000000
  eigenvalues    EBANDS =      -267.14433415
  atomic energy  EATOM  =     58341.73154849
  Solvation  Ediel_sol  =         0.00000000
  ---------------------------------------------------
  free energy    TOTEN  =      -466.71226035 eV

  energy without entropy =     -466.71226035  energy(sigma->0) =     -466.71226035


--------------------------------------------------------------------------------------------------------




--------------------------------------- Iteration      1(  18)  ---------------------------------------


    POTLOK:  cpu time    0.5202: real time    0.5214
    SETDIJ:  cpu time    0.0412: real time    0.0413
    EDDIAG:  cpu time    9.8265: real time    9.8514
  RMM-DIIS:  cpu time   39.5164: real time   39.6166
    ORTHCH:  cpu time    1.3722: real time    1.3756
 BZINTS: Fermi energy:  2.939460;801.000000 electrons
         Band energy:-271.916422;  BLOECHL correction: -0.439063
       DOS:  cpu time    0.0187: real time    0.0187
    CHARGE:  cpu time    3.3566: real time    3.3681
[...]
      6.688756  1.144099  0.505810            0           0           0  
     12.288989  4.393959  2.773501            0           0           0  
      3.876099  4.394235  2.774178            0           0           0  
      1.061546  1.161152  7.188217            0           0           0  
      1.074061  1.143048  0.504401            0           0           0  
      6.678599  9.248213  2.773453            0           0           0  
      6.614066  4.373860  9.493570            0           0           0  
      8.076935  5.206369  4.993590            0           0           0  
     10.904027  6.849790  9.454027            0           0           0  
      5.280909  1.962532  2.773454            0           0           0  
      2.471759  1.961440  2.759649            0           0           0  
     15.092869  7.634905  4.984901            0           0           0  
     12.280941  6.016457  7.190222            0           0           0  
      6.672439  6.017699  7.213874            0           0           0  
     12.298753  6.007046  0.506665            0           0           0  
      6.686642  6.004687  0.507235            0           0           0  
      8.081374  6.818546  2.776298            0           0           0  
      6.682606  4.392217  2.775592            0           0           0  
      3.868988  2.776069  4.976812            0           0           0  
     10.876558  3.590925  7.195907            0           0           0  
     10.895011  3.577345  0.505010            0           0           0  
     10.883429  0.347946  4.981831            0           0           0  
      9.476638  7.632829  4.985001            0           0           0  
     10.878089  5.205381  4.984690            0           0           0  
      6.677317  7.632494  4.985115            0           0           0  
      5.270372  0.346934  4.982069            0           0           0  
      5.275678  6.822899  2.775482            0           0           0  
      8.077294  0.348516  4.984791            0           0           0  
      9.477865  1.161091  7.190084            0           0           0  
     10.876274  8.451071  7.190729            0           0           0  
      9.492250  1.144067  0.504932            0           0           0  
     10.898644  8.435779  0.505512            0           0           0  
      5.276064  5.204823  4.985345            0           0           0  
     12.286427  2.775845  4.976320            0           0           0  
     15.096777  9.251356  2.775538            0           0           0  
      9.479091  2.780169  4.984281            0           0           0  
      6.675096  2.780963  4.985137            0           0           0  
      8.072330  5.213585 10.292610    -0.023249   -0.000221    0.999730  
 
   2 f  =   20.788734 THz   130.619468 2PiTHz  693.437501 cm-1    85.975324 meV
             X         Y         Z           dx          dy          dz
     13.683755  8.448691  7.195451            0           0           0  
      5.268700  8.450223  7.188906            0           0           0  
      3.862984  6.016495  7.190261            0           0           0  
     13.702474  8.433690  0.508649            0           0           0  
      5.282744  8.437694  0.505934            0           0           0  
      3.880660  6.005907  0.506785            0           0           0  
      8.082867  1.960116  2.775982            0           0           0  
      9.486925  9.247456  2.773092            0           0           0  
      2.462745  3.586690  7.187847            0           0           0  
      2.477579  3.578316  0.506236            0           0           0  
     10.885847  1.962235  2.771569            0           0           0  
     13.688113  5.205624  4.982481            0           0           0  
      3.861825  1.161588  7.187499            0           0           0  
      9.471342  6.017165  7.213073            0           0           0  
      5.268451  3.590118  7.197100            0           0           0  
      3.886217  1.142849  0.506217            0           0           0  
      9.490665  6.004561  0.507667            0           0           0  
      5.284505  3.577620  0.506208            0           0           0  
     12.290816  9.250771  2.775111            0           0           0  
     12.282429  7.634105  4.984826            0           0           0  
     13.693896  6.820932  2.775876            0           0           0  
      9.482922  4.392123  2.775547            0           0           0  
      8.072557  8.447441  7.195930            0           0           0  
      8.089669  8.432303  0.506007            0           0           0  
     10.887769  6.821744  2.774759            0           0           0  
      2.466022  0.347420  4.976358            0           0           0  
     15.082637  9.260968  9.463838            0           0           0  
      3.848937  4.402940  9.460781            0           0           0  
      6.657061  9.271327  9.458507            0           0           0  
     12.289799  4.400418  9.459086            0           0           0  
      9.474046  9.273261  9.459520            0           0           0  
     10.880386  1.963109  9.458912            0           0           0  
      2.457431  1.973101  9.461638            0           0           0  
     12.277303  9.261403  9.464194            0           0           0  
     13.676684  6.833129  9.465669            0           0           0  
      5.256716  1.961039  9.459754            0           0           0  
      8.067703  6.890974  9.491799            0           0           0  
      9.519813  4.371707  9.490342            0           0           0  
      5.228527  6.848905  9.454869            0           0           0  
      8.066296  1.935690  9.453529            0           0           0  
      8.071847  3.593528  7.213121            0           0           0  
      8.091385  3.572799  0.506746            0           0           0  
      6.667636  1.159442  7.188795            0           0           0  
      6.688756  1.144099  0.505810            0           0           0  
     12.288989  4.393959  2.773501            0           0           0  
      3.876099  4.394235  2.774178            0           0           0  
      1.061546  1.161152  7.188217            0           0           0  
      1.074061  1.143048  0.504401            0           0           0  
      6.678599  9.248213  2.773453            0           0           0  
      6.614066  4.373860  9.493570            0           0           0  
      8.076935  5.206369  4.993590            0           0           0  
     10.904027  6.849790  9.454027            0           0           0  
      5.280909  1.962532  2.773454            0           0           0  
      2.471759  1.961440  2.759649            0           0           0  
     15.092869  7.634905  4.984901            0           0           0  
     12.280941  6.016457  7.190222            0           0           0  
      6.672439  6.017699  7.213874            0           0           0  
     12.298753  6.007046  0.506665            0           0           0  
      6.686642  6.004687  0.507235            0           0           0  
      8.081374  6.818546  2.776298            0           0           0  
      6.682606  4.392217  2.775592            0           0           0  
      3.868988  2.776069  4.976812            0           0           0  
     10.876558  3.590925  7.195907            0           0           0  
     10.895011  3.577345  0.505010            0           0           0  
     10.883429  0.347946  4.981831            0           0           0  
      9.476638  7.632829  4.985001            0           0           0  
     10.878089  5.205381  4.984690            0           0           0  
      6.677317  7.632494  4.985115            0           0           0  
      5.270372  0.346934  4.982069            0           0           0  
      5.275678  6.822899  2.775482            0           0           0  
      8.077294  0.348516  4.984791            0           0           0  
      9.477865  1.161091  7.190084            0           0           0  
     10.876274  8.451071  7.190729            0           0           0  
      9.492250  1.144067  0.504932            0           0           0  
     10.898644  8.435779  0.505512            0           0           0  
      5.276064  5.204823  4.985345            0           0           0  
     12.286427  2.775845  4.976320            0           0           0  
     15.096777  9.251356  2.775538            0           0           0  
      9.479091  2.780169  4.984281            0           0           0  
      6.675096  2.780963  4.985137            0           0           0  
      8.072330  5.213585 10.292610     0.545079   -0.838291    0.012491  
 
   3 f  =   20.411658 THz   128.250231 2PiTHz  680.859611 cm-1    84.415863 meV
             X         Y         Z           dx          dy          dz
     13.683755  8.448691  7.195451            0           0           0  
      5.268700  8.450223  7.188906            0           0           0  
      3.862984  6.016495  7.190261            0           0           0  
     13.702474  8.433690  0.508649            0           0           0  
      5.282744  8.437694  0.505934            0           0           0  
      3.880660  6.005907  0.506785            0           0           0  
      8.082867  1.960116  2.775982            0           0           0  
      9.486925  9.247456  2.773092            0           0           0  
      2.462745  3.586690  7.187847            0           0           0  
      2.477579  3.578316  0.506236            0           0           0  
     10.885847  1.962235  2.771569            0           0           0  
     13.688113  5.205624  4.982481            0           0           0  
      3.861825  1.161588  7.187499            0           0           0  
      9.471342  6.017165  7.213073            0           0           0  
      5.268451  3.590118  7.197100            0           0           0  
      3.886217  1.142849  0.506217            0           0           0  
      9.490665  6.004561  0.507667            0           0           0  
      5.284505  3.577620  0.506208            0           0           0  
     12.290816  9.250771  2.775111            0           0           0  
     12.282429  7.634105  4.984826            0           0           0  
     13.693896  6.820932  2.775876            0           0           0  
      9.482922  4.392123  2.775547            0           0           0  
      8.072557  8.447441  7.195930            0           0           0  
      8.089669  8.432303  0.506007            0           0           0  
     10.887769  6.821744  2.774759            0           0           0  
      2.466022  0.347420  4.976358            0           0           0  
     15.082637  9.260968  9.463838            0           0           0  
      3.848937  4.402940  9.460781            0           0           0  
      6.657061  9.271327  9.458507            0           0           0  
     12.289799  4.400418  9.459086            0           0           0  
      9.474046  9.273261  9.459520            0           0           0  
     10.880386  1.963109  9.458912            0           0           0  
      2.457431  1.973101  9.461638            0           0           0  
     12.277303  9.261403  9.464194            0           0           0  
     13.676684  6.833129  9.465669            0           0           0  
      5.256716  1.961039  9.459754            0           0           0  
      8.067703  6.890974  9.491799            0           0           0  
      9.519813  4.371707  9.490342            0           0           0  
      5.228527  6.848905  9.454869            0           0           0  
      8.066296  1.935690  9.453529            0           0           0  
      8.071847  3.593528  7.213121            0           0           0  
      8.091385  3.572799  0.506746            0           0           0  
      6.667636  1.159442  7.188795            0           0           0  
      6.688756  1.144099  0.505810            0           0           0  
     12.288989  4.393959  2.773501            0           0           0  
      3.876099  4.394235  2.774178            0           0           0  
      1.061546  1.161152  7.188217            0           0           0  
      1.074061  1.143048  0.504401            0           0           0  
      6.678599  9.248213  2.773453            0           0           0  
      6.614066  4.373860  9.493570            0           0           0  
      8.076935  5.206369  4.993590            0           0           0  
     10.904027  6.849790  9.454027            0           0           0  
      5.280909  1.962532  2.773454            0           0           0  
      2.471759  1.961440  2.759649            0           0           0  
     15.092869  7.634905  4.984901            0           0           0  
     12.280941  6.016457  7.190222            0           0           0  
      6.672439  6.017699  7.213874            0           0           0  
     12.298753  6.007046  0.506665            0           0           0  
      6.686642  6.004687  0.507235            0           0           0  
      8.081374  6.818546  2.776298            0           0           0  
      6.682606  4.392217  2.775592            0           0           0  
      3.868988  2.776069  4.976812            0           0           0  
     10.876558  3.590925  7.195907            0           0           0  
     10.895011  3.577345  0.505010            0           0           0  
     10.883429  0.347946  4.981831            0           0           0  
      9.476638  7.632829  4.985001            0           0           0  
     10.878089  5.205381  4.984690            0           0           0  
      6.677317  7.632494  4.985115            0           0           0  
      5.270372  0.346934  4.982069            0           0           0  
      5.275678  6.822899  2.775482            0           0           0  
      8.077294  0.348516  4.984791            0           0           0  
      9.477865  1.161091  7.190084            0           0           0  
     10.876274  8.451071  7.190729            0           0           0  
      9.492250  1.144067  0.504932            0           0           0  
     10.898644  8.435779  0.505512            0           0           0  
      5.276064  5.204823  4.985345            0           0           0  
     12.286427  2.775845  4.976320            0           0           0  
     15.096777  9.251356  2.775538            0           0           0  
      9.479091  2.780169  4.984281            0           0           0  
      6.675096  2.780963  4.985137            0           0           0  
      8.072330  5.213585 10.292610     0.838062    0.545222    0.019610  
 
 Finite differences POTIM=  1.500000000000000E-002
  LATTYP: Found a hexagonal cell.
 ALAT       =    11.2227001190
 C/A-ratio  =     1.9603125600
  
  Lattice vectors:
  
 A1 = (   5.6113500595,  -9.7191434021,   0.0000000000)
 A2 = ( -11.2227001190,   0.0000000000,   0.0000000000)
 A3 = (   0.0000000000,   0.0000000000, -22.0000000000)


Analysis of symmetry for initial positions (statically):
=====================================================================
 Subroutine PRICEL returns:
 Original cell was already a primitive cell.
 

 Routine SETGRP: Setting up the symmetry group for a 
 hexagonal supercell.


 Subroutine GETGRP returns: Found  1 space group operations
 (whereof  1 operations were pure point group operations)
 out of a pool of 24 trial point group operations.


The static configuration has the point symmetry C_1 .


Analysis of symmetry for dynamics (positions and initial velocities):
=====================================================================
 Subroutine PRICEL returns:
 Original cell was already a primitive cell.
 

 Routine SETGRP: Setting up the symmetry group for a 
 hexagonal supercell.


 Subroutine GETGRP returns: Found  1 space group operations
 (whereof  1 operations were pure point group operations)
 out of a pool of 24 trial point group operations.


The dynamic configuration has the point symmetry C_1 .


Analysis of constrained symmetry for selective dynamics:
=====================================================================
 Subroutine PRICEL returns:
 Original cell was already a primitive cell.
 

 Routine SETGRP: Setting up the symmetry group for a 
 hexagonal supercell.


 Subroutine GETGRP returns: Found  1 space group operations
 (whereof  1 operations were pure point group operations)
 out of a pool of 24 trial point group operations.


The constrained configuration has the point symmetry C_1 .


Analysis of structural, dynamic, and magnetic symmetry:
=====================================================================
 Subroutine PRICEL returns:
 Original cell was already a primitive cell.
 

 Routine SETGRP: Setting up the symmetry group for a 
 hexagonal supercell.


 Subroutine GETGRP returns: Found  1 space group operations
 (whereof  1 operations were pure point group operations)
 out of a pool of 24 trial point group operations.


The magnetic configuration has the point symmetry C_1 .


 Subroutine INISYM returns: Found  1 space group operations
 (whereof  1 operations are pure point group operations),
 and found     1 'primitive' translations

 
 KPOINTS: mesh auto                               

Automatic generation of k-mesh.
Space group operators:
 irot       det(A)        alpha          n_x          n_y          n_z        tau_x        tau_y        tau_z
    1     1.000000     0.000000     1.000000     0.000000     0.000000     0.000000     0.000000     0.000000
 
 Subroutine IBZKPT returns following result:
 ===========================================
 
 Found      4 irreducible k-points:
 
 Following reciprocal coordinates:
            Coordinates               Weight
  0.000000  0.000000  0.000000      1.000000
  0.500000  0.000000  0.000000      1.000000
  0.000000  0.500000  0.000000      1.000000
  0.500000  0.500000  0.000000      1.000000
 
 Following cartesian coordinates:
            Coordinates               Weight
  0.000000  0.000000  0.000000      1.000000
  0.044553 -0.025722  0.000000      1.000000
  0.000000  0.051445  0.000000      1.000000
  0.044553  0.025722  0.000000      1.000000
 
 TETIRR: Found     12 inequivalent tetrahedra from       24
     LOOP+:  cpu time  687.1474: real time  688.8726
    4ORBIT:  cpu time    0.0000: real time    0.0000
 BZINTS: Fermi energy:  2.801171;801.000000 electrons
         Band energy:-373.224752;  BLOECHL correction: -0.535272

 total amount of memory used by VASP MPI-rank0   418197. kBytes
=======================================================================

   base      :      30000. kBytes
   nonlr-proj:     107987. kBytes
   fftplans  :      15524. kBytes
   grid      :     133430. kBytes
   one-center:       2519. kBytes
   wavefun   :     128737. kBytes
 
  
  
 General timing and accounting informations for this job:
 ========================================================
  
                  Total CPU time used (sec):     6056.327
                            User time (sec):     6034.991
                          System time (sec):       21.337
                         Elapsed time (sec):     6074.012
  
                   Maximum memory used (kb):     1140112.
                   Average memory used (kb):           0.
  
                          Minor page faults:      2845674
                          Major page faults:            0
                 Voluntary context switches:         5994
