 vasp.5.4.4.18Apr17-6-g9f103f2a35 (build Oct 25 2019 11:13:22) complex          
  
 executed on             LinuxIFC date 2021.10.28  18:56:40
 running on   48 total cores
 distrk:  each k-point on   48 cores,    1 groups
 distr:  one band on NCORES_PER_BAND=   4 cores,   12 groups


--------------------------------------------------------------------------------------------------------


 INCAR:
 POTCAR:    PAW_PBE Pt 04Feb2005                  
 POTCAR:    PAW_PBE Fe 06Sep2000                  
 POTCAR:    PAW_PBE Co 02Aug2007                  
 POTCAR:    PAW_PBE Cu 22Jun2005                  
 POTCAR:    PAW_PBE Ni 02Aug2007                  
 POTCAR:    PAW_PBE H 15Jun2001                   
 POTCAR:    PAW_PBE Pt 04Feb2005                  
   VRHFIN =Pt: s1d9                                                             
   LEXCH  = PE                                                                  
   EATOM  =   729.1176 eV,   53.5886 Ry                                         
                                                                                
   TITEL  = PAW_PBE Pt 04Feb2005                                                
   LULTRA =        F    use ultrasoft PP ?                                      
   IUNSCR =        1    unscreen: 0-lin 1-nonlin 2-no                           
   RPACOR =    2.330    partial core radius                                     
   POMASS =  195.080; ZVAL   =   10.000    mass and valenz                      
   RCORE  =    2.600    outmost cutoff radius                                   
   RWIGS  =    2.750; RWIGS  =    1.455    wigner-seitz radius (au A)           
   ENMAX  =  230.283; ENMIN  =  172.712 eV                                      
   ICORE  =        3    local potential                                         
   LCOR   =        T    correct aug charges                                     
   LPAW   =        T    paw PP                                                  
   EAUG   =  358.966                                                            
   DEXC   =    0.000                                                            
   RMAX   =    2.658    core radius for proj-oper                               
   RAUG   =    1.300    factor for augmentation sphere                          
   RDEP   =    2.761    radius for radial grids                                 
   RDEPT  =    2.203    core radius for aug-charge                              
                                                                                
   Atomic configuration                                                         
   16 entries                                                                   
     n  l   j            E        occ.                                          
     1  0  0.50    -78401.1885   2.0000                                         
     2  0  0.50    -13770.7750   2.0000                                         
     2  1  1.50    -11931.0468   6.0000                                         
     3  0  0.50     -3234.7234   2.0000                                         
     3  1  1.50     -2699.2216   6.0000                                         
     3  2  2.50     -2119.5714  10.0000                                         
     4  0  0.50      -695.1528   2.0000                                         
     4  1  1.50      -519.6034   6.0000                                         
     4  2  2.50      -306.6786  10.0000                                         
     4  3  3.50       -70.1041  14.0000                                         
     5  0  0.50      -101.7747   2.0000                                         
     5  1  1.50       -55.9873   6.0000                                         
     5  2  2.50        -6.1423   9.0000                                         
     6  0  0.50        -5.6573   1.0000                                         
     6  1  1.50        -6.8029   0.0000                                         
     5  3  2.50        -1.3606   0.0000                                         
   Description                                                                  
     l       E           TYP  RCUT    TYP  RCUT                                 
     2     -6.1423404     23  2.500                                             
     2     -7.5029230     23  2.500                                             
     0     -5.6573207     23  2.500                                             
     0      0.7416693     23  2.500                                             
     1     -2.7211652     23  2.600                                             
     1     20.4087390     23  2.600                                             
     3     -1.3605826     23  2.500                                             
  local pseudopotential read in
  partial core-charges read in
  partial kinetic energy density read in
  atomic valenz-charges read in
  non local Contribution for L=           2  read in
    real space projection operators read in
  non local Contribution for L=           2  read in
    real space projection operators read in
  non local Contribution for L=           0  read in
    real space projection operators read in
  non local Contribution for L=           0  read in
    real space projection operators read in
  non local Contribution for L=           1  read in
    real space projection operators read in
  non local Contribution for L=           1  read in
    real space projection operators read in
    PAW grid and wavefunctions read in
 
   number of l-projection  operators is LMAX  =           6
   number of lm-projection operators is LMMAX =          18
 
 POTCAR:    PAW_PBE Fe 06Sep2000                  
   VRHFIN =Fe:  d7 s1                                                           
   LEXCH  = PE                                                                  
   EATOM  =   594.3153 eV,   43.6809 Ry                                         
                                                                                
   TITEL  = PAW_PBE Fe 06Sep2000                                                
   LULTRA =        F    use ultrasoft PP ?                                      
   IUNSCR =        1    unscreen: 0-lin 1-nonlin 2-no                           
   RPACOR =    2.000    partial core radius                                     
   POMASS =   55.847; ZVAL   =    8.000    mass and valenz                      
   RCORE  =    2.300    outmost cutoff radius                                   
   RWIGS  =    2.460; RWIGS  =    1.302    wigner-seitz radius (au A)           
   ENMAX  =  267.882; ENMIN  =  200.911 eV                                      
   RCLOC  =    1.701    cutoff for local pot                                    
   LCOR   =        T    correct aug charges                                     
   LPAW   =        T    paw PP                                                  
   EAUG   =  511.368                                                            
   DEXC   =    0.000                                                            
   RMAX   =    2.356    core radius for proj-oper                               
   RAUG   =    1.300    factor for augmentation sphere                          
   RDEP   =    2.442    radius for radial grids                                 
   RDEPT  =    1.890    core radius for aug-charge                              
                                                                                
   Atomic configuration                                                         
    9 entries                                                                   
     n  l   j            E        occ.                                          
     1  0  0.50     -6993.8440   2.0000                                         
     2  0  0.50      -814.6047   2.0000                                         
     2  1  1.50      -693.3689   6.0000                                         
     3  0  0.50       -89.4732   2.0000                                         
     3  1  1.50       -55.6373   6.0000                                         
     3  2  2.50        -3.8151   7.0000                                         
     4  0  0.50        -4.2551   1.0000                                         
     4  1  1.50        -3.4015   0.0000                                         
     4  3  2.50        -1.3606   0.0000                                         
   Description                                                                  
     l       E           TYP  RCUT    TYP  RCUT                                 
     2     -3.8151135     23  2.300                                             
     2     -5.1756961     23  2.300                                             
     0     -4.2550963     23  2.300                                             
     0      7.2035603     23  2.300                                             
     1     -2.7211652     23  2.300                                             
     1     18.4316424     23  2.300                                             
  local pseudopotential read in
  partial core-charges read in
  partial kinetic energy density read in
  atomic valenz-charges read in
  non local Contribution for L=           2  read in
    real space projection operators read in
  non local Contribution for L=           2  read in
    real space projection operators read in
  non local Contribution for L=           0  read in
    real space projection operators read in
  non local Contribution for L=           0  read in
    real space projection operators read in
  non local Contribution for L=           1  read in
    real space projection operators read in
  non local Contribution for L=           1  read in
    real space projection operators read in
    PAW grid and wavefunctions read in
 
   number of l-projection  operators is LMAX  =           6
   number of lm-projection operators is LMMAX =          18
 
 POTCAR:    PAW_PBE Co 02Aug2007                  
   VRHFIN =Co: d8 s1                                                            
   LEXCH  = PE                                                                  
   EATOM  =   813.3670 eV,   59.7808 Ry                                         
                                                                                
   TITEL  = PAW_PBE Co 02Aug2007                                                
   LULTRA =        F    use ultrasoft PP ?                                      
   IUNSCR =        1    unscreen: 0-lin 1-nonlin 2-no                           
   RPACOR =    2.000    partial core radius                                     
   POMASS =   58.933; ZVAL   =    9.000    mass and valenz                      
   RCORE  =    2.300    outmost cutoff radius                                   
   RWIGS  =    2.460; RWIGS  =    1.302    wigner-seitz radius (au A)           
   ENMAX  =  267.968; ENMIN  =  200.976 eV                                      
   RCLOC  =    1.203    cutoff for local pot                                    
   LCOR   =        T    correct aug charges                                     
   LPAW   =        T    paw PP                                                  
   EAUG   =  477.818                                                            
   DEXC   =    0.000                                                            
   RMAX   =    2.360    core radius for proj-oper                               
   RAUG   =    1.300    factor for augmentation sphere                          
   RDEP   =    2.393    radius for radial grids                                 
   RDEPT  =    1.864    core radius for aug-charge                              
                                                                                
   Atomic configuration                                                         
    9 entries                                                                   
     n  l   j            E        occ.                                          
     1  0  0.50     -7587.6674   2.0000                                         
     2  0  0.50      -893.6084   2.0000                                         
     2  1  1.50      -764.5805   6.0000                                         
     3  0  0.50       -97.5973   2.0000                                         
     3  1  1.50       -60.9648   6.0000                                         
     3  2  2.50        -4.2382   8.0000                                         
     4  0  0.50        -4.3746   1.0000                                         
     4  1  1.50        -4.0817   0.0000                                         
     4  3  2.50        -1.3606   0.0000                                         
   Description                                                                  
     l       E           TYP  RCUT    TYP  RCUT                                 
     2     -4.2382362     23  2.300                                             
     2     -5.5988188     23  2.300                                             
     0     -4.3745797     23  2.300                                             
     0      5.7660125     23  2.300                                             
     1     -2.7211652     23  2.300                                             
     1     16.9860234     23  2.300                                             
  local pseudopotential read in
  partial core-charges read in
  partial kinetic energy density read in
  atomic valenz-charges read in
  non local Contribution for L=           2  read in
    real space projection operators read in
  non local Contribution for L=           2  read in
    real space projection operators read in
  non local Contribution for L=           0  read in
    real space projection operators read in
  non local Contribution for L=           0  read in
    real space projection operators read in
  non local Contribution for L=           1  read in
    real space projection operators read in
  non local Contribution for L=           1  read in
    real space projection operators read in
    PAW grid and wavefunctions read in
 
   number of l-projection  operators is LMAX  =           6
   number of lm-projection operators is LMMAX =          18
 
 POTCAR:    PAW_PBE Cu 22Jun2005                  
   VRHFIN =Cu: d10 p1                                                           
   LEXCH  = PE                                                                  
   EATOM  =  1390.9808 eV,  102.2342 Ry                                         
                                                                                
   TITEL  = PAW_PBE Cu 22Jun2005                                                
   LULTRA =        F    use ultrasoft PP ?                                      
   IUNSCR =        1    unscreen: 0-lin 1-nonlin 2-no                           
   RPACOR =    2.000    partial core radius                                     
   POMASS =   63.546; ZVAL   =   11.000    mass and valenz                      
   RCORE  =    2.300    outmost cutoff radius                                   
   RWIGS  =    2.200; RWIGS  =    1.164    wigner-seitz radius (au A)           
   ENMAX  =  295.446; ENMIN  =  221.585 eV                                      
   ICORE  =        3    local potential                                         
   LCOR   =        T    correct aug charges                                     
   LPAW   =        T    paw PP                                                  
   EAUG   =  586.980                                                            
   DEXC   =    0.000                                                            
   RMAX   =    2.344    core radius for proj-oper                               
   RAUG   =    1.300    factor for augmentation sphere                          
   RDEP   =    2.302    radius for radial grids                                 
   RDEPT  =    1.771    core radius for aug-charge                              
                                                                                
   Atomic configuration                                                         
    9 entries                                                                   
     n  l   j            E        occ.                                          
     1  0  0.50     -8850.2468   2.0000                                         
     2  0  0.50     -1062.3498   2.0000                                         
     2  1  1.50      -916.8226   6.0000                                         
     3  0  0.50      -114.6929   2.0000                                         
     3  1  1.50       -72.1325   6.0000                                         
     3  2  2.50        -5.0394  10.0000                                         
     4  0  0.50        -4.6097   1.0000                                         
     4  1  0.50        -4.0817   0.0000                                         
     4  3  2.50        -1.3606   0.0000                                         
   Description                                                                  
     l       E           TYP  RCUT    TYP  RCUT                                 
     2     -5.0393973     23  2.200                                             
     2     10.8846608     23  2.200                                             
     0     -4.6097109     23  2.200                                             
     0      8.2520465     23  2.200                                             
     1     -2.7211652     23  2.200                                             
     1     21.7055443     23  2.200                                             
     3      2.7211652     23  2.300                                             
  local pseudopotential read in
  partial core-charges read in
  partial kinetic energy density read in
  atomic valenz-charges read in
  non local Contribution for L=           2  read in
    real space projection operators read in
  non local Contribution for L=           2  read in
    real space projection operators read in
  non local Contribution for L=           0  read in
    real space projection operators read in
  non local Contribution for L=           0  read in
    real space projection operators read in
  non local Contribution for L=           1  read in
    real space projection operators read in
  non local Contribution for L=           1  read in
    real space projection operators read in
    PAW grid and wavefunctions read in
 
   number of l-projection  operators is LMAX  =           6
   number of lm-projection operators is LMMAX =          18
 
 POTCAR:    PAW_PBE Ni 02Aug2007                  
   VRHFIN =Ni:                                                                  
   LEXCH  = PE                                                                  
   EATOM  =  1077.6739 eV,   79.2068 Ry                                         
                                                                                
   TITEL  = PAW_PBE Ni 02Aug2007                                                
   LULTRA =        F    use ultrasoft PP ?                                      
   IUNSCR =        1    unscreen: 0-lin 1-nonlin 2-no                           
   RPACOR =    2.000    partial core radius                                     
   POMASS =   58.690; ZVAL   =   10.000    mass and valenz                      
   RCORE  =    2.300    outmost cutoff radius                                   
   RWIGS  =    2.430; RWIGS  =    1.286    wigner-seitz radius (au A)           
   ENMAX  =  269.532; ENMIN  =  202.149 eV                                      
   RCLOC  =    1.201    cutoff for local pot                                    
   LCOR   =        T    correct aug charges                                     
   LPAW   =        T    paw PP                                                  
   EAUG   =  544.565                                                            
   DEXC   =    0.000                                                            
   RMAX   =    2.357    core radius for proj-oper                               
   RAUG   =    1.300    factor for augmentation sphere                          
   RDEP   =    2.390    radius for radial grids                                 
   RDEPT  =    1.838    core radius for aug-charge                              
                                                                                
   Atomic configuration                                                         
    9 entries                                                                   
     n  l   j            E        occ.                                          
     1  0  0.50     -8206.4253   2.0000                                         
     2  0  0.50      -976.1748   2.0000                                         
     2  1  1.50      -839.0571   6.0000                                         
     3  0  0.50      -105.9991   2.0000                                         
     3  1  1.50       -66.4603   6.0000                                         
     3  2  2.50        -4.6458   9.0000                                         
     4  0  0.50        -4.4926   1.0000                                         
     4  1  1.50        -4.0817   0.0000                                         
     4  3  2.50        -1.3606   0.0000                                         
   Description                                                                  
     l       E           TYP  RCUT    TYP  RCUT                                 
     2     -4.6457903     23  2.300                                             
     2     -6.0063729     23  2.300                                             
     0     -4.4925590     23  2.300                                             
     0      5.0102601     23  2.300                                             
     1     -2.7211652     23  2.300                                             
     1     16.5183231     23  2.300                                             
  local pseudopotential read in
  partial core-charges read in
  partial kinetic energy density read in
  atomic valenz-charges read in
  non local Contribution for L=           2  read in
    real space projection operators read in
  non local Contribution for L=           2  read in
    real space projection operators read in
  non local Contribution for L=           0  read in
    real space projection operators read in
  non local Contribution for L=           0  read in
    real space projection operators read in
  non local Contribution for L=           1  read in
    real space projection operators read in
  non local Contribution for L=           1  read in
    real space projection operators read in
    PAW grid and wavefunctions read in
 
   number of l-projection  operators is LMAX  =           6
   number of lm-projection operators is LMMAX =          18
 
 POTCAR:    PAW_PBE H 15Jun2001                   
   VRHFIN =H: ultrasoft test                                                    
   LEXCH  = PE                                                                  
   EATOM  =    12.4884 eV,    0.9179 Ry                                         
                                                                                
   TITEL  = PAW_PBE H 15Jun2001                                                 
   LULTRA =        F    use ultrasoft PP ?                                      
   IUNSCR =        0    unscreen: 0-lin 1-nonlin 2-no                           
   RPACOR =    0.000    partial core radius                                     
   POMASS =    1.000; ZVAL   =    1.000    mass and valenz                      
   RCORE  =    1.100    outmost cutoff radius                                   
   RWIGS  =    0.700; RWIGS  =    0.370    wigner-seitz radius (au A)           
   ENMAX  =  250.000; ENMIN  =  200.000 eV                                      
   RCLOC  =    0.701    cutoff for local pot                                    
   LCOR   =        T    correct aug charges                                     
   LPAW   =        T    paw PP                                                  
   EAUG   =  400.000                                                            
   RMAX   =    1.123    core radius for proj-oper                               
   RAUG   =    1.200    factor for augmentation sphere                          
   RDEP   =    1.112    radius for radial grids                                 
   RDEPT  =    0.926    core radius for aug-charge                              
                                                                                
   Atomic configuration                                                         
    2 entries                                                                   
     n  l   j            E        occ.                                          
     1  0  0.50        -6.4927   1.0000                                         
     2  1  0.50        -3.4015   0.0000                                         
   Description                                                                  
     l       E           TYP  RCUT    TYP  RCUT                                 
     0     -6.4927494     23  1.100                                             
     0      6.8029130     23  1.100                                             
     1     -4.0817478     23  1.100                                             
  local pseudopotential read in
  atomic valenz-charges read in
  non local Contribution for L=           0  read in
    real space projection operators read in
  non local Contribution for L=           0  read in
    real space projection operators read in
  non local Contribution for L=           1  read in
    real space projection operators read in
    PAW grid and wavefunctions read in
 
   number of l-projection  operators is LMAX  =           3
   number of lm-projection operators is LMMAX =           5
 
 Optimization of the real space projectors (new method)

 maximal supplied QI-value         = 14.36
 optimisation between [QCUT,QGAM] = [ 11.92, 23.98] = [ 39.79,161.09] Ry 
 Optimized for a Real-space Cutoff    1.49 Angstroem

   l    n(q)    QCUT    max X(q) W(low)/X(q) W(high)/X(q)  e(spline) 
   2     10    11.920    66.195    0.79E-04    0.18E-03    0.24E-06
   2     10    11.920    64.643    0.81E-04    0.19E-03    0.24E-06
   0     11    11.920    95.520    0.28E-04    0.54E-04    0.18E-06
   0     11    11.920    63.403    0.27E-04    0.52E-04    0.17E-06
   1     10    11.920    19.961    0.18E-04    0.11E-03    0.23E-06
   1     10    11.920    13.289    0.25E-04    0.87E-04    0.19E-06
 Optimization of the real space projectors (new method)

 maximal supplied QI-value         = 16.25
 optimisation between [QCUT,QGAM] = [ 11.86, 23.89] = [ 39.41,159.82] Ry 
 Optimized for a Real-space Cutoff    1.49 Angstroem

   l    n(q)    QCUT    max X(q) W(low)/X(q) W(high)/X(q)  e(spline) 
   2     10    11.864    80.901    0.13E-03    0.23E-03    0.37E-06
   2     10    11.864    75.754    0.13E-03    0.23E-03    0.38E-06
   0     11    11.864    58.752    0.44E-04    0.11E-04    0.20E-06
   0     11    11.864    30.679    0.36E-04    0.10E-04    0.18E-06
   1     10    11.864    17.977    0.31E-04    0.45E-04    0.10E-06
   1     10    11.864    13.559    0.25E-04    0.37E-04    0.89E-07
 Optimization of the real space projectors (new method)

 maximal supplied QI-value         = 16.25
 optimisation between [QCUT,QGAM] = [ 11.86, 23.89] = [ 39.41,159.82] Ry 
 Optimized for a Real-space Cutoff    1.33 Angstroem

   l    n(q)    QCUT    max X(q) W(low)/X(q) W(high)/X(q)  e(spline) 
   2      9    11.864    65.824    0.22E-03    0.53E-03    0.26E-06
   2      9    11.864    61.429    0.22E-03    0.53E-03    0.26E-06
   0      9    11.864    56.174    0.21E-03    0.32E-04    0.15E-06
   0      9    11.864    31.263    0.19E-03    0.30E-04    0.14E-06
   1      9    11.864    19.828    0.63E-04    0.30E-03    0.16E-06
   1      9    11.864    15.139    0.49E-04    0.25E-03    0.13E-06
 Optimization of the real space projectors (new method)

 maximal supplied QI-value         = 16.25
 optimisation between [QCUT,QGAM] = [ 11.86, 23.89] = [ 39.41,159.82] Ry 
 Optimized for a Real-space Cutoff    1.49 Angstroem

   l    n(q)    QCUT    max X(q) W(low)/X(q) W(high)/X(q)  e(spline) 
   2     10    11.864     4.610    0.10E-03    0.20E-03    0.29E-06
   2     10    11.864     8.522    0.17E-03    0.33E-03    0.50E-06
   0     11    11.864    51.609    0.52E-04    0.55E-04    0.33E-06
   0     11    11.864    27.747    0.46E-04    0.52E-04    0.31E-06
   1     10    11.864    20.408    0.54E-04    0.25E-04    0.21E-06
   1     10    11.864    13.425    0.48E-04    0.22E-04    0.18E-06
 Optimization of the real space projectors (new method)

 maximal supplied QI-value         = 16.25
 optimisation between [QCUT,QGAM] = [ 11.86, 23.89] = [ 39.41,159.82] Ry 
 Optimized for a Real-space Cutoff    1.33 Angstroem

   l    n(q)    QCUT    max X(q) W(low)/X(q) W(high)/X(q)  e(spline) 
   2      9    11.864    60.317    0.21E-03    0.51E-03    0.25E-06
   2      9    11.864    55.921    0.21E-03    0.51E-03    0.26E-06
   0      9    11.864    51.690    0.22E-03    0.30E-04    0.17E-06
   0      9    11.864    30.015    0.20E-03    0.28E-04    0.15E-06
   1      9    11.864    18.849    0.76E-04    0.33E-03    0.17E-06
   1      9    11.864    14.624    0.60E-04    0.28E-03    0.15E-06
 Optimization of the real space projectors (new method)

 maximal supplied QI-value         = 34.20
 optimisation between [QCUT,QGAM] = [ 11.97, 23.94] = [ 40.13,160.53] Ry 
 Optimized for a Real-space Cutoff    1.18 Angstroem

   l    n(q)    QCUT    max X(q) W(low)/X(q) W(high)/X(q)  e(spline) 
   0      8    11.971    19.460    0.15E-03    0.31E-03    0.25E-06
   0      8    11.971    12.209    0.13E-03    0.29E-03    0.25E-06
   1      8    11.971     4.655    0.22E-03    0.24E-03    0.21E-06
  PAW_PBE Pt 04Feb2005                  :
 energy of atom  1       EATOM= -729.1176
 kinetic energy error for atom=    0.0021 (will be added to EATOM!!)
  PAW_PBE Fe 06Sep2000                  :
 energy of atom  2       EATOM= -594.3153
 kinetic energy error for atom=    0.0024 (will be added to EATOM!!)
  PAW_PBE Co 02Aug2007                  :
 energy of atom  3       EATOM= -813.3670
 kinetic energy error for atom=    0.0026 (will be added to EATOM!!)
  PAW_PBE Cu 22Jun2005                  :
 energy of atom  4       EATOM=-1390.9808
 kinetic energy error for atom=    0.0036 (will be added to EATOM!!)
  PAW_PBE Ni 02Aug2007                  :
 energy of atom  5       EATOM=-1077.6739
 kinetic energy error for atom=    0.0027 (will be added to EATOM!!)
  PAW_PBE H 15Jun2001                   :
 energy of atom  6       EATOM=  -12.4884
 kinetic energy error for atom=    0.0008 (will be added to EATOM!!)
 
 
 POSCAR: 11.26-high                              
  positions in cartesian coordinates
  No initial velocities read in
 exchange correlation table for  LEXCH =        8
   RHO(1)=    0.500       N(1)  =     2000
   RHO(2)=  100.500       N(2)  =     4000
 


--------------------------------------------------------------------------------------------------------


 ion  position               nearest neighbor table
   1  0.776  0.870  0.315-  56 2.60  32 2.67  15 2.73  33 2.76  65 2.77  23 2.78  40 2.79   8 2.81
                            16 2.82  41 2.87   3 2.89   2 2.91
   2  0.036  0.870  0.315-  79 2.64  38 2.64  32 2.73   8 2.76  26 2.76  10 2.77  20 2.80  34 2.82
                            41 2.82  58 2.83   3 2.84   1 2.91
   3  0.036  0.616  0.313-  50 2.58  68 2.63  32 2.69   4 2.80   6 2.81   9 2.82  20 2.83   2 2.84
                            33 2.84  16 2.87  34 2.87   1 2.89
   4  0.028  0.371  0.319-  50 2.61  36 2.68  42 2.70  11 2.73  77 2.77   9 2.78  14 2.78   3 2.80
                            33 2.81  26 2.83   6 2.89   5 2.96
   5  0.290  0.106  0.319-  61 2.55  36 2.68  39 2.69  58 2.69  12 2.70  65 2.77  26 2.77  14 2.79
                            17 2.79  23 2.80   6 2.91   4 2.96
   6  0.287  0.367  0.317-  68 2.60  71 2.63  36 2.71  23 2.75  29 2.77  17 2.80   9 2.80   3 2.81
                            34 2.86   4 2.89  22 2.90   5 2.91
   7  0.860  0.689  0.125-  74 2.52  43 2.54  45 2.59  55 2.63  60 2.65  50 2.65  56 2.66  32 2.70
                            72 2.71  25 2.83  64 3.07
   8  0.868  0.952  0.417-   2 2.76  16 2.79  41 2.81  20 2.81   1 2.81  21 2.82  13 2.82  15 2.83
                            10 2.85
   9  0.115  0.456  0.420-  20 2.76   4 2.78  16 2.78  11 2.79   6 2.80  29 2.81   3 2.82  14 2.84
                            17 2.90
  10  0.124  0.948  0.417-  81 1.57  58 2.67  26 2.75   2 2.77  12 2.77  18 2.77  14 2.81  20 2.81
                             8 2.85  13 2.88
  11  0.869  0.449  0.421-  77 2.72   4 2.73  19 2.74  13 2.77  14 2.79   9 2.79  33 2.82  31 2.83
                            16 2.85
  12  0.372  0.946  0.419-  58 2.69   5 2.70  65 2.71  18 2.71  31 2.75  10 2.77  15 2.77  17 2.81
                            14 2.85
  13  0.867  0.204  0.416-  77 2.71  26 2.76  11 2.77  41 2.77  21 2.78  19 2.79  14 2.82   8 2.82
                            10 2.88
  14  0.119  0.201  0.420-   4 2.78   5 2.79  11 2.79  26 2.81  17 2.81  10 2.81  13 2.82   9 2.84
                            12 2.85
  15  0.619  0.947  0.418-   1 2.73  65 2.75  16 2.76  31 2.77  12 2.77  17 2.78  23 2.80   8 2.83
                            21 2.90
  16  0.867  0.704  0.420-  15 2.76  33 2.77   9 2.78  20 2.79   8 2.79   1 2.82  31 2.82  11 2.85
                             3 2.87
  17  0.372  0.196  0.420-  23 2.75  15 2.78   5 2.79   6 2.80  12 2.81  14 2.81  21 2.82  29 2.85
                             9 2.90
  18  0.373  0.703  0.418-  51 2.62  58 2.68  12 2.71  31 2.73  34 2.74  10 2.77  19 2.78  29 2.85
                            20 2.89
  19  0.622  0.457  0.419-  51 2.65  77 2.66  31 2.72  22 2.73  11 2.74  18 2.78  13 2.79  21 2.84
                            29 2.88
  20  0.117  0.701  0.419-  81 1.77   9 2.76  34 2.78  16 2.79  29 2.79   2 2.80   8 2.81  10 2.81
                             3 2.83  18 2.89
  21  0.619  0.205  0.417-  22 2.75  23 2.77  13 2.78  41 2.79  29 2.81   8 2.82  17 2.82  19 2.84
                            15 2.90
  22  0.541  0.376  0.318-  70 2.60  71 2.65  30 2.65  77 2.67  51 2.71  19 2.73  21 2.75  34 2.79
                            41 2.80  29 2.81   6 2.90  23 2.91
  23  0.531  0.121  0.317-  71 2.65  40 2.70  39 2.75  17 2.75   6 2.75  21 2.77   1 2.78  15 2.80
                             5 2.80  41 2.84  22 2.91  65 2.94
  24  0.544  0.120  0.050-  46 2.53  63 2.54  55 2.60  43 2.70  66 2.73  54 2.84  62 2.84  52 2.87
                            67 2.92
  25  0.114  0.439  0.123-  54 2.49  48 2.53  45 2.58  36 2.70  73 2.70  63 2.75  50 2.75  68 2.78
                             7 2.83  72 2.85  64 2.94  76 3.11
  26  0.039  0.114  0.316-  79 2.55  61 2.63  42 2.66  10 2.75   2 2.76  13 2.76   5 2.77  58 2.79
                            14 2.81  41 2.82   4 2.83  77 2.96
  27  0.024  0.132  0.037-  48 2.54  49 2.59  73 2.61  28 2.65  78 2.71  59 2.73  66 2.74  52 2.92
                            44 3.11
  28  0.115  0.958  0.130-  59 2.54  79 2.58  44 2.59  38 2.63  27 2.65  61 2.66  69 2.68  73 2.69
                            47 2.79  49 2.84  35 2.87  64 2.93
  29  0.367  0.453  0.420-   6 2.77  34 2.77  20 2.79  21 2.81   9 2.81  22 2.81  18 2.85  17 2.85
                            19 2.88
  30  0.456  0.540  0.221-  76 2.51  57 2.56  22 2.65  34 2.67  37 2.72  51 2.73  35 2.73  80 2.74
                            71 2.76  38 2.79  70 2.79  68 2.85
  31  0.618  0.701  0.421-  51 2.67  65 2.71  19 2.72  18 2.73  33 2.75  12 2.75  15 2.77  16 2.82
                            11 2.83
  32  0.941  0.791  0.218-  64 2.57  69 2.60   1 2.67   3 2.69   7 2.70   2 2.73  56 2.78  40 2.87
                            50 2.87  79 2.91  68 3.02  38 3.04
  33  0.780  0.623  0.318-  56 2.60  37 2.62  50 2.63  65 2.69  77 2.74  31 2.75  51 2.75   1 2.76
                            16 2.77   4 2.81  11 2.82   3 2.84
  34  0.289  0.621  0.318-  38 2.66  30 2.67  68 2.73  18 2.74  58 2.76  51 2.77  29 2.77  20 2.78
                            22 2.79   2 2.82   6 2.86   3 2.87
  35  0.377  0.709  0.122-  53 2.48  75 2.55  59 2.60  47 2.62  60 2.68  30 2.73  80 2.74  38 2.75
                            57 2.85  76 2.87  28 2.87  64 2.87
  36  0.198  0.277  0.223-  73 2.54  63 2.54   4 2.68   5 2.68  25 2.70   6 2.71  61 2.76  42 2.81
                            68 2.83  50 2.84  39 2.91  71 2.97
  37  0.694  0.548  0.222-  72 2.55  60 2.56  57 2.60  33 2.62  56 2.63  80 2.66  51 2.70  77 2.70
                            30 2.72  50 2.75  70 2.82  42 2.88
  38  0.211  0.792  0.224-  64 2.58  58 2.58  61 2.62  28 2.63   2 2.64  34 2.66  80 2.70  35 2.75
                            30 2.79  79 2.85  68 3.02  32 3.04
  39  0.456  0.016  0.221-  47 2.49  55 2.60  80 2.62  63 2.64  65 2.65  61 2.65   5 2.69  56 2.69
                            23 2.75  40 2.78  36 2.91  71 3.11
  40  0.686  0.047  0.215-  46 2.52  69 2.55  55 2.59  23 2.70  71 2.71  41 2.74  39 2.78   1 2.79
                            70 2.86  32 2.87  56 2.93  79 2.99
  41  0.784  0.121  0.313-  70 2.56  79 2.59  40 2.74  13 2.77  21 2.79  22 2.80   8 2.81  26 2.82
                             2 2.82  23 2.84   1 2.87  77 2.87
  42  0.943  0.286  0.222-  49 2.49  72 2.55  70 2.65  26 2.66  79 2.67  73 2.68   4 2.70  77 2.70
                            50 2.78  36 2.81  37 2.88  61 3.01
  43  0.787  0.882  0.049-  55 2.41  69 2.50   7 2.54  44 2.64  24 2.70  66 2.72  45 2.88  67 2.95

  44  0.036  0.851  0.047-  45 2.41  69 2.53  64 2.55  28 2.59  43 2.64  75 2.68  59 3.07  27 3.11

  45  0.048  0.630  0.044-  44 2.41  75 2.46  64 2.49  25 2.58   7 2.59  54 2.82  43 2.88
  46  0.621  0.226  0.132-  70 2.50  62 2.51  57 2.51  40 2.52  24 2.53  66 2.58  76 2.58  71 2.59
                            49 2.65  69 2.81  63 2.90
  47  0.371  0.944  0.131-  59 2.38  52 2.40  39 2.49  67 2.54  61 2.56  35 2.62  80 2.62  60 2.68
                            73 2.76  55 2.77  28 2.79
  48  0.994  0.372  0.045-  72 2.33  78 2.48  74 2.51  25 2.53  27 2.54  73 2.62
  49  0.863  0.212  0.131-  78 2.43  42 2.49  66 2.56  70 2.57  27 2.59  79 2.61  72 2.63  69 2.64
                            46 2.65  57 2.68  28 2.84  73 2.86
  50  0.946  0.532  0.224-   3 2.58   4 2.61  33 2.63  72 2.64   7 2.65  37 2.75  25 2.75  56 2.78
                            42 2.78  36 2.84  32 2.87  68 2.92
  51  0.536  0.619  0.323-  18 2.62  80 2.65  19 2.65  31 2.67  65 2.67  77 2.70  37 2.70  22 2.71
                            30 2.73  33 2.75  34 2.77  58 2.77
  52  0.294  0.109  0.050-  47 2.40  73 2.40  59 2.41  63 2.57  67 2.71  24 2.87  27 2.92
  53  0.565  0.596  0.047-  74 2.34  57 2.36  60 2.45  35 2.48  78 2.49  62 2.65  67 2.86
  54  0.304  0.384  0.050-  76 2.31  75 2.43  25 2.49  63 2.55  62 2.58  45 2.82  24 2.84
  55  0.628  0.924  0.130-  43 2.41  56 2.46  67 2.47  60 2.47  40 2.59  39 2.60  24 2.60   7 2.63
                            47 2.77
  56  0.699  0.780  0.223-  55 2.46  60 2.53  33 2.60   1 2.60  37 2.63  65 2.65   7 2.66  39 2.69
                            80 2.72  50 2.78  32 2.78  40 2.93
  57  0.622  0.449  0.131-  53 2.36  78 2.44  46 2.51  62 2.53  70 2.55  30 2.56  37 2.60  72 2.63
                            76 2.65  49 2.68  35 2.85  60 2.89
  58  0.289  0.866  0.320-  61 2.56  38 2.58  80 2.60  10 2.67  18 2.68  12 2.69   5 2.69  65 2.72
                            34 2.76  51 2.77  26 2.79   2 2.83
  59  0.279  0.903  0.041-  47 2.38  52 2.41  28 2.54  35 2.60  67 2.66  27 2.73  44 3.07
  60  0.614  0.710  0.130-  53 2.45  55 2.47  67 2.48  74 2.50  56 2.53  37 2.56  80 2.64   7 2.65
                            35 2.68  47 2.68  72 2.82  57 2.89
  61  0.217  0.022  0.226-   5 2.55  47 2.56  58 2.56  38 2.62  26 2.63  39 2.65  28 2.66  73 2.66
                            80 2.68  36 2.76  79 2.84  42 3.01
  62  0.536  0.376  0.040-  76 2.49  46 2.51  57 2.53  54 2.58  78 2.63  53 2.65  75 2.80  24 2.84

  63  0.370  0.211  0.137-  71 2.51  24 2.54  36 2.54  54 2.55  52 2.57  39 2.64  25 2.75  76 2.78
                            73 2.84  46 2.90
  64  0.133  0.690  0.137-  75 2.44  68 2.46  45 2.49  44 2.55  32 2.57  38 2.58  76 2.77  35 2.87
                            28 2.93  25 2.94   7 3.07
  65  0.535  0.858  0.319-  80 2.51  56 2.65  39 2.65  51 2.67  33 2.69  12 2.71  31 2.71  58 2.72
                            15 2.75   5 2.77   1 2.77  23 2.94
  66  0.784  0.126  0.040-  69 2.51  49 2.56  46 2.58  78 2.65  43 2.72  24 2.73  27 2.74
  67  0.533  0.866  0.041-  55 2.47  60 2.48  47 2.54  59 2.66  52 2.71  74 2.86  53 2.86  24 2.92
                            43 2.95
  68  0.211  0.523  0.221-  64 2.46   6 2.60  76 2.61   3 2.63  71 2.65  34 2.73  25 2.78  36 2.83
                            30 2.85  50 2.92  32 3.02  38 3.02
  69  0.869  0.974  0.132-  79 2.49  43 2.50  66 2.51  44 2.53  40 2.55  32 2.60  49 2.64  28 2.68
                            46 2.81
  70  0.705  0.291  0.225-  46 2.50  57 2.55  41 2.56  49 2.57  22 2.60  77 2.62  42 2.65  79 2.79
                            30 2.79  37 2.82  40 2.86
  71  0.453  0.295  0.224-  63 2.51  76 2.52  46 2.59   6 2.63  22 2.65  68 2.65  23 2.65  40 2.71
                            30 2.76  36 2.97  39 3.11
  72  0.856  0.450  0.131-  48 2.33  74 2.44  78 2.50  42 2.55  37 2.55  49 2.63  57 2.63  50 2.64
                             7 2.71  60 2.82  25 2.85  73 2.97
  73  0.127  0.192  0.131-  52 2.40  36 2.54  27 2.61  48 2.62  61 2.66  42 2.68  28 2.69  25 2.70
                            47 2.76  63 2.84  49 2.86  72 2.97
  74  0.773  0.598  0.042-  53 2.34  72 2.44  60 2.50  48 2.51   7 2.52  78 2.59  67 2.86
  75  0.275  0.613  0.046-  54 2.43  64 2.44  45 2.46  76 2.48  35 2.55  44 2.68  62 2.80
  76  0.385  0.450  0.132-  54 2.31  75 2.48  62 2.49  30 2.51  71 2.52  46 2.58  68 2.61  57 2.65
                            64 2.77  63 2.78  35 2.87  25 3.11
  77  0.777  0.380  0.320-  70 2.62  19 2.66  22 2.67  51 2.70  37 2.70  42 2.70  13 2.71  11 2.72
                            33 2.74   4 2.77  41 2.87  26 2.96
  78  0.776  0.366  0.044-  49 2.43  57 2.44  48 2.48  53 2.49  72 2.50  74 2.59  62 2.63  66 2.65
                            27 2.71
  79  0.954  0.043  0.223-  69 2.49  26 2.55  28 2.58  41 2.59  49 2.61   2 2.64  42 2.67  70 2.79
                            61 2.84  38 2.85  32 2.91  40 2.99
  80  0.455  0.784  0.227-  65 2.51  58 2.60  39 2.62  47 2.62  60 2.64  51 2.65  37 2.66  61 2.68
                            38 2.70  56 2.72  30 2.74  35 2.74
  81  0.133  0.830  0.458-  10 1.57  20 1.77
 
  LATTYP: Found a hexagonal cell.
 ALAT       =    11.2227001190
 C/A-ratio  =     1.9603125600
  
  Lattice vectors:
  
 A1 = (   5.6113500595,  -9.7191434021,   0.0000000000)
 A2 = ( -11.2227001190,   0.0000000000,   0.0000000000)
 A3 = (   0.0000000000,   0.0000000000, -22.0000000000)


Analysis of symmetry for initial positions (statically):
=====================================================================
 Subroutine PRICEL returns:
 Original cell was already a primitive cell.
 

 Routine SETGRP: Setting up the symmetry group for a 
 hexagonal supercell.


 Subroutine GETGRP returns: Found  1 space group operations
 (whereof  1 operations were pure point group operations)
 out of a pool of 24 trial point group operations.


The static configuration has the point symmetry C_1 .


Analysis of symmetry for dynamics (positions and initial velocities):
=====================================================================
 Subroutine PRICEL returns:
 Original cell was already a primitive cell.
 

 Routine SETGRP: Setting up the symmetry group for a 
 hexagonal supercell.


 Subroutine GETGRP returns: Found  1 space group operations
 (whereof  1 operations were pure point group operations)
 out of a pool of 24 trial point group operations.


The dynamic configuration has the point symmetry C_1 .


Analysis of constrained symmetry for selective dynamics:
=====================================================================
 Subroutine PRICEL returns:
 Original cell was already a primitive cell.
 

 Routine SETGRP: Setting up the symmetry group for a 
 hexagonal supercell.


 Subroutine GETGRP returns: Found  1 space group operations
 (whereof  1 operations were pure point group operations)
 out of a pool of 24 trial point group operations.


The constrained configuration has the point symmetry C_1 .


Analysis of structural, dynamic, and magnetic symmetry:
=====================================================================
 Subroutine PRICEL returns:
 Original cell was already a primitive cell.
 

 Routine SETGRP: Setting up the symmetry group for a 
 hexagonal supercell.


 Subroutine GETGRP returns: Found  1 space group operations
 (whereof  1 operations were pure point group operations)
 out of a pool of 24 trial point group operations.


The magnetic configuration has the point symmetry C_1 .


 Subroutine INISYM returns: Found  1 space group operations
 (whereof  1 operations are pure point group operations),
 and found     1 'primitive' translations

 
 
 KPOINTS: mesh auto                               

Automatic generation of k-mesh.
Space group operators:
 irot       det(A)        alpha          n_x          n_y          n_z        tau_x        tau_y        tau_z
    1     1.000000     0.000000     1.000000     0.000000     0.000000     0.000000     0.000000     0.000000
 
 Subroutine IBZKPT returns following result:
 ===========================================
 
 Found      4 irreducible k-points:
 
 Following reciprocal coordinates:
            Coordinates               Weight
  0.000000  0.000000  0.000000      1.000000
  0.500000  0.000000  0.000000      1.000000
  0.000000  0.500000  0.000000      1.000000
  0.500000  0.500000  0.000000      1.000000
 
 Following cartesian coordinates:
            Coordinates               Weight
  0.000000  0.000000  0.000000      1.000000
  0.044553 -0.025722  0.000000      1.000000
  0.000000  0.051445  0.000000      1.000000
  0.044553  0.025722  0.000000      1.000000
 


--------------------------------------------------------------------------------------------------------




 Dimension of arrays:
   k-points           NKPTS =      4   k-points in BZ     NKDIM =      4   number of bands    NBANDS=    588
   number of dos      NEDOS =    301   number of ions     NIONS =     81
   non local maximal  LDIM  =      6   non local SUM 2l+1 LMDIM =     18
   total plane-waves  NPLWV = ******
   max r-space proj   IRMAX =   7929   max aug-charges    IRDMAX=  34542
   dimension x,y,z NGX =    90 NGY =   90 NGZ =  168
   dimension x,y,z NGXF=   180 NGYF=  180 NGZF=  336
   support grid    NGXF=   180 NGYF=  180 NGZF=  336
   ions per type =              42  10   9  10   9   1
   NGX,Y,Z   is equivalent  to a cutoff of  13.33, 13.33, 12.70 a.u.
   NGXF,Y,Z  is equivalent  to a cutoff of  26.66, 26.66, 25.39 a.u.

 SYSTEM =  Pt111                                   
 POSCAR =  11.26-high                              

 Startparameter for this run:
   NWRITE =      2    write-flag & timer
   PREC   = accura    normal or accurate (medium, high low for compatibility)
   ISTART =      0    job   : 0-new  1-cont  2-samecut
   ICHARG =      2    charge: 1-file 2-atom 10-const
   ISPIN  =      2    spin polarized calculation?
   LNONCOLLINEAR =      F non collinear calculations
   LSORBIT =      F    spin-orbit coupling
   INIWAV =      1    electr: 0-lowe 1-rand  2-diag
   LASPH  =      F    aspherical Exc in radial PAW
   METAGGA=      F    non-selfconsistent MetaGGA calc.

 Electronic Relaxation 1
   ENCUT  =  550.0 eV  40.42 Ry    6.36 a.u.  21.46 21.46 42.07*2*pi/ulx,y,z
   ENINI  =  550.0     initial cutoff
   ENAUG  =  587.0 eV  augmentation charge cutoff
   NELM   =    200;   NELMIN=  2; NELMDL= -5     # of ELM steps 
   EDIFF  = 0.1E-04   stopping-criterion for ELM
   LREAL  =      T    real-space projection
   NLSPLINE    = F    spline interpolate recip. space projectors
   LCOMPAT=      F    compatible to vasp.4.4
   GGA_COMPAT  = T    GGA compatible to vasp.4.4-vasp.4.6
   LMAXPAW     = -100 max onsite density
   LMAXMIX     =    2 max onsite mixed and CHGCAR
   VOSKOWN=      0    Vosko Wilk Nusair interpolation
   ROPT   =   -0.00025  -0.00025  -0.00025  -0.00025
   ROPT   =   -0.00025  -0.00025
 Ionic relaxation
   EDIFFG = -.5E-01   stopping-criterion for IOM
   NSW    =    300    number of steps for IOM
   NBLOCK =      1;   KBLOCK =    300    inner block; outer block 
   IBRION =      2    ionic relax: 0-MD 1-quasi-New 2-CG
   NFREE  =      1    steps in history (QN), initial steepest desc. (CG)
   ISIF   =      2    stress and relaxation
   IWAVPR =     11    prediction:  0-non 1-charg 2-wave 3-comb
   ISYM   =      2    0-nonsym 1-usesym 2-fastsym
   LCORR  =      T    Harris-Foulkes like correction to forces

   POTIM  = 0.5000    time-step for ionic-motion
   TEIN   =    0.0    initial temperature
   TEBEG  =    0.0;   TEEND  =   0.0 temperature during run
   SMASS  =  -3.00    Nose mass-parameter (am)
   estimated Nose-frequenzy (Omega)   =  0.10E-29 period in steps =****** mass=  -0.288E-26a.u.
   SCALEE = 1.0000    scale energy and forces
   NPACO  =    256;   APACO  = 16.0  distance and # of slots for P.C.
   PSTRESS=    0.0 pullay stress

  Mass of Ions in am
   POMASS = 195.08 55.85 58.93 63.55 58.69  1.00
  Ionic Valenz
   ZVAL   =  10.00  8.00  9.00 11.00 10.00  1.00
  Atomic Wigner-Seitz radii
   RWIGS  =  -1.00 -1.00 -1.00 -1.00 -1.00 -1.00
  virtual crystal weights 
   VCA    =   1.00  1.00  1.00  1.00  1.00  1.00
   NELECT =     782.0000    total number of electrons
   NUPDOWN=      -1.0000    fix difference up-down

 DOS related values:
   EMIN   =  10.00;   EMAX   =-10.00  energy-range for DOS
   EFERMI =   0.00
   ISMEAR =     1;   SIGMA  =   0.10  broadening in eV -4-tet -1-fermi 0-gaus

 Electronic relaxation 2 (details)
   IALGO  =     68    algorithm
   LDIAG  =      T    sub-space diagonalisation (order eigenvalues)
   LSUBROT=      F    optimize rotation matrix (better conditioning)
   TURBO    =      0    0=normal 1=particle mesh
   IRESTART =      0    0=no restart 2=restart with 2 vectors
   NREBOOT  =      0    no. of reboots
   NMIN     =      0    reboot dimension
   EREF     =   0.00    reference energy to select bands
   IMIX   =      4    mixing-type and parameters
     AMIX     =   0.40;   BMIX     =  1.00
     AMIX_MAG =   1.60;   BMIX_MAG =  1.00
     AMIN     =   0.10
     WC   =   100.;   INIMIX=   1;  MIXPRE=   1;  MAXMIX= -45

 Intra band minimization:
   WEIMIN = 0.0010     energy-eigenvalue tresh-hold
   EBREAK =  0.43E-08  absolut break condition
   DEPER  =   0.30     relativ break condition  

   TIME   =   0.40     timestep for ELM

  volume/ion in A,a.u.               =      29.63       199.92
  Fermi-wavevector in a.u.,A,eV,Ry     =   1.126577  2.128923 17.268199  1.269177
  Thomas-Fermi vector in A             =   2.263260
 
 Write flags
   LWAVE        =      F    write WAVECAR
   LDOWNSAMPLE  =      F    k-point downsampling of WAVECAR
   LCHARG       =      F    write CHGCAR
   LVTOT        =      F    write LOCPOT, total local potential
   LVHAR        =      F    write LOCPOT, Hartree potential only
   LELF         =      F    write electronic localiz. function (ELF)
   LORBIT       =      0    0 simple, 1 ext, 2 COOP (PROOUT), +10 PAW based schemes


 Dipole corrections
   LMONO  =      F    monopole corrections only (constant potential shift)
   LDIPOL =      F    correct potential (dipole corrections)
   IDIPOL =      0    1-x, 2-y, 3-z, 4-all directions 
   EPSILON=  1.0000000 bulk dielectric constant

 Exchange correlation treatment:
   GGA     =    --    GGA type
   LEXCH   =     8    internal setting for exchange type
   VOSKOWN=      0    Vosko Wilk Nusair interpolation
   LHFCALC =     F    Hartree Fock is set to
   LHFONE  =     F    Hartree Fock one center treatment
   AEXX    =    0.0000 exact exchange contribution

 Linear response parameters
   LEPSILON=     F    determine dielectric tensor
   LRPA    =     F    only Hartree local field effects (RPA)
   LNABLA  =     F    use nabla operator in PAW spheres
   LVEL    =     F    velocity operator in full k-point grid
   LINTERFAST=   F  fast interpolation
   KINTER  =     0    interpolate to denser k-point grid
   CSHIFT  =0.1000    complex shift for real part using Kramers Kronig
   OMEGAMAX=  -1.0    maximum frequency
   DEG_THRESHOLD= 0.2000000E-02 threshold for treating states as degnerate
   RTIME   =   -0.100 relaxation time in fs
  (WPLASMAI=    0.000 imaginary part of plasma frequency in eV, 0.658/RTIME)
   DFIELD  = 0.0000000 0.0000000 0.0000000 field for delta impulse in time
 
 Orbital magnetization related:
   ORBITALMAG=     F  switch on orbital magnetization
   LCHIMAG   =     F  perturbation theory with respect to B field
   DQ        =  0.001000  dq finite difference perturbation B field
   LLRAUG    =     F  two centre corrections for induced B field



--------------------------------------------------------------------------------------------------------


 conjugate gradient relaxation of ions
   using selective dynamics as specified on POSCAR
   WARNING: If single coordinates had been selected the selection of coordinates
            is made according to the corresponding   d i r e c t   coordinates!
            Don't support selection of single cartesian coordinates -- sorry ...
  !
 charge density and potential will be updated during run
 spin polarized calculation
 RMM-DIIS sequential band-by-band and
  variant of blocked Davidson during initial phase
 perform sub-space diagonalisation
    before iterative eigenvector-optimisation
 modified Broyden-mixing scheme, WC =      100.0
 initial mixing is a Kerker type mixing with AMIX =  0.4000 and BMIX =      1.0000
 Hartree-type preconditioning will be used
 using additional bands          197
 real space projection scheme for non local part
 use partial core corrections
 calculate Harris-corrections to forces 
   (improved forces if not selfconsistent)
 use gradient corrections 
 use of overlap-Matrix (Vanderbilt PP)
 Methfessel and Paxton  Order N= 1 SIGMA  =   0.10


--------------------------------------------------------------------------------------------------------


  energy-cutoff  :      550.00
  volume of cell :     2399.65
      direct lattice vectors                 reciprocal lattice vectors
    11.222700119  0.000000000  0.000000000     0.089105116 -0.051444863  0.000000000
     5.611350060  9.719143402  0.000000000     0.000000000  0.102889726  0.000000000
     0.000000000  0.000000000 22.000000000     0.000000000  0.000000000  0.045454545

  length of vectors
    11.222700119 11.222700119 22.000000000     0.102889726  0.102889726  0.045454545


 
 k-points in units of 2pi/SCALE and weight: mesh auto                               
   0.00000000  0.00000000  0.00000000       0.250
   0.04455256 -0.02572243  0.00000000       0.250
   0.00000000  0.05144486  0.00000000       0.250
   0.04455256  0.02572243  0.00000000       0.250
 
 k-points in reciprocal lattice and weights: mesh auto                               
   0.00000000  0.00000000  0.00000000       0.250
   0.50000000  0.00000000  0.00000000       0.250
   0.00000000  0.50000000  0.00000000       0.250
   0.50000000  0.50000000  0.00000000       0.250
 
 position of ions in fractional coordinates (direct lattice) 
   0.77551039  0.87029343  0.31489763
   0.03552848  0.86958733  0.31521462
   0.03611674  0.61595997  0.31275700
   0.02784051  0.37112316  0.31869866
   0.28975230  0.10616768  0.31853699
   0.28698110  0.36722330  0.31740066
   0.86038307  0.68854678  0.12531565
   0.86806708  0.95216510  0.41659516
   0.11458037  0.45613766  0.41950765
   0.12440818  0.94794639  0.41696923
   0.86915414  0.44910361  0.42087557
   0.37203595  0.94583319  0.41851859
   0.86658090  0.20411262  0.41569842
   0.11889514  0.20124636  0.42016142
   0.61850413  0.94694871  0.41793545
   0.86736919  0.70402859  0.41964887
   0.37186656  0.19641300  0.41981000
   0.37327240  0.70346109  0.41802452
   0.62163745  0.45652190  0.41949004
   0.11706175  0.70103018  0.41857735
   0.61871204  0.20496206  0.41705886
   0.54104717  0.37595242  0.31775216
   0.53145895  0.12132428  0.31653821
   0.54420190  0.12019148  0.05044345
   0.11424052  0.43860757  0.12340508
   0.03909754  0.11400165  0.31584394
   0.02432533  0.13236688  0.03690154
   0.11521348  0.95848802  0.12979272
   0.36656411  0.45323750  0.41958540
   0.45574359  0.53965249  0.22135250
   0.61757372  0.70105854  0.42061681
   0.94101394  0.79056552  0.21791424
   0.77955751  0.62271187  0.31816488
   0.28927983  0.62053731  0.31785183
   0.37681260  0.70908830  0.12233112
   0.19804412  0.27712854  0.22298714
   0.69395409  0.54843935  0.22211682
   0.21076833  0.79187996  0.22361313
   0.45574183  0.01649232  0.22064103
   0.68628609  0.04688739  0.21472279
   0.78403273  0.12135552  0.31323736
   0.94349309  0.28579245  0.22158907
   0.78678573  0.88216808  0.04880706
   0.03586233  0.85071210  0.04654319
   0.04812293  0.63029630  0.04396441
   0.62094942  0.22562192  0.13235731
   0.37094220  0.94439705  0.13130330
   0.99360993  0.37197898  0.04479349
   0.86316425  0.21223953  0.13085093
   0.94632970  0.53215547  0.22401160
   0.53614767  0.61944730  0.32303366
   0.29424967  0.10946403  0.05024110
   0.56523708  0.59647576  0.04673852
   0.30353543  0.38377122  0.04999638
   0.62775780  0.92360755  0.13039321
   0.69891684  0.78000591  0.22256618
   0.62226646  0.44852339  0.13148461
   0.28898808  0.86649728  0.31977061
   0.27920356  0.90344548  0.04109614
   0.61435034  0.71013018  0.13007464
   0.21650964  0.02241820  0.22577642
   0.53614829  0.37642561  0.04013354
   0.37023431  0.21051928  0.13657032
   0.13264840  0.68967264  0.13748505
   0.53514308  0.85793927  0.31871285
   0.78410875  0.12570915  0.04035826
   0.53292063  0.86611421  0.04082352
   0.21068881  0.52291933  0.22146415
   0.86931925  0.97366600  0.13234433
   0.70506050  0.29142744  0.22453327
   0.45331117  0.29469085  0.22351187
   0.85569873  0.44978941  0.13133023
   0.12736941  0.19194945  0.13066156
   0.77259672  0.59820800  0.04206678
   0.27526983  0.61273885  0.04635559
   0.38521707  0.45004557  0.13185726
   0.77709201  0.37999754  0.31993326
   0.77578291  0.36553722  0.04363425
   0.95382533  0.04285795  0.22280997
   0.45511611  0.78378709  0.22716765
   0.13308672  0.82962682  0.45825810
 
 position of ions in cartesian coordinates  (Angst):
  13.58684168  8.45850664  6.92774783
   5.27828432  8.45164391  6.93472174
   3.86169433  5.98660327  6.88065401
   2.39494764  3.60699919  7.01137045
   3.84754717  1.03185886  7.00781383
   5.28132130  3.56909588  6.98281453
  13.51949814  6.69208485  2.75694422
  15.08498817  9.25422915  9.16509343
   3.84544921  4.43326729  9.22916831
   6.71545476  9.21322689  9.17332295
  12.27433386  4.36490243  9.25926260
   9.48264905  9.19268846  9.20740898
  10.87072487  1.98379981  9.14536527
   2.46358831  1.95594224  9.24355122
  12.25494708  9.20353031  9.19457986
  13.68477518  6.84255487  9.23227520
   5.27548900  1.90896614  9.23581990
   8.13649066  6.83703920  9.19653936
   9.53815490  4.43700184  9.22878099
   5.24747468  6.81341287  9.20870169
   8.09373358  1.99205564  9.17529493
   8.18161072  3.65393546  6.99054752
   6.64519745  1.17916810  6.96384065
   6.78185123  1.16815827  1.10975587
   3.74326768  4.26288989  2.71491169
   1.07848317  1.10799837  6.94856678
   1.01575276  1.28649272  0.81183379
   6.67141817  9.31568253  2.85543986
   6.65711334  4.40508025  9.23087890
   8.14285267  5.24495994  4.86975508
  10.86472952  6.81368853  9.25356990
  14.99685718  7.68361965  4.79411333
  12.24299442  6.05222598  6.99962745
   6.72855284  6.03109106  6.99274022
   8.20779749  6.89173084  2.69128464
   3.77765507  2.69345205  4.90571710
  10.86552387  5.33036073  4.88657006
   6.80890548  7.69639494  4.91948892
   5.20719800  0.16029118  4.85410263
   7.96508457  0.45570528  4.72390144
   9.47993258  1.17947175  6.89122185
  12.19222152  2.77765781  4.87495965
  13.78001418  8.57391807  1.07375538
   5.17611559  8.26819293  1.02395014
   4.07688236  6.12594009  0.96721713
   8.23477271  2.19285182  2.91186093
   9.46231548  9.17873039  2.88867254
  13.23829050  3.61531702  0.98545676
  10.87798387  2.06278643  2.87872037
  13.60648511  5.17209535  4.92825516
   9.49296014  6.02049713  7.10674042
   3.91651686  1.06389665  1.10530426
   9.69052050  5.79723345  1.02824752
   5.55996175  3.72992755  1.09992033
  12.22782284  8.97667424  2.86865054
  12.22062035  7.58098930  4.89645605
   9.50033164  4.35926310  2.89266135
   8.10544608  8.42161129  7.03495344
   8.20296665  8.78071621  0.90411500
  10.87945866  6.90185704  2.86164217
   2.55561917  0.21788571  4.96708124
   8.12928731  3.65853446  0.88293797
   5.33632603  2.04606707  3.00454701
   5.35866784  6.70302732  3.02467112
  10.81994782  8.33843476  7.01168272
   9.50521537  1.22178527  0.88788171
  10.84087843  8.41788825  0.89811744
   5.29878074  5.08232791  4.87221127
  15.21969006  9.46319948  2.91157520
   9.54798398  2.83242508  4.93973185
   6.74098883  2.86414265  4.91726116
  12.12717608  4.37156778  2.88926501
   2.50652432  1.86558426  2.87455439
  12.02737582  5.81406929  0.92546912
   6.52756292  5.95529675  1.01982289
   6.84853891  4.37405744  2.90085982
  10.85336978  3.69325057  7.03853176
  10.75753628  3.55270863  0.95995355
  10.94498656  0.41654257  4.90181936
   9.50573532  7.61773913  4.99768830
   6.14891878  8.06326200 10.08167827
 


--------------------------------------------------------------------------------------------------------


 k-point  1 :   0.0000 0.0000 0.0000  plane waves:   70321
 k-point  2 :   0.5000 0.0000 0.0000  plane waves:   70264
 k-point  3 :   0.0000 0.5000 0.0000  plane waves:   70264
 k-point  4 :   0.5000 0.5000 0.0000  plane waves:   70264

 maximum and minimum number of plane-waves per node :     17611    17530

 maximum number of plane-waves:     70321
 maximum index in each direction: 
   IXMAX=   21   IYMAX=   21   IZMAX=   42
   IXMIN=  -21   IYMIN=  -21   IZMIN=  -42


 real space projection operators:
  total allocation   :      80365.52 KBytes
  max/ min on nodes  :      20545.80      19642.83


 parallel 3D FFT for wavefunctions:
    minimum data exchange during FFTs selected (reduces bandwidth)
 parallel 3D FFT for charge:
    minimum data exchange during FFTs selected (reduces bandwidth)


 total amount of memory used by VASP MPI-rank0   252735. kBytes
=======================================================================

   base      :      30000. kBytes
   nonlr-proj:      36146. kBytes
   fftplans  :      18297. kBytes
   grid      :      55120. kBytes
   one-center:        653. kBytes
   wavefun   :     112519. kBytes
 
     INWAV:  cpu time    0.0001: real time    0.0000
 Broyden mixing: mesh for mixing (old mesh)
   NGX = 43   NGY = 43   NGZ = 85
  (NGX  =180   NGY  =180   NGZ  =336)
  gives a total of 157165 points

 initial charge density was supplied:
 charge density of overlapping atoms calculated
 number of electron     782.0000000 magnetization     217.0000000
 keeping initial charge density in first step


--------------------------------------------------------------------------------------------------------


 Maximum index for non-local projection operator         2111
 Maximum index for augmentation-charges         1116 (set IRDMAX)


--------------------------------------------------------------------------------------------------------


 First call to EWALD:  gamma=   0.132
 Maximum number of real-space cells 4x 4x 2
 Maximum number of reciprocal cells 2x 2x 4

    FEWALD:  cpu time    0.0043: real time    0.0043


--------------------------------------- Iteration      1(   1)  ---------------------------------------


    POTLOK:  cpu time    0.4270: real time    0.4411
    SETDIJ:  cpu time    0.0340: real time    0.0379
     EDDAV:  cpu time   67.0452: real time   67.2330
       DOS:  cpu time    0.0034: real time    0.0428
    --------------------------------------------
      LOOP:  cpu time   67.5097: real time   67.7548

 eigenvalue-minimisations  :  9408
 total energy-change (2. order) : 0.7523755E+04  (-0.3320375E+05)
 number of electron     782.0000000 magnetization     217.0000000
 augmentation part      782.0000000 magnetization     217.0000000

 Free energy of the ion-electron system (eV)
  ---------------------------------------------------
  alpha Z        PSCENC =      2087.66410956
  Ewald energy   TEWEN  =    207865.00521529
  -Hartree energ DENC   =   -277569.67908476
  -exchange      EXHF   =         0.00000000
  -V(xc)+E(xc)   XCENC  =      1137.37473772
  PAW double counting   =     62151.42609927   -63176.80815837
  entropy T*S    EENTRO =         0.00845785
  eigenvalues    EBANDS =      7521.20169026
  atomic energy  EATOM  =     67507.56188773
  Solvation  Ediel_sol  =         0.00000000
  ---------------------------------------------------
  free energy    TOTEN  =      7523.75495456 eV

  energy without entropy =     7523.74649670  energy(sigma->0) =     7523.75213527


--------------------------------------------------------------------------------------------------------




--------------------------------------- Iteration      1(   2)  ---------------------------------------


     EDDAV:  cpu time   68.1398: real time   68.3533
       DOS:  cpu time    0.0026: real time    0.0044
    --------------------------------------------
      LOOP:  cpu time   68.1424: real time   68.3577

 eigenvalue-minimisations  :  9540
 total energy-change (2. order) :-0.6892679E+04  (-0.6148057E+04)
 number of electron     782.0000000 magnetization     217.0000000
 augmentation part      782.0000000 magnetization     217.0000000

 Free energy of the ion-electron system (eV)
  ---------------------------------------------------
  alpha Z        PSCENC =      2087.66410956
  Ewald energy   TEWEN  =    207865.00521529
  -Hartree energ DENC   =   -277569.67908476
  -exchange      EXHF   =         0.00000000
  -V(xc)+E(xc)   XCENC  =      1137.37473772
  PAW double counting   =     62151.42609927   -63176.80815837
  entropy T*S    EENTRO =        -0.00728610
  eigenvalues    EBANDS =       628.53864942
  atomic energy  EATOM  =     67507.56188773
  Solvation  Ediel_sol  =         0.00000000
  ---------------------------------------------------
  free energy    TOTEN  =       631.07616976 eV

  energy without entropy =      631.08345586  energy(sigma->0) =      631.07859846


--------------------------------------------------------------------------------------------------------




--------------------------------------- Iteration      1(   3)  ---------------------------------------


     EDDAV:  cpu time   67.2537: real time   68.5793
       DOS:  cpu time    0.0045: real time    0.5136
    --------------------------------------------
      LOOP:  cpu time   67.2582: real time   69.0929

 eigenvalue-minimisations  :  9468
 total energy-change (2. order) :-0.1027229E+04  (-0.8439579E+03)
 number of electron     782.0000000 magnetization     217.0000000
 augmentation part      782.0000000 magnetization     217.0000000

 Free energy of the ion-electron system (eV)
  ---------------------------------------------------
  alpha Z        PSCENC =      2087.66410956
  Ewald energy   TEWEN  =    207865.00521529
  -Hartree energ DENC   =   -277569.67908476
  -exchange      EXHF   =         0.00000000
  -V(xc)+E(xc)   XCENC  =      1137.37473772
  PAW double counting   =     62151.42609927   -63176.80815837
  entropy T*S    EENTRO =        -0.00117678
  eigenvalues    EBANDS =      -398.69641678
  atomic energy  EATOM  =     67507.56188773
  Solvation  Ediel_sol  =         0.00000000
  ---------------------------------------------------
  free energy    TOTEN  =      -396.15278712 eV

  energy without entropy =     -396.15161034  energy(sigma->0) =     -396.15239486


--------------------------------------------------------------------------------------------------------




--------------------------------------- Iteration      1(   4)  ---------------------------------------


     EDDAV:  cpu time   80.9777: real time   81.9195
       DOS:  cpu time    0.0045: real time    0.0673
    --------------------------------------------
      LOOP:  cpu time   80.9822: real time   81.9868

 eigenvalue-minimisations  : 12012
 total energy-change (2. order) :-0.9364455E+02  (-0.8617154E+02)
 number of electron     782.0000000 magnetization     217.0000000
 augmentation part      782.0000000 magnetization     217.0000000

 Free energy of the ion-electron system (eV)
  ---------------------------------------------------
  alpha Z        PSCENC =      2087.66410956
  Ewald energy   TEWEN  =    207865.00521529
  -Hartree energ DENC   =   -277569.67908476
  -exchange      EXHF   =         0.00000000
  -V(xc)+E(xc)   XCENC  =      1137.37473772
  PAW double counting   =     62151.42609927   -63176.80815837
  entropy T*S    EENTRO =         0.01174196
  eigenvalues    EBANDS =      -492.35388133
  atomic energy  EATOM  =     67507.56188773
  Solvation  Ediel_sol  =         0.00000000
  ---------------------------------------------------
  free energy    TOTEN  =      -489.79733293 eV

  energy without entropy =     -489.80907489  energy(sigma->0) =     -489.80124692


--------------------------------------------------------------------------------------------------------




--------------------------------------- Iteration      1(   5)  ---------------------------------------


     EDDAV:  cpu time   77.0436: real time   77.3200
       DOS:  cpu time    0.0030: real time    0.0036
    CHARGE:  cpu time    4.4177: real time    4.4364
    MIXING:  cpu time    0.0113: real time    0.0116
    --------------------------------------------
      LOOP:  cpu time   81.4756: real time   81.7715

 eigenvalue-minimisations  : 11304
 total energy-change (2. order) :-0.3708876E+01  (-0.3678769E+01)
 number of electron     782.0000031 magnetization     203.3655702
 augmentation part      312.4263147 magnetization     170.5284057

 Broyden mixing:
  rms(total) = 0.11331E+02    rms(broyden)= 0.11331E+02
  rms(prec ) = 0.11786E+02
  weight for this iteration     100.00

 Free energy of the ion-electron system (eV)
  ---------------------------------------------------
  alpha Z        PSCENC =      2087.66410956
  Ewald energy   TEWEN  =    207865.00521529
  -Hartree energ DENC   =   -277569.67908476
  -exchange      EXHF   =         0.00000000
  -V(xc)+E(xc)   XCENC  =      1137.37473772
  PAW double counting   =     62151.42609927   -63176.80815837
  entropy T*S    EENTRO =         0.01226461
  eigenvalues    EBANDS =      -496.06328025
  atomic energy  EATOM  =     67507.56188773
  Solvation  Ediel_sol  =         0.00000000
  ---------------------------------------------------
  free energy    TOTEN  =      -493.50620920 eV

  energy without entropy =     -493.51847381  energy(sigma->0) =     -493.51029740


--------------------------------------------------------------------------------------------------------




--------------------------------------- Iteration      1(   6)  ---------------------------------------


    POTLOK:  cpu time    0.4122: real time    0.4141
    SETDIJ:  cpu time    0.0338: real time    0.0338
    EDDIAG:  cpu time   12.0664: real time   12.1034
  RMM-DIIS:  cpu time   46.0055: real time   46.1417
    ORTHCH:  cpu time    1.3367: real time    1.3403
       DOS:  cpu time    0.0025: real time    0.0025
    CHARGE:  cpu time    4.3707: real time    4.3825
    MIXING:  cpu time    0.0119: real time    0.0125
    --------------------------------------------
      LOOP:  cpu time   64.2398: real time   64.4309

 eigenvalue-minimisations  : 10262
 total energy-change (2. order) :-0.4080193E+03  (-0.1112903E+03)
 number of electron     782.0000044 magnetization     200.1847787
 augmentation part      372.6674859 magnetization     167.0503613

 Broyden mixing:
  rms(total) = 0.22836E+02    rms(broyden)= 0.22836E+02
  rms(prec ) = 0.30426E+02
  weight for this iteration     100.00

 eigenvalues of (default mixing * dielectric matrix)
  average eigenvalue GAMMA=   0.1755
  0.1755

 Free energy of the ion-electron system (eV)
  ---------------------------------------------------
  alpha Z        PSCENC =      2087.66410956
  Ewald energy   TEWEN  =    207865.00521529
  -Hartree energ DENC   =   -276070.89659785
  -exchange      EXHF   =         0.00000000
  -V(xc)+E(xc)   XCENC  =      1104.87602488
  PAW double counting   =     66736.81000955   -67570.05186707
  entropy T*S    EENTRO =         0.01140520
  eigenvalues    EBANDS =     -2562.50565632
  atomic energy  EATOM  =     67507.56188773
  Solvation  Ediel_sol  =         0.00000000
  ---------------------------------------------------
  free energy    TOTEN  =      -901.52546903 eV

  energy without entropy =     -901.53687422  energy(sigma->0) =     -901.52927076


--------------------------------------------------------------------------------------------------------




--------------------------------------- Iteration      1(   7)  ---------------------------------------


    POTLOK:  cpu time    0.4140: real time    0.4172
    SETDIJ:  cpu time    0.0337: real time    0.0338
    EDDIAG:  cpu time   12.1120: real time   12.1456
  RMM-DIIS:  cpu time   42.2282: real time   42.3508
    ORTHCH:  cpu time    1.3356: real time    1.3393
       DOS:  cpu time    0.0025: real time    0.0025
    CHARGE:  cpu time    4.3139: real time    4.3257
    MIXING:  cpu time    0.0123: real time    0.0124
    --------------------------------------------
      LOOP:  cpu time   60.4521: real time   60.6272

 eigenvalue-minimisations  :  9428
 total energy-change (2. order) : 0.4234220E+03  (-0.1524442E+02)
 number of electron     782.0000035 magnetization     195.1646056
 augmentation part      352.2954071 magnetization     154.1786031

 Broyden mixing:
  rms(total) = 0.12731E+02    rms(broyden)= 0.12731E+02
  rms(prec ) = 0.15316E+02
  weight for this iteration     100.00

 eigenvalues of (default mixing * dielectric matrix)
  average eigenvalue GAMMA=   0.2531
  0.3141  0.1921

 Free energy of the ion-electron system (eV)
  ---------------------------------------------------
  alpha Z        PSCENC =      2087.66410956
  Ewald energy   TEWEN  =    207865.00521529
  -Hartree energ DENC   =   -276607.56845568
  -exchange      EXHF   =         0.00000000
  -V(xc)+E(xc)   XCENC  =      1120.61517058
  PAW double counting   =     67598.54018172   -68564.52570865
  entropy T*S    EENTRO =         0.00649645
  eigenvalues    EBANDS =     -1485.40237093
  atomic energy  EATOM  =     67507.56188773
  Solvation  Ediel_sol  =         0.00000000
  ---------------------------------------------------
  free energy    TOTEN  =      -478.10347391 eV

  energy without entropy =     -478.10997036  energy(sigma->0) =     -478.10563939


--------------------------------------------------------------------------------------------------------




--------------------------------------- Iteration      1(   8)  ---------------------------------------


    POTLOK:  cpu time    0.4140: real time    0.4162
    SETDIJ:  cpu time    0.0337: real time    0.0337
    EDDIAG:  cpu time   12.1129: real time   12.1473
  RMM-DIIS:  cpu time   42.2190: real time   42.3749
    ORTHCH:  cpu time    1.3387: real time    1.3424
       DOS:  cpu time    0.0026: real time    0.0026
    CHARGE:  cpu time    4.2812: real time    4.2927
    MIXING:  cpu time    0.0130: real time    0.0132
    --------------------------------------------
      LOOP:  cpu time   60.4151: real time   60.6232

 eigenvalue-minimisations  :  9450
 total energy-change (2. order) : 0.2735205E+02  (-0.1442055E+02)
 number of electron     782.0000033 magnetization     187.9167029
 augmentation part      351.8810899 magnetization     148.7890395

 Broyden mixing:
  rms(total) = 0.14694E+02    rms(broyden)= 0.14694E+02
  rms(prec ) = 0.17462E+02
  weight for this iteration     100.00

 eigenvalues of (default mixing * dielectric matrix)
  average eigenvalue GAMMA=   0.3512
  0.6326  0.3241  0.0970

 Free energy of the ion-electron system (eV)
  ---------------------------------------------------
  alpha Z        PSCENC =      2087.66410956
  Ewald energy   TEWEN  =    207865.00521529
  -Hartree energ DENC   =   -276778.86790185
  -exchange      EXHF   =         0.00000000
  -V(xc)+E(xc)   XCENC  =      1130.37115085
  PAW double counting   =     68910.81032534   -69979.46650087
  entropy T*S    EENTRO =        -0.00954872
  eigenvalues    EBANDS =     -1193.82016010
  atomic energy  EATOM  =     67507.56188773
  Solvation  Ediel_sol  =         0.00000000
  ---------------------------------------------------
  free energy    TOTEN  =      -450.75142276 eV

  energy without entropy =     -450.74187404  energy(sigma->0) =     -450.74823985


--------------------------------------------------------------------------------------------------------




--------------------------------------- Iteration      1(   9)  ---------------------------------------


    POTLOK:  cpu time    0.4163: real time    0.4187
    SETDIJ:  cpu time    0.0337: real time    0.0337
    EDDIAG:  cpu time   12.0862: real time   12.1204
  RMM-DIIS:  cpu time   42.2938: real time   42.4124
    ORTHCH:  cpu time    1.3350: real time    1.3388
       DOS:  cpu time    0.0026: real time    0.0026
    CHARGE:  cpu time    4.2822: real time    4.2942
    MIXING:  cpu time    0.0126: real time    0.0128
    --------------------------------------------
      LOOP:  cpu time   60.4624: real time   60.6336

 eigenvalue-minimisations  :  9428
 total energy-change (2. order) :-0.1431617E+02  (-0.2072407E+02)
 number of electron     782.0000040 magnetization     179.3877902
 augmentation part      347.2378062 magnetization     133.4640874

 Broyden mixing:
  rms(total) = 0.13706E+02    rms(broyden)= 0.13706E+02
  rms(prec ) = 0.16169E+02
  weight for this iteration     100.00

 eigenvalues of (default mixing * dielectric matrix)
  average eigenvalue GAMMA=   0.3842
  0.9181  0.3811  0.1189  0.1189

 Free energy of the ion-electron system (eV)
  ---------------------------------------------------
  alpha Z        PSCENC =      2087.66410956
  Ewald energy   TEWEN  =    207865.00521529
  -Hartree energ DENC   =   -276615.56345963
  -exchange      EXHF   =         0.00000000
  -V(xc)+E(xc)   XCENC  =      1145.06934500
  PAW double counting   =     70234.62445467   -71362.29747870
  entropy T*S    EENTRO =        -0.00652205
  eigenvalues    EBANDS =     -1327.12514675
  atomic energy  EATOM  =     67507.56188773
  Solvation  Ediel_sol  =         0.00000000
  ---------------------------------------------------
  free energy    TOTEN  =      -465.06759487 eV

  energy without entropy =     -465.06107283  energy(sigma->0) =     -465.06542086


--------------------------------------------------------------------------------------------------------




--------------------------------------- Iteration      1(  10)  ---------------------------------------


    POTLOK:  cpu time    0.4160: real time    0.4182
    SETDIJ:  cpu time    0.0335: real time    0.0336
    EDDIAG:  cpu time   12.1065: real time   12.1511
[...]
   -.443E+02 0.166E+01 -.135E+04   0.436E+02 -.106E+01 0.135E+04   0.678E+00 -.629E+00 0.157E+01   -.206E-01 -.277E-02 -.993E-01
   0.176E+01 -.808E+02 -.137E+04   -.231E+01 0.797E+02 0.137E+04   0.631E+00 0.117E+01 0.175E+01   -.865E-01 -.267E-01 -.161E+00
   0.521E+02 0.238E+01 -.140E+04   -.517E+02 -.244E+01 0.140E+04   -.294E+00 0.707E-01 0.168E+01   -.337E-01 0.543E-02 -.811E-01
   -.122E+03 -.415E+01 0.154E+04   0.122E+03 0.484E+01 -.154E+04   0.101E+01 -.723E+00 0.716E+00   -.700E-01 -.250E-03 0.414E-01
   -.218E+02 0.498E+01 -.264E+04   0.211E+02 -.463E+01 0.264E+04   0.824E+00 -.344E+00 0.188E+01   0.898E-02 -.215E-01 -.426E-01
   -.115E+02 0.152E+02 -.266E+04   0.113E+02 -.145E+02 0.266E+04   0.197E+00 -.792E+00 0.153E+01   -.433E-01 0.256E-01 -.194E-01
   0.382E+02 -.213E+02 -.266E+04   -.377E+02 0.207E+02 0.266E+04   -.491E+00 0.610E+00 0.813E+00   0.270E-02 0.387E-01 -.626E-01
   -.369E+02 0.382E+01 -.271E+04   0.368E+02 -.442E+01 0.270E+04   0.692E-02 0.562E+00 0.183E+01   0.577E-02 0.158E-01 -.182E-01
   0.176E+02 -.442E+02 -.271E+04   -.175E+02 0.441E+02 0.271E+04   -.125E+00 0.126E+00 0.212E+01   -.192E-01 -.270E-01 -.198E-01
   -.434E+01 0.454E+02 -.266E+04   0.400E+01 -.449E+02 0.266E+04   0.328E+00 -.433E+00 0.168E+01   0.256E-01 -.983E-02 -.265E-01
   -.891E+01 -.116E+02 -.268E+04   0.880E+01 0.114E+02 0.268E+04   0.136E+00 0.909E-01 0.167E+01   -.312E-01 0.902E-02 -.397E-01
   -.433E+02 -.415E+02 -.269E+04   0.432E+02 0.407E+02 0.268E+04   0.880E-01 0.878E+00 0.152E+01   0.276E-01 -.388E-01 -.124E-01
   -.378E+02 0.115E+01 -.266E+04   0.374E+02 -.972E+00 0.266E+04   0.458E+00 -.195E+00 0.138E+01   -.369E-03 0.153E-02 -.524E-01
   0.130E+01 -.307E+02 -.269E+04   -.100E+01 0.301E+02 0.269E+04   -.290E+00 0.631E+00 0.182E+01   -.167E-01 -.192E-02 -.349E-02
   0.673E+02 0.178E+02 -.268E+04   -.653E+02 -.180E+02 0.268E+04   -.212E+01 0.890E-01 0.251E+01   0.293E-02 0.201E-01 -.150E-01
   0.351E+02 0.247E+02 -.272E+04   -.343E+02 -.241E+02 0.272E+04   -.797E+00 -.683E+00 0.209E+01   0.323E-01 0.344E-02 0.115E-01
   0.100E+02 0.186E+01 -.265E+04   -.100E+02 -.184E+01 0.265E+04   0.641E-01 -.197E-01 -.998E-01   -.186E-01 0.239E-01 -.496E-01
   0.129E+02 0.213E+02 -.268E+04   -.126E+02 -.207E+02 0.267E+04   -.299E+00 -.534E+00 0.187E+01   0.248E-01 -.369E-01 -.692E-02
   0.504E+02 0.289E+01 -.142E+04   -.490E+02 -.206E+01 0.142E+04   -.135E+01 -.865E+00 0.138E+01   0.136E-01 -.973E-02 -.895E-01
   -.550E+01 0.111E+02 -.136E+04   0.522E+01 -.108E+02 0.136E+04   0.248E+00 -.221E+00 0.115E+01   0.746E-02 -.397E-01 -.974E-01
   0.819E+02 0.606E+02 0.270E+04   -.817E+02 -.606E+02 -.270E+04   -.313E+00 0.887E-01 -.264E+01   0.482E-01 -.578E-01 0.662E-01
   0.521E+02 -.339E+02 0.159E+04   -.526E+02 0.337E+02 -.160E+04   0.643E+00 0.163E+00 0.142E+01   -.124E+00 -.116E-01 0.718E-01
   -.135E+02 -.107E+02 -.136E+04   0.135E+02 0.101E+02 0.135E+04   -.172E-01 0.648E+00 0.161E+01   0.236E-01 -.200E-01 -.137E+00
   -.788E+02 0.858E+02 0.283E+04   0.795E+02 -.846E+02 -.283E+04   -.636E+00 -.135E+01 -.296E+01   -.350E-01 0.100E+00 0.929E-01
   -.144E+02 0.280E+02 0.149E+04   0.141E+02 -.280E+02 -.149E+04   0.311E+00 -.847E-01 -.321E+00   -.582E-02 0.107E+00 0.163E+00
   0.134E+02 -.140E+01 -.269E+04   -.139E+02 0.110E+01 0.268E+04   0.439E+00 0.290E+00 0.193E+01   -.210E-02 0.170E-01 -.919E-02
   0.144E+02 -.801E+02 0.605E+01   -.141E+02 0.793E+02 -.659E+01   -.497E+00 0.723E+00 0.635E+00   0.467E-01 -.304E-02 -.106E+00
   -.298E+02 0.138E+02 -.273E+04   0.292E+02 -.139E+02 0.273E+04   0.594E+00 0.205E+00 0.181E+01   0.139E-01 0.519E-02 -.172E-01
   0.177E+02 0.295E+02 0.948E+02   -.184E+02 -.304E+02 -.950E+02   0.897E+00 0.852E+00 0.249E+00   -.494E-01 0.206E-01 -.235E-01
   -.827E+02 0.250E+02 -.135E+04   0.818E+02 -.248E+02 0.135E+04   0.859E+00 -.251E+00 0.233E+01   0.226E-01 0.376E-01 -.107E+00
   0.496E+02 -.167E+02 -.139E+04   -.486E+02 0.174E+02 0.139E+04   -.106E+01 -.689E+00 0.127E+01   -.275E-01 0.526E-01 -.693E-01
   0.420E+02 -.785E+02 0.159E+04   -.407E+02 0.785E+02 -.159E+04   -.138E+01 -.201E-01 0.135E+01   0.810E-01 -.630E-01 0.988E-01
   0.406E+02 -.302E+02 0.185E+01   -.409E+02 0.303E+02 -.233E+01   0.411E+00 0.905E-02 0.583E+00   -.878E-01 -.690E-01 -.640E-01
   -.498E+02 -.487E+01 0.812E+01   0.502E+02 0.608E+01 -.867E+01   -.387E+00 -.128E+01 0.620E+00   0.343E-01 0.217E-01 -.113E+00
   0.545E+02 -.346E+01 0.233E+02   -.537E+02 0.454E+01 -.230E+02   -.934E+00 -.116E+01 -.135E+00   0.297E-01 0.895E-01 -.261E-01
   -.299E+02 -.612E+02 0.886E+02   0.290E+02 0.597E+02 -.900E+02   0.105E+01 0.168E+01 0.152E+01   -.536E-01 -.517E-01 -.656E-01
   0.140E+02 0.767E+02 0.138E+03   -.143E+02 -.758E+02 -.140E+03   0.377E+00 -.848E+00 0.162E+01   0.148E-01 -.353E-01 -.705E-01
   0.178E+02 0.743E+02 -.134E+04   -.174E+02 -.739E+02 0.134E+04   -.384E+00 -.297E+00 0.150E+01   0.370E-01 -.396E-01 -.108E+00
   -.108E+03 0.370E+01 0.270E+02   0.107E+03 -.371E+01 -.283E+02   0.944E+00 0.664E-01 0.131E+01   0.243E-01 -.509E-01 -.104E+00
   -.964E+00 0.746E+02 0.220E+04   0.217E+01 -.741E+02 -.220E+04   -.121E+01 -.492E+00 -.365E+01   -.310E-01 -.272E-02 0.488E-01
   -.189E+02 -.162E+02 0.222E+04   0.173E+02 0.144E+02 -.222E+04   0.176E+01 0.195E+01 -.306E+01   -.604E-01 0.364E-01 0.409E-01
   0.122E+03 0.272E+02 0.225E+04   -.120E+03 -.260E+02 -.224E+04   -.201E+01 -.133E+01 -.399E+01   -.921E-01 0.252E-01 0.296E-01
   0.422E+02 0.107E+03 0.112E+04   -.418E+02 -.106E+03 -.112E+04   -.589E+00 -.249E+00 -.646E+00   0.573E-01 0.181E-01 0.127E-01
   0.987E+01 -.403E+02 0.114E+04   -.971E+01 0.400E+02 -.114E+04   -.216E+00 0.161E+00 -.524E+00   0.157E-01 0.364E-01 0.123E+00
   -.212E+03 0.624E+01 0.225E+04   0.209E+03 -.650E+01 -.224E+04   0.269E+01 0.188E+00 -.345E+01   -.579E-01 0.119E-01 0.644E-01
   -.619E+02 0.693E+02 0.113E+04   0.617E+02 -.683E+02 -.113E+04   0.336E+00 -.106E+01 -.678E+00   0.574E-02 0.315E-01 0.285E-01
   -.576E+02 -.995E+01 0.337E+02   0.569E+02 0.985E+01 -.332E+02   0.668E+00 0.280E-01 -.617E+00   -.435E-01 0.157E-01 -.433E-01
   0.254E+02 0.793E+01 -.113E+04   -.254E+02 -.814E+01 0.113E+04   0.432E-01 0.116E+00 -.214E+00   0.230E-01 0.303E-01 -.699E-01
   -.288E+02 -.104E+03 0.220E+04   0.281E+02 0.102E+03 -.220E+04   0.712E+00 0.260E+01 -.314E+01   -.115E-02 0.315E-01 0.722E-01
   0.105E+03 -.140E+03 0.252E+04   -.104E+03 0.139E+03 -.252E+04   -.127E+01 0.104E+01 -.309E+01   0.721E-01 -.683E-01 0.686E-01
   0.201E+03 0.808E+02 0.252E+04   -.200E+03 -.795E+02 -.252E+04   -.116E+01 -.138E+01 -.300E+01   0.237E-02 -.330E-01 0.580E-01
   -.506E+02 -.586E+02 0.131E+04   0.504E+02 0.581E+02 -.131E+04   0.226E+00 0.632E+00 -.537E+00   0.112E-01 -.330E-01 0.479E-01
   -.101E+03 -.176E+01 0.427E+02   0.100E+03 0.156E+01 -.428E+02   0.210E+00 0.253E+00 0.960E-01   0.457E-02 -.118E-01 -.477E-01
   -.150E+01 -.462E+02 0.122E+04   0.162E+01 0.455E+02 -.122E+04   -.225E+00 0.784E+00 -.427E+00   0.414E-01 -.152E-01 -.925E-02
   0.577E+02 0.102E+00 -.126E+04   -.575E+02 -.234E+00 0.126E+04   -.248E+00 0.134E+00 0.405E+00   -.764E-02 0.496E-01 -.120E+00
   0.712E+02 0.478E+02 0.255E+04   -.705E+02 -.460E+02 -.254E+04   -.728E+00 -.189E+01 -.408E+01   0.335E-01 0.315E-01 0.651E-01
   -.573E+01 -.355E+02 0.127E+04   0.588E+01 0.359E+02 -.127E+04   -.238E+00 -.383E+00 -.402E+00   0.358E-01 -.408E-01 0.275E-01
   0.276E+02 -.438E+02 0.259E+02   -.271E+02 0.433E+02 -.255E+02   -.561E+00 0.565E+00 -.371E+00   -.203E-01 0.286E-01 -.535E-01
   0.798E+02 0.127E+02 0.316E+04   -.798E+02 -.121E+02 -.316E+04   -.148E+00 -.619E+00 -.434E+01   0.157E+00 -.972E-02 0.103E+00
   0.660E+02 0.766E+02 0.155E+04   -.665E+02 -.760E+02 -.155E+04   0.498E+00 -.576E+00 0.274E+00   -.208E-01 -.776E-01 0.764E-01
   0.939E+02 -.730E+02 0.147E+04   -.940E+02 0.729E+02 -.147E+04   0.107E+00 0.129E+00 -.535E+00   -.349E-01 0.305E-01 0.845E-01
   -.429E+02 -.379E+02 -.151E+04   0.424E+02 0.370E+02 0.151E+04   0.566E+00 0.103E+01 0.110E+01   0.224E-01 -.307E-01 -.138E+00
   0.159E+02 0.140E+03 0.310E+04   -.158E+02 -.141E+03 -.310E+04   -.980E-01 0.287E+00 -.351E+01   0.330E-02 0.394E-01 0.882E-01
   -.383E+02 -.590E+02 0.312E+04   0.372E+02 0.596E+02 -.312E+04   0.101E+01 -.454E+00 -.474E+01   0.927E-01 -.479E-01 0.648E-01
   0.122E+03 -.539E+02 0.263E+02   -.122E+03 0.531E+02 -.256E+02   -.235E-01 0.796E+00 -.640E+00   -.177E-01 0.143E-01 -.444E-01
   0.386E+02 0.114E+03 0.157E+04   -.384E+02 -.113E+03 -.157E+04   -.294E+00 -.708E+00 -.129E+01   -.128E-01 0.547E-01 0.525E-01
   -.134E+02 0.423E+02 -.193E+02   0.140E+02 -.427E+02 0.194E+02   -.634E+00 0.497E+00 -.886E-01   0.361E-01 -.148E-01 -.160E+00
   0.504E+02 0.740E+02 -.343E+02   -.500E+02 -.734E+02 0.345E+02   -.470E+00 -.655E+00 -.875E-01   0.311E-01 -.132E-01 -.103E+00
   -.149E+03 -.612E+01 0.134E+04   0.149E+03 0.607E+01 -.134E+04   0.755E+00 0.102E+00 -.891E+00   -.406E-01 -.114E-01 -.454E-03
   -.216E+02 -.110E+02 0.146E+04   0.221E+02 0.109E+02 -.146E+04   -.481E+00 0.243E+00 -.764E+00   -.529E-01 -.734E-02 0.894E-01
   -.204E+03 -.115E+03 0.285E+04   0.204E+03 0.114E+03 -.285E+04   0.502E+00 0.134E+01 -.264E+01   -.331E-01 -.263E-01 0.591E-01
   -.194E+02 -.127E+03 0.282E+04   0.174E+02 0.126E+03 -.282E+04   0.199E+01 0.268E+00 -.166E+01   0.474E-01 0.114E-01 0.544E-01
   0.628E+02 -.397E+02 0.140E+04   -.621E+02 0.395E+02 -.140E+04   -.853E+00 0.299E+00 -.585E+00   0.124E+00 -.213E-01 0.993E-01
   -.533E+02 0.183E+02 -.140E+04   0.530E+02 -.180E+02 0.140E+04   0.392E+00 -.319E+00 0.180E-03   0.438E-01 -.115E-01 -.834E-01
   -.597E+02 0.504E+02 0.281E+04   0.600E+02 -.498E+02 -.281E+04   -.307E+00 -.620E+00 -.126E+01   -.481E-03 0.465E-01 0.111E+00
   -.124E+02 0.644E+02 0.154E+02   0.127E+02 -.640E+02 -.151E+02   -.395E+00 -.488E+00 -.322E+00   0.569E-01 0.216E-01 -.521E-01
   0.431E+02 0.510E+01 0.879E+01   -.428E+02 -.494E+01 -.859E+01   -.338E+00 -.274E+00 -.298E+00   0.198E-01 0.492E-01 -.649E-01
   -.563E+00 0.453E+00 -.317E+03   0.776E+00 -.543E+00 0.319E+03   -.211E+00 0.631E-01 -.169E+01   -.908E-03 0.482E-03 -.143E-03
 -----------------------------------------------------------------------------------------------
   0.148E+00 -.137E+00 0.672E+01   0.774E-12 0.272E-12 0.762E-11   -.315E+00 0.309E-01 -.568E+01   0.162E+00 0.127E+00 -.104E+01
 
 
 POSITION                                       TOTAL-FORCE (eV/Angst)
 -----------------------------------------------------------------------------------
     13.58653      8.45523      6.92002         0.015752      0.008339      0.008065
      5.29674      8.44980      6.95946        -0.021065     -0.003971     -0.016065
      3.87215      6.00055      6.88783        -0.003775     -0.022114      0.001401
      2.39865      3.60695      7.01308         0.008167     -0.015399     -0.002081
      3.84820      1.03178      7.00624         0.001348     -0.001293     -0.007105
      5.28252      3.57185      6.97517        -0.000101      0.008495      0.013022
     13.51950      6.69208      2.75694        -0.014546     -0.027554      0.033784
     15.02052      9.28595      9.15389         0.019163     -0.004949      0.003675
      3.84977      4.43302      9.22201         0.005444     -0.006610     -0.001764
      6.73566      9.26040      9.22996        -0.026450      0.006383     -0.004482
     12.28128      4.36213      9.25454        -0.001190     -0.028095      0.007996
      9.51583      9.20203      9.20521         0.004255      0.008185      0.006463
     10.86626      1.99493      9.14776         0.010283     -0.011448     -0.006849
      2.47097      1.95391      9.24053        -0.020033     -0.021786      0.004476
     12.25749      9.19204      9.19463        -0.002554     -0.001116      0.003521
     13.67004      6.83348      9.23324        -0.005057      0.004293      0.001885
      5.28126      1.91157      9.23618        -0.004255     -0.004676      0.007771
      8.18455      6.83195      9.18374         0.007630     -0.026005     -0.001444
      9.53868      4.43519      9.22508         0.005923     -0.000272      0.010172
      5.21068      6.79230      9.26036         0.015187      0.010856      0.019463
      8.10129      2.00466      9.17426         0.007610      0.005730     -0.002629
      8.18391      3.66052      6.98366         0.000352     -0.017368     -0.005540
      6.64555      1.17846      6.96367         0.015177      0.004631     -0.002251
      6.78185      1.16816      1.10976        -0.013092      0.003844      0.002208
      3.74327      4.26289      2.71491         0.017718     -0.000228      0.002463
      1.07735      1.10943      6.95399         0.000796     -0.005124      0.006524
      1.01575      1.28649      0.81183         0.009938     -0.007834      0.016359
      6.67142      9.31568      2.85544        -0.007117      0.019392     -0.012482
      6.65989      4.37954      9.22591        -0.004645      0.011458      0.000298
      8.14285      5.24496      4.86976        -0.020231      0.046351     -0.021820
     10.87658      6.80780      9.25556         0.001401      0.007428     -0.005720
     14.99686      7.68362      4.79411         0.057503      0.012454      0.025901
     12.24823      6.04911      6.99478         0.010244     -0.000863      0.004402
      6.72669      6.03654      7.00428         0.005419      0.005448      0.001885
      8.20780      6.89173      2.69128        -0.006685     -0.004451     -0.017046
      3.77766      2.69345      4.90572        -0.023522      0.016111     -0.019058
     10.86552      5.33036      4.88657         0.009457      0.010366     -0.045238
      6.80891      7.69639      4.91949        -0.024961      0.005708      0.097479
      5.20720      0.16029      4.85410         0.014511      0.010394     -0.000843
      7.96508      0.45571      4.72390         0.001526      0.014093     -0.009567
      9.48647      1.18014      6.88542         0.002600      0.001735      0.008365
     12.19222      2.77766      4.87496         0.027387      0.067890     -0.094443
     13.78001      8.57392      1.07376        -0.000184     -0.015575     -0.015884
      5.17612      8.26819      1.02395         0.017771      0.012489     -0.002229
      4.07688      6.12594      0.96722         0.011363      0.004471      0.013158
      8.23477      2.19285      2.91186        -0.010338      0.000818      0.006888
      9.46232      9.17873      2.88867        -0.010643      0.006141     -0.010100
     13.23829      3.61532      0.98546         0.012383     -0.012323      0.001976
     10.87798      2.06279      2.87872         0.003601     -0.026620      0.020113
     13.60649      5.17210      4.92826        -0.007980     -0.011383     -0.053018
      9.49926      6.01674      7.09896         0.003590      0.004576      0.005862
      3.91652      1.06390      1.10530         0.013430      0.001138      0.037148
      9.69052      5.79723      1.02825        -0.017118     -0.008660     -0.002168
      5.55996      3.72993      1.09992        -0.017396     -0.038360     -0.014119
     12.22782      8.97667      2.86865        -0.014088     -0.001100      0.004776
     12.22062      7.58099      4.89646        -0.007262      0.006987     -0.024323
      9.50033      4.35926      2.89266        -0.031040      0.015742      0.010562
      8.10112      8.42123      7.04013        -0.022933      0.014765     -0.010809
      8.20297      8.78072      0.90411         0.021071      0.012536     -0.007460
     10.87946      6.90186      2.86164        -0.040017      0.003032      0.005039
      2.55562      0.21789      4.96708        -0.022125      0.015785      0.020766
      8.12929      3.65853      0.88294        -0.004697      0.012186     -0.002281
      5.33633      2.04607      3.00455         0.011466     -0.008208     -0.012016
      5.35867      6.70303      3.02467         0.017974      0.012521     -0.000340
     10.82363      8.33630      7.00722        -0.009694     -0.001021      0.006851
      9.50522      1.22179      0.88788         0.006222      0.004164     -0.009902
     10.84088      8.41789      0.89812        -0.021908      0.014716     -0.000476
      5.29878      5.08233      4.87221         0.006408      0.028165     -0.003243
     15.21969      9.46320      2.91158         0.016238     -0.000269      0.002241
      9.54798      2.83243      4.93973         0.012383      0.007259     -0.022531
      6.74099      2.86414      4.91726         0.019203     -0.011676     -0.007072
     12.12718      4.37157      2.88927         0.010239     -0.011854     -0.008579
      2.50652      1.86558      2.87455        -0.004424      0.010329     -0.000408
     12.02738      5.81407      0.92547        -0.011251     -0.010392      0.011006
      6.52756      5.95530      1.01982        -0.002081     -0.040023      0.001577
      6.84854      4.37406      2.90086        -0.018679     -0.020335     -0.001189
     10.85830      3.69697      7.03245         0.006433     -0.011572      0.008812
     10.75754      3.55271      0.95995        -0.001177      0.008702     -0.006365
     10.94499      0.41654      4.90182         0.031220     -0.026468      0.006762
      9.50574      7.61774      4.99769        -0.025402      0.008233      0.004749
      6.10908      7.94565     10.20555         0.003927     -0.027344      0.035075
 -----------------------------------------------------------------------------------
    total drift:                               -0.004532      0.021519      0.004757


--------------------------------------------------------------------------------------------------------



  FREE ENERGIE OF THE ION-ELECTRON SYSTEM (eV)
  ---------------------------------------------------
  free  energy   TOTEN  =      -507.86283869 eV

  energy  without entropy=     -507.87353271  energy(sigma->0) =     -507.86640336
 
 d Force = 0.2013040E-02[ 0.114E-02, 0.289E-02]  d Energy = 0.1970634E-02 0.424E-04
 d Force = 0.4494589E+02[ 0.449E+02, 0.450E+02]  d Ewald  = 0.4494589E+02-0.813E-05


--------------------------------------------------------------------------------------------------------


    POTLOK:  cpu time    0.4425: real time    0.4555


--------------------------------------------------------------------------------------------------------


 Conjugate gradient step on ions:
 trial-energy change:   -0.001971  1 .order   -0.002013   -0.002887   -0.001139
  (g-gl).g = 0.167E-02      g.g   = 0.163E-02  gl.gl    = 0.277E-02
 g(Force)  = 0.163E-02   g(Stress)= 0.000E+00 ortho     =-0.389E-04
 gamma     =   0.60506
 trial     =   1.79253
 opt step  =   3.40766  (harmonic =   2.96071) maximal distance =0.01946332
 next E    =  -507.863321   (d E  =  -0.00245)


--------------------------------------------------------------------------------------------------------


  
 reached required accuracy - stopping structural energy minimisation
     LOOP+:  cpu time  810.0023: real time  812.7734
    4ORBIT:  cpu time    0.0000: real time    0.0000

 total amount of memory used by VASP MPI-rank0   252735. kBytes
=======================================================================

   base      :      30000. kBytes
   nonlr-proj:      36146. kBytes
   fftplans  :      18297. kBytes
   grid      :      55120. kBytes
   one-center:        653. kBytes
   wavefun   :     112519. kBytes
 
  
  
 General timing and accounting informations for this job:
 ========================================================
  
                  Total CPU time used (sec):    16475.016
                            User time (sec):    16025.410
                          System time (sec):      449.605
                         Elapsed time (sec):    16564.740
  
                   Maximum memory used (kb):      451416.
                   Average memory used (kb):           0.
  
                          Minor page faults:      3743091
                          Major page faults:          187
                 Voluntary context switches:        11076
