 vasp.5.4.4.18Apr17-6-g9f103f2a35 (build Nov 30 2020 22:55:02) complex          
  
 executed on             LinuxIFC date 2021.10.25  13:33:57
 running on   40 total cores
 distrk:  each k-point on   40 cores,    1 groups
 distr:  one band on NCORES_PER_BAND=   1 cores,   40 groups


--------------------------------------------------------------------------------------------------------


 INCAR:
 POTCAR:    PAW_PBE Pt 04Feb2005                  
 POTCAR:    PAW_PBE Fe 06Sep2000                  
 POTCAR:    PAW_PBE Co 02Aug2007                  
 POTCAR:    PAW_PBE Cu 22Jun2005                  
 POTCAR:    PAW_PBE Ni 02Aug2007                  

 ----------------------------------------------------------------------------- 
|                                                                             |
|           W    W    AA    RRRRR   N    N  II  N    N   GGGG   !!!           |
|           W    W   A  A   R    R  NN   N  II  NN   N  G    G  !!!           |
|           W    W  A    A  R    R  N N  N  II  N N  N  G       !!!           |
|           W WW W  AAAAAA  RRRRR   N  N N  II  N  N N  G  GGG   !            |
|           WW  WW  A    A  R   R   N   NN  II  N   NN  G    G                |
|           W    W  A    A  R    R  N    N  II  N    N   GGGG   !!!           |
|                                                                             |
|      For optimal performance we recommend to set                            |
|        NCORE= 4 - approx SQRT( number of cores)                             |
|      NCORE specifies how many cores store one orbital (NPAR=cpu/NCORE).     |
|      This setting can  greatly improve the performance of VASP for DFT.     |
|      The default,   NCORE=1            might be grossly inefficient         |
|      on modern multi-core architectures or massively parallel machines.     |
|      Do your own testing !!!!                                               |
|      Unfortunately you need to use the default for GW and RPA calculations. |
|      (for HF NCORE is supported but not extensively tested yet)             |
|                                                                             |
 ----------------------------------------------------------------------------- 

 POTCAR:    PAW_PBE Pt 04Feb2005                  
   VRHFIN =Pt: s1d9                                                             
   LEXCH  = PE                                                                  
   EATOM  =   729.1176 eV,   53.5886 Ry                                         
                                                                                
   TITEL  = PAW_PBE Pt 04Feb2005                                                
   LULTRA =        F    use ultrasoft PP ?                                      
   IUNSCR =        1    unscreen: 0-lin 1-nonlin 2-no                           
   RPACOR =    2.330    partial core radius                                     
   POMASS =  195.080; ZVAL   =   10.000    mass and valenz                      
   RCORE  =    2.600    outmost cutoff radius                                   
   RWIGS  =    2.750; RWIGS  =    1.455    wigner-seitz radius (au A)           
   ENMAX  =  230.283; ENMIN  =  172.712 eV                                      
   ICORE  =        3    local potential                                         
   LCOR   =        T    correct aug charges                                     
   LPAW   =        T    paw PP                                                  
   EAUG   =  358.966                                                            
   DEXC   =    0.000                                                            
   RMAX   =    2.658    core radius for proj-oper                               
   RAUG   =    1.300    factor for augmentation sphere                          
   RDEP   =    2.761    radius for radial grids                                 
   RDEPT  =    2.203    core radius for aug-charge                              
                                                                                
   Atomic configuration                                                         
   16 entries                                                                   
     n  l   j            E        occ.                                          
     1  0  0.50    -78401.1885   2.0000                                         
     2  0  0.50    -13770.7750   2.0000                                         
     2  1  1.50    -11931.0468   6.0000                                         
     3  0  0.50     -3234.7234   2.0000                                         
     3  1  1.50     -2699.2216   6.0000                                         
     3  2  2.50     -2119.5714  10.0000                                         
     4  0  0.50      -695.1528   2.0000                                         
     4  1  1.50      -519.6034   6.0000                                         
     4  2  2.50      -306.6786  10.0000                                         
     4  3  3.50       -70.1041  14.0000                                         
     5  0  0.50      -101.7747   2.0000                                         
     5  1  1.50       -55.9873   6.0000                                         
     5  2  2.50        -6.1423   9.0000                                         
     6  0  0.50        -5.6573   1.0000                                         
     6  1  1.50        -6.8029   0.0000                                         
     5  3  2.50        -1.3606   0.0000                                         
   Description                                                                  
     l       E           TYP  RCUT    TYP  RCUT                                 
     2     -6.1423404     23  2.500                                             
     2     -7.5029230     23  2.500                                             
     0     -5.6573207     23  2.500                                             
     0      0.7416693     23  2.500                                             
     1     -2.7211652     23  2.600                                             
     1     20.4087390     23  2.600                                             
     3     -1.3605826     23  2.500                                             
  local pseudopotential read in
  partial core-charges read in
  partial kinetic energy density read in
  atomic valenz-charges read in
  non local Contribution for L=           2  read in
    real space projection operators read in
  non local Contribution for L=           2  read in
    real space projection operators read in
  non local Contribution for L=           0  read in
    real space projection operators read in
  non local Contribution for L=           0  read in
    real space projection operators read in
  non local Contribution for L=           1  read in
    real space projection operators read in
  non local Contribution for L=           1  read in
    real space projection operators read in
    PAW grid and wavefunctions read in
 
   number of l-projection  operators is LMAX  =           6
   number of lm-projection operators is LMMAX =          18
 
 POTCAR:    PAW_PBE Fe 06Sep2000                  
   VRHFIN =Fe:  d7 s1                                                           
   LEXCH  = PE                                                                  
   EATOM  =   594.3153 eV,   43.6809 Ry                                         
                                                                                
   TITEL  = PAW_PBE Fe 06Sep2000                                                
   LULTRA =        F    use ultrasoft PP ?                                      
   IUNSCR =        1    unscreen: 0-lin 1-nonlin 2-no                           
   RPACOR =    2.000    partial core radius                                     
   POMASS =   55.847; ZVAL   =    8.000    mass and valenz                      
   RCORE  =    2.300    outmost cutoff radius                                   
   RWIGS  =    2.460; RWIGS  =    1.302    wigner-seitz radius (au A)           
   ENMAX  =  267.882; ENMIN  =  200.911 eV                                      
   RCLOC  =    1.701    cutoff for local pot                                    
   LCOR   =        T    correct aug charges                                     
   LPAW   =        T    paw PP                                                  
   EAUG   =  511.368                                                            
   DEXC   =    0.000                                                            
   RMAX   =    2.356    core radius for proj-oper                               
   RAUG   =    1.300    factor for augmentation sphere                          
   RDEP   =    2.442    radius for radial grids                                 
   RDEPT  =    1.890    core radius for aug-charge                              
                                                                                
   Atomic configuration                                                         
    9 entries                                                                   
     n  l   j            E        occ.                                          
     1  0  0.50     -6993.8440   2.0000                                         
     2  0  0.50      -814.6047   2.0000                                         
     2  1  1.50      -693.3689   6.0000                                         
     3  0  0.50       -89.4732   2.0000                                         
     3  1  1.50       -55.6373   6.0000                                         
     3  2  2.50        -3.8151   7.0000                                         
     4  0  0.50        -4.2551   1.0000                                         
     4  1  1.50        -3.4015   0.0000                                         
     4  3  2.50        -1.3606   0.0000                                         
   Description                                                                  
     l       E           TYP  RCUT    TYP  RCUT                                 
     2     -3.8151135     23  2.300                                             
     2     -5.1756961     23  2.300                                             
     0     -4.2550963     23  2.300                                             
     0      7.2035603     23  2.300                                             
     1     -2.7211652     23  2.300                                             
     1     18.4316424     23  2.300                                             
  local pseudopotential read in
  partial core-charges read in
  partial kinetic energy density read in
  atomic valenz-charges read in
  non local Contribution for L=           2  read in
    real space projection operators read in
  non local Contribution for L=           2  read in
    real space projection operators read in
  non local Contribution for L=           0  read in
    real space projection operators read in
  non local Contribution for L=           0  read in
    real space projection operators read in
  non local Contribution for L=           1  read in
    real space projection operators read in
  non local Contribution for L=           1  read in
    real space projection operators read in
    PAW grid and wavefunctions read in
 
   number of l-projection  operators is LMAX  =           6
   number of lm-projection operators is LMMAX =          18
 
 POTCAR:    PAW_PBE Co 02Aug2007                  
   VRHFIN =Co: d8 s1                                                            
   LEXCH  = PE                                                                  
   EATOM  =   813.3670 eV,   59.7808 Ry                                         
                                                                                
   TITEL  = PAW_PBE Co 02Aug2007                                                
   LULTRA =        F    use ultrasoft PP ?                                      
   IUNSCR =        1    unscreen: 0-lin 1-nonlin 2-no                           
   RPACOR =    2.000    partial core radius                                     
   POMASS =   58.933; ZVAL   =    9.000    mass and valenz                      
   RCORE  =    2.300    outmost cutoff radius                                   
   RWIGS  =    2.460; RWIGS  =    1.302    wigner-seitz radius (au A)           
   ENMAX  =  267.968; ENMIN  =  200.976 eV                                      
   RCLOC  =    1.203    cutoff for local pot                                    
   LCOR   =        T    correct aug charges                                     
   LPAW   =        T    paw PP                                                  
   EAUG   =  477.818                                                            
   DEXC   =    0.000                                                            
   RMAX   =    2.360    core radius for proj-oper                               
   RAUG   =    1.300    factor for augmentation sphere                          
   RDEP   =    2.393    radius for radial grids                                 
   RDEPT  =    1.864    core radius for aug-charge                              
                                                                                
   Atomic configuration                                                         
    9 entries                                                                   
     n  l   j            E        occ.                                          
     1  0  0.50     -7587.6674   2.0000                                         
     2  0  0.50      -893.6084   2.0000                                         
     2  1  1.50      -764.5805   6.0000                                         
     3  0  0.50       -97.5973   2.0000                                         
     3  1  1.50       -60.9648   6.0000                                         
     3  2  2.50        -4.2382   8.0000                                         
     4  0  0.50        -4.3746   1.0000                                         
     4  1  1.50        -4.0817   0.0000                                         
     4  3  2.50        -1.3606   0.0000                                         
   Description                                                                  
     l       E           TYP  RCUT    TYP  RCUT                                 
     2     -4.2382362     23  2.300                                             
     2     -5.5988188     23  2.300                                             
     0     -4.3745797     23  2.300                                             
     0      5.7660125     23  2.300                                             
     1     -2.7211652     23  2.300                                             
     1     16.9860234     23  2.300                                             
  local pseudopotential read in
  partial core-charges read in
  partial kinetic energy density read in
  atomic valenz-charges read in
  non local Contribution for L=           2  read in
    real space projection operators read in
  non local Contribution for L=           2  read in
    real space projection operators read in
  non local Contribution for L=           0  read in
    real space projection operators read in
  non local Contribution for L=           0  read in
    real space projection operators read in
  non local Contribution for L=           1  read in
    real space projection operators read in
  non local Contribution for L=           1  read in
    real space projection operators read in
    PAW grid and wavefunctions read in
 
   number of l-projection  operators is LMAX  =           6
   number of lm-projection operators is LMMAX =          18
 
 POTCAR:    PAW_PBE Cu 22Jun2005                  
   VRHFIN =Cu: d10 p1                                                           
   LEXCH  = PE                                                                  
   EATOM  =  1390.9808 eV,  102.2342 Ry                                         
                                                                                
   TITEL  = PAW_PBE Cu 22Jun2005                                                
   LULTRA =        F    use ultrasoft PP ?                                      
   IUNSCR =        1    unscreen: 0-lin 1-nonlin 2-no                           
   RPACOR =    2.000    partial core radius                                     
   POMASS =   63.546; ZVAL   =   11.000    mass and valenz                      
   RCORE  =    2.300    outmost cutoff radius                                   
   RWIGS  =    2.200; RWIGS  =    1.164    wigner-seitz radius (au A)           
   ENMAX  =  295.446; ENMIN  =  221.585 eV                                      
   ICORE  =        3    local potential                                         
   LCOR   =        T    correct aug charges                                     
   LPAW   =        T    paw PP                                                  
   EAUG   =  586.980                                                            
   DEXC   =    0.000                                                            
   RMAX   =    2.344    core radius for proj-oper                               
   RAUG   =    1.300    factor for augmentation sphere                          
   RDEP   =    2.302    radius for radial grids                                 
   RDEPT  =    1.771    core radius for aug-charge                              
                                                                                
   Atomic configuration                                                         
    9 entries                                                                   
     n  l   j            E        occ.                                          
     1  0  0.50     -8850.2468   2.0000                                         
     2  0  0.50     -1062.3498   2.0000                                         
     2  1  1.50      -916.8226   6.0000                                         
     3  0  0.50      -114.6929   2.0000                                         
     3  1  1.50       -72.1325   6.0000                                         
     3  2  2.50        -5.0394  10.0000                                         
     4  0  0.50        -4.6097   1.0000                                         
     4  1  0.50        -4.0817   0.0000                                         
     4  3  2.50        -1.3606   0.0000                                         
   Description                                                                  
     l       E           TYP  RCUT    TYP  RCUT                                 
     2     -5.0393973     23  2.200                                             
     2     10.8846608     23  2.200                                             
     0     -4.6097109     23  2.200                                             
     0      8.2520465     23  2.200                                             
     1     -2.7211652     23  2.200                                             
     1     21.7055443     23  2.200                                             
     3      2.7211652     23  2.300                                             
  local pseudopotential read in
  partial core-charges read in
  partial kinetic energy density read in
  atomic valenz-charges read in
  non local Contribution for L=           2  read in
    real space projection operators read in
  non local Contribution for L=           2  read in
    real space projection operators read in
  non local Contribution for L=           0  read in
    real space projection operators read in
  non local Contribution for L=           0  read in
    real space projection operators read in
  non local Contribution for L=           1  read in
    real space projection operators read in
  non local Contribution for L=           1  read in
    real space projection operators read in
    PAW grid and wavefunctions read in
 
   number of l-projection  operators is LMAX  =           6
   number of lm-projection operators is LMMAX =          18
 
 POTCAR:    PAW_PBE Ni 02Aug2007                  
   VRHFIN =Ni:                                                                  
   LEXCH  = PE                                                                  
   EATOM  =  1077.6739 eV,   79.2068 Ry                                         
                                                                                
   TITEL  = PAW_PBE Ni 02Aug2007                                                
   LULTRA =        F    use ultrasoft PP ?                                      
   IUNSCR =        1    unscreen: 0-lin 1-nonlin 2-no                           
   RPACOR =    2.000    partial core radius                                     
   POMASS =   58.690; ZVAL   =   10.000    mass and valenz                      
   RCORE  =    2.300    outmost cutoff radius                                   
   RWIGS  =    2.430; RWIGS  =    1.286    wigner-seitz radius (au A)           
   ENMAX  =  269.532; ENMIN  =  202.149 eV                                      
   RCLOC  =    1.201    cutoff for local pot                                    
   LCOR   =        T    correct aug charges                                     
   LPAW   =        T    paw PP                                                  
   EAUG   =  544.565                                                            
   DEXC   =    0.000                                                            
   RMAX   =    2.357    core radius for proj-oper                               
   RAUG   =    1.300    factor for augmentation sphere                          
   RDEP   =    2.390    radius for radial grids                                 
   RDEPT  =    1.838    core radius for aug-charge                              
                                                                                
   Atomic configuration                                                         
    9 entries                                                                   
     n  l   j            E        occ.                                          
     1  0  0.50     -8206.4253   2.0000                                         
     2  0  0.50      -976.1748   2.0000                                         
     2  1  1.50      -839.0571   6.0000                                         
     3  0  0.50      -105.9991   2.0000                                         
     3  1  1.50       -66.4603   6.0000                                         
     3  2  2.50        -4.6458   9.0000                                         
     4  0  0.50        -4.4926   1.0000                                         
     4  1  1.50        -4.0817   0.0000                                         
     4  3  2.50        -1.3606   0.0000                                         
   Description                                                                  
     l       E           TYP  RCUT    TYP  RCUT                                 
     2     -4.6457903     23  2.300                                             
     2     -6.0063729     23  2.300                                             
     0     -4.4925590     23  2.300                                             
     0      5.0102601     23  2.300                                             
     1     -2.7211652     23  2.300                                             
     1     16.5183231     23  2.300                                             
  local pseudopotential read in
  partial core-charges read in
  partial kinetic energy density read in
  atomic valenz-charges read in
  non local Contribution for L=           2  read in
    real space projection operators read in
  non local Contribution for L=           2  read in
    real space projection operators read in
  non local Contribution for L=           0  read in
    real space projection operators read in
  non local Contribution for L=           0  read in
    real space projection operators read in
  non local Contribution for L=           1  read in
    real space projection operators read in
  non local Contribution for L=           1  read in
    real space projection operators read in
    PAW grid and wavefunctions read in
 
   number of l-projection  operators is LMAX  =           6
   number of lm-projection operators is LMMAX =          18
 
 Optimization of the real space projectors (new method)

 maximal supplied QI-value         = 14.36
 optimisation between [QCUT,QGAM] = [ 11.92, 23.98] = [ 39.79,161.09] Ry 
 Optimized for a Real-space Cutoff    1.49 Angstroem

   l    n(q)    QCUT    max X(q) W(low)/X(q) W(high)/X(q)  e(spline) 
   2     10    11.920    66.195    0.79E-04    0.18E-03    0.24E-06
   2     10    11.920    64.643    0.81E-04    0.19E-03    0.24E-06
   0     11    11.920    95.520    0.28E-04    0.54E-04    0.18E-06
   0     11    11.920    63.403    0.27E-04    0.52E-04    0.17E-06
   1     10    11.920    19.961    0.18E-04    0.11E-03    0.23E-06
   1     10    11.920    13.289    0.25E-04    0.87E-04    0.19E-06
 Optimization of the real space projectors (new method)

 maximal supplied QI-value         = 16.25
 optimisation between [QCUT,QGAM] = [ 11.86, 23.89] = [ 39.41,159.82] Ry 
 Optimized for a Real-space Cutoff    1.49 Angstroem

   l    n(q)    QCUT    max X(q) W(low)/X(q) W(high)/X(q)  e(spline) 
   2     10    11.864    80.901    0.13E-03    0.23E-03    0.37E-06
   2     10    11.864    75.754    0.13E-03    0.23E-03    0.38E-06
   0     11    11.864    58.752    0.44E-04    0.11E-04    0.20E-06
   0     11    11.864    30.679    0.36E-04    0.10E-04    0.18E-06
   1     10    11.864    17.977    0.31E-04    0.45E-04    0.10E-06
   1     10    11.864    13.559    0.25E-04    0.37E-04    0.89E-07
 Optimization of the real space projectors (new method)

 maximal supplied QI-value         = 16.25
 optimisation between [QCUT,QGAM] = [ 11.86, 23.89] = [ 39.41,159.82] Ry 
 Optimized for a Real-space Cutoff    1.33 Angstroem

   l    n(q)    QCUT    max X(q) W(low)/X(q) W(high)/X(q)  e(spline) 
   2      9    11.864    65.824    0.22E-03    0.53E-03    0.26E-06
   2      9    11.864    61.429    0.22E-03    0.53E-03    0.26E-06
   0      9    11.864    56.174    0.21E-03    0.32E-04    0.15E-06
   0      9    11.864    31.263    0.19E-03    0.30E-04    0.14E-06
   1      9    11.864    19.828    0.63E-04    0.30E-03    0.16E-06
   1      9    11.864    15.139    0.49E-04    0.25E-03    0.13E-06
 Optimization of the real space projectors (new method)

 maximal supplied QI-value         = 16.25
 optimisation between [QCUT,QGAM] = [ 11.86, 23.89] = [ 39.41,159.82] Ry 
 Optimized for a Real-space Cutoff    1.49 Angstroem

   l    n(q)    QCUT    max X(q) W(low)/X(q) W(high)/X(q)  e(spline) 
   2     10    11.864     4.610    0.10E-03    0.20E-03    0.29E-06
   2     10    11.864     8.522    0.17E-03    0.33E-03    0.50E-06
   0     11    11.864    51.609    0.52E-04    0.55E-04    0.33E-06
   0     11    11.864    27.747    0.46E-04    0.52E-04    0.31E-06
   1     10    11.864    20.408    0.54E-04    0.25E-04    0.21E-06
   1     10    11.864    13.425    0.48E-04    0.22E-04    0.18E-06
 Optimization of the real space projectors (new method)

 maximal supplied QI-value         = 16.25
 optimisation between [QCUT,QGAM] = [ 11.86, 23.89] = [ 39.41,159.82] Ry 
 Optimized for a Real-space Cutoff    1.33 Angstroem

   l    n(q)    QCUT    max X(q) W(low)/X(q) W(high)/X(q)  e(spline) 
   2      9    11.864    60.317    0.21E-03    0.51E-03    0.25E-06
   2      9    11.864    55.921    0.21E-03    0.51E-03    0.26E-06
   0      9    11.864    51.690    0.22E-03    0.30E-04    0.17E-06
   0      9    11.864    30.015    0.20E-03    0.28E-04    0.15E-06
   1      9    11.864    18.849    0.76E-04    0.33E-03    0.17E-06
   1      9    11.864    14.624    0.60E-04    0.28E-03    0.15E-06
  PAW_PBE Pt 04Feb2005                  :
 energy of atom  1       EATOM= -729.1176
 kinetic energy error for atom=    0.0021 (will be added to EATOM!!)
  PAW_PBE Fe 06Sep2000                  :
 energy of atom  2       EATOM= -594.3153
 kinetic energy error for atom=    0.0024 (will be added to EATOM!!)
  PAW_PBE Co 02Aug2007                  :
 energy of atom  3       EATOM= -813.3670
 kinetic energy error for atom=    0.0026 (will be added to EATOM!!)
  PAW_PBE Cu 22Jun2005                  :
 energy of atom  4       EATOM=-1390.9808
 kinetic energy error for atom=    0.0036 (will be added to EATOM!!)
  PAW_PBE Ni 02Aug2007                  :
 energy of atom  5       EATOM=-1077.6739
 kinetic energy error for atom=    0.0027 (will be added to EATOM!!)
 
 
 POSCAR: 11.16                                   
  positions in direct lattice
  velocities in cartesian coordinates
 exchange correlation table for  LEXCH =        8
   RHO(1)=    0.500       N(1)  =     2000
   RHO(2)=  100.500       N(2)  =     4000
 


--------------------------------------------------------------------------------------------------------


 ion  position               nearest neighbor table
   1  0.779  0.882  0.310-  49 2.56  59 2.61  28 2.64  11 2.73  19 2.77   4 2.78  61 2.78  60 2.79
                            29 2.80  33 2.82  12 2.83   2 2.89
   2  0.038  0.880  0.306-  79 2.54  77 2.58  28 2.71  30 2.76  33 2.77  60 2.78   6 2.78  52 2.80
                             4 2.81  22 2.86  16 2.89   1 2.89
   3  0.275  0.379  0.314-  64 2.54  31 2.66  68 2.66  39 2.71   5 2.74  13 2.76  33 2.77  25 2.79
                            19 2.82  43 2.84  30 2.86  18 2.98
   4  0.871  0.964  0.411-  60 2.68   9 2.73  17 2.75   6 2.76   1 2.78  16 2.78  12 2.81   2 2.81
                            11 2.84
   5  0.111  0.468  0.415-  39 2.63  33 2.67  12 2.73   3 2.74   7 2.74  16 2.76  10 2.78  25 2.83
                            13 2.93
   6  0.121  0.959  0.410-  52 2.63   8 2.76   4 2.76  22 2.78  16 2.78  14 2.78   2 2.78   9 2.82
                            10 2.85
   7  0.872  0.455  0.417-  39 2.62  75 2.63   5 2.74  15 2.74  29 2.75   9 2.76  10 2.76  27 2.85
                            12 2.87
   8  0.368  0.960  0.412-  43 2.55  52 2.62  61 2.67  14 2.74   6 2.76  13 2.77  27 2.78  10 2.78
                            11 2.80
   9  0.867  0.211  0.409-  75 2.63  60 2.66   4 2.73   7 2.76  17 2.77  15 2.77  22 2.77   6 2.82
                            10 2.88
  10  0.124  0.213  0.412-  39 2.63  43 2.67  22 2.72  13 2.74   7 2.76   5 2.78   8 2.78   6 2.85
                             9 2.88
  11  0.619  0.959  0.413-  61 2.70   1 2.73  12 2.75  13 2.76  27 2.77  17 2.79   8 2.80  19 2.81
                             4 2.84
  12  0.868  0.714  0.416-  33 2.68  29 2.71   5 2.73  11 2.75  16 2.77   4 2.81  27 2.82   1 2.83
                             7 2.87
  13  0.373  0.206  0.414-  43 2.66  10 2.74  19 2.75  11 2.76   3 2.76   8 2.77  17 2.78  25 2.82
                             5 2.93
  14  0.373  0.712  0.414-  44 2.61  52 2.65  27 2.72   8 2.74  30 2.74   6 2.78  15 2.79  25 2.83
                            16 2.85
  15  0.623  0.463  0.414-  44 2.61  75 2.64  18 2.72   7 2.74  27 2.74   9 2.77  14 2.79  17 2.86
                            25 2.86
  16  0.117  0.712  0.414-  33 2.62  30 2.73   5 2.76  12 2.77   4 2.78   6 2.78  25 2.80  14 2.85
                             2 2.89
  17  0.621  0.208  0.411-  18 2.70  60 2.72   4 2.75   9 2.77  13 2.78  11 2.79  19 2.80  25 2.83
                            15 2.86
  18  0.543  0.377  0.314-  67 2.54  68 2.60  26 2.69  17 2.70  15 2.72  44 2.74  60 2.77  75 2.78
                            25 2.80  30 2.86  19 2.88   3 2.98
  19  0.528  0.127  0.309-  80 2.53  68 2.54  59 2.59  43 2.67  13 2.75   1 2.77  17 2.80  11 2.81
                             3 2.82  61 2.82  18 2.88  60 2.90
  20  0.548  0.125  0.055-  37 2.53  48 2.54  57 2.55  62 2.71  47 2.82  63 2.85  34 2.87  56 2.88
                            45 2.97
  21  0.113  0.452  0.129-  47 2.51  36 2.52  40 2.52  42 2.61  64 2.68  69 2.70  31 2.75  70 2.76
                            50 2.78  57 2.80  74 3.00  58 3.07
  22  0.044  0.134  0.310-  65 2.52  77 2.55  55 2.57  43 2.72  10 2.72  39 2.74   9 2.77   6 2.78
                            52 2.82  75 2.85   2 2.86  60 2.90  31 3.33
  23  0.028  0.136  0.041-  70 2.55  41 2.58  40 2.59  76 2.71  24 2.71  62 2.73  45 2.79  35 2.98
                            53 2.99
  24  0.129  0.957  0.136-  79 2.51  35 2.55  53 2.57  77 2.57  55 2.59  70 2.67  58 2.70  23 2.71
                            73 2.74  38 2.74  66 2.82  41 2.94
  25  0.368  0.461  0.415-  30 2.77   3 2.79  18 2.80  16 2.80  13 2.82  17 2.83   5 2.83  14 2.83
                            15 2.86
  26  0.453  0.553  0.219-  74 2.50  73 2.52  51 2.55  79 2.63  30 2.66  44 2.68  18 2.69  78 2.73
                            32 2.75  68 2.83  64 2.87  67 2.92
  27  0.617  0.711  0.415-  44 2.64  61 2.67  14 2.72  15 2.74  29 2.75  11 2.77   8 2.78  12 2.82
                             7 2.85
  28  0.947  0.780  0.216-  50 2.54  58 2.55  66 2.61   1 2.64  33 2.66  42 2.66  49 2.67   2 2.71
                            64 2.77  59 2.92  77 3.17  79 3.22
  29  0.793  0.624  0.316-  42 2.54  32 2.62  49 2.63  39 2.65  75 2.69  12 2.71   7 2.75  27 2.75
                            33 2.76   1 2.80  61 2.81  44 2.85
  30  0.284  0.631  0.314-  79 2.54  64 2.60  26 2.66  16 2.73  14 2.74  33 2.76   2 2.76  52 2.76
                            25 2.77  44 2.80   3 2.86  18 2.86
  31  0.191  0.274  0.227-  70 2.48  43 2.55  57 2.58  39 2.60  55 2.63  65 2.63   3 2.66  21 2.75
                            42 2.83  80 2.89  64 3.04  68 3.07  22 3.33
  32  0.698  0.554  0.222-  54 2.55  69 2.56  51 2.58  29 2.62  49 2.65  44 2.65  75 2.66  78 2.68
                            26 2.75  65 2.75  42 2.76  67 2.81
  33  0.035  0.634  0.318-  16 2.62  64 2.65  28 2.66   5 2.67  12 2.68  42 2.69  29 2.76  30 2.76
                             3 2.77   2 2.77  39 2.81   1 2.82
  34  0.791  0.856  0.057-  50 2.33  48 2.42  66 2.53  36 2.63  71 2.72  63 2.73  20 2.87  35 2.96

  35  0.055  0.857  0.049-  36 2.44  58 2.50  24 2.55  66 2.59  72 2.61  53 2.87  34 2.96  23 2.98

  36  0.045  0.644  0.053-  35 2.44  21 2.52  58 2.52  50 2.60  34 2.63  72 2.66  47 2.89
  37  0.624  0.234  0.135-  51 2.47  67 2.50  56 2.51  20 2.53  68 2.54  59 2.54  62 2.56  74 2.60
                            41 2.61  66 2.84
  38  0.379  0.949  0.134-  45 2.38  53 2.39  80 2.46  55 2.51  78 2.53  63 2.53  73 2.56  54 2.59
                            48 2.63  24 2.74  57 2.81  70 2.83
  39  0.029  0.386  0.320-  42 2.57  31 2.60   7 2.62  10 2.63   5 2.63  29 2.65  65 2.67  75 2.70
                             3 2.71  22 2.74  33 2.81  43 3.01
  40  0.009  0.376  0.046-  69 2.35  76 2.50  21 2.52  70 2.57  23 2.59  71 2.65  45 3.06
  41  0.865  0.220  0.133-  77 2.44  76 2.45  67 2.51  65 2.53  62 2.54  23 2.58  37 2.61  51 2.62
                            69 2.66  66 2.74  70 2.77  24 2.94
  42  0.952  0.540  0.224-  50 2.49  29 2.54  39 2.57  69 2.57  21 2.61  28 2.66  65 2.68  33 2.69
                            32 2.76  49 2.77  64 2.80  31 2.83
  43  0.297  0.114  0.318-  55 2.51  31 2.55   8 2.55  80 2.58  13 2.66  10 2.67  19 2.67  61 2.70
                            52 2.70  22 2.72   3 2.84  39 3.01
  44  0.537  0.626  0.319-  15 2.61  78 2.61  14 2.61  27 2.64  32 2.65  26 2.68  61 2.73  75 2.73
                            18 2.74  52 2.77  30 2.80  29 2.85
  45  0.290  0.109  0.052-  38 2.38  70 2.41  53 2.53  57 2.57  63 2.71  23 2.79  20 2.97  40 3.06

  46  0.552  0.621  0.053-  54 2.36  73 2.39  51 2.39  71 2.52  76 2.66  56 2.71  63 2.77  53 2.82
                            72 2.88
  47  0.302  0.384  0.052-  74 2.30  21 2.51  57 2.60  56 2.63  72 2.64  20 2.82  36 2.89
  48  0.619  0.942  0.137-  49 2.37  34 2.42  80 2.48  54 2.49  63 2.51  20 2.54  59 2.59  38 2.63
                            50 2.72  57 2.88
  49  0.704  0.788  0.221-  48 2.37  50 2.43  54 2.48   1 2.56  29 2.63  61 2.64  32 2.65  28 2.67
                            80 2.69  78 2.71  42 2.77  59 2.94
  50  0.854  0.690  0.133-  34 2.33  71 2.37  49 2.43  42 2.49  54 2.52  69 2.53  28 2.54  36 2.60
                            48 2.72  21 2.78
  51  0.628  0.453  0.132-  46 2.39  76 2.42  37 2.47  56 2.49  26 2.55  32 2.58  67 2.58  41 2.62
                            69 2.71  74 2.75  73 2.87  54 2.92
  52  0.290  0.875  0.317-  55 2.42  79 2.44  78 2.56   8 2.62   6 2.63  14 2.65  43 2.70  61 2.72
                            30 2.76  44 2.77   2 2.80  22 2.82
  53  0.303  0.876  0.047-  73 2.38  38 2.39  45 2.53  24 2.57  63 2.63  46 2.82  72 2.86  35 2.87
                            23 2.99
  54  0.615  0.721  0.132-  46 2.36  71 2.46  63 2.46  49 2.48  48 2.49  50 2.52  32 2.55  78 2.57
                            38 2.59  73 2.62  69 2.90  51 2.92
  55  0.231  0.021  0.228-  52 2.42  38 2.51  43 2.51  80 2.52  79 2.53  78 2.53  22 2.57  24 2.59
                            31 2.63  70 2.72  77 2.96
  56  0.535  0.387  0.043-  74 2.48  51 2.49  37 2.51  47 2.63  72 2.70  46 2.71  76 2.73  20 2.88

  57  0.368  0.206  0.140-  68 2.49  20 2.55  45 2.57  31 2.58  80 2.58  47 2.60  70 2.78  21 2.80
                            38 2.81  74 2.85  48 2.88
  58  0.147  0.707  0.141-  72 2.43  64 2.43  79 2.47  35 2.50  36 2.52  28 2.55  73 2.69  24 2.70
                            74 2.73  21 3.07
  59  0.699  0.054  0.219-  66 2.51  37 2.54  60 2.58  19 2.59  48 2.59   1 2.61  68 2.75  67 2.79
                            77 2.83  80 2.90  28 2.92  49 2.94
  60  0.788  0.127  0.312-  67 2.48  77 2.53  59 2.58   9 2.66   4 2.68  17 2.72  18 2.77   2 2.78
                             1 2.79  75 2.90  22 2.90  19 2.90
  61  0.536  0.871  0.316-  78 2.47  80 2.48  49 2.64  27 2.67   8 2.67  43 2.70  11 2.70  52 2.72
                            44 2.73   1 2.78  29 2.81  19 2.82
  62  0.787  0.130  0.044-  66 2.49  41 2.54  37 2.56  20 2.71  23 2.73  76 2.75
  63  0.539  0.875  0.043-  54 2.46  48 2.51  38 2.53  53 2.63  45 2.71  34 2.73  71 2.77  46 2.77
                            20 2.85
  64  0.203  0.540  0.223-  58 2.43   3 2.54  30 2.60  74 2.62  33 2.65  21 2.68  68 2.74  28 2.77
                            42 2.80  26 2.87  31 3.04
  65  0.942  0.305  0.224-  69 2.47  22 2.52  41 2.53  75 2.55  67 2.58  31 2.63  70 2.65  77 2.66
                            39 2.67  42 2.68  32 2.75
  66  0.870  0.972  0.133-  62 2.49  59 2.51  77 2.53  34 2.53  35 2.59  28 2.61  41 2.74  24 2.82
                            37 2.84
  67  0.716  0.294  0.227-  60 2.48  37 2.50  41 2.51  18 2.54  75 2.55  77 2.58  51 2.58  65 2.58
                            59 2.79  32 2.81  26 2.92
  68  0.452  0.300  0.222-  74 2.46  57 2.49  37 2.54  19 2.54  18 2.60   3 2.66  64 2.74  59 2.75
                            26 2.83  31 3.07
  69  0.869  0.456  0.133-  40 2.35  71 2.47  65 2.47  76 2.48  50 2.53  32 2.56  42 2.57  41 2.66
                            21 2.70  51 2.71  70 2.84  54 2.90
  70  0.122  0.200  0.133-  45 2.41  31 2.48  23 2.55  40 2.57  65 2.65  24 2.67  55 2.72  21 2.76
                            41 2.77  57 2.78  38 2.83  69 2.84
  71  0.778  0.619  0.047-  50 2.37  54 2.46  69 2.47  46 2.52  40 2.65  76 2.66  34 2.72  63 2.77

  72  0.291  0.626  0.051-  58 2.43  74 2.44  73 2.49  35 2.61  47 2.64  36 2.66  56 2.70  53 2.86
                            46 2.88
  73  0.381  0.719  0.131-  53 2.38  46 2.39  72 2.49  26 2.52  79 2.56  38 2.56  78 2.57  54 2.62
                            58 2.69  24 2.74  51 2.87  74 2.95
  74  0.381  0.455  0.133-  47 2.30  72 2.44  68 2.46  56 2.48  26 2.50  37 2.60  64 2.62  58 2.73
                            51 2.75  57 2.85  73 2.95  21 3.00
  75  0.787  0.386  0.318-  65 2.55  67 2.55   9 2.63   7 2.63  15 2.64  32 2.66  29 2.69  39 2.70
                            44 2.73  18 2.78  22 2.85  60 2.90
  76  0.785  0.378  0.046-  51 2.42  41 2.45  69 2.48  40 2.50  71 2.66  46 2.66  23 2.71  56 2.73
                            62 2.75
  77  0.947  0.064  0.221-  41 2.44  66 2.53  60 2.53  22 2.55  24 2.57  67 2.58   2 2.58  65 2.66
                            59 2.83  55 2.96  79 3.05  28 3.17
  78  0.458  0.794  0.226-  61 2.47  38 2.53  55 2.53  80 2.54  52 2.56  79 2.57  73 2.57  54 2.57
                            44 2.61  32 2.68  49 2.71  26 2.73
  79  0.227  0.797  0.225-  52 2.44  58 2.47  24 2.51  55 2.53  30 2.54   2 2.54  73 2.56  78 2.57
                            26 2.63  77 3.05  28 3.22
  80  0.457  0.022  0.224-  38 2.46  48 2.48  61 2.48  55 2.52  19 2.53  78 2.54  43 2.58  57 2.58
                            49 2.69  31 2.89  59 2.90
 
  LATTYP: Found a hexagonal cell.
 ALAT       =    11.1599998474
 C/A-ratio  =     1.9713261918
  
  Lattice vectors:
  
 A1 = (   5.5799999237,  -9.6648433741,   0.0000000000)
 A2 = ( -11.1599998474,   0.0000000000,   0.0000000000)
 A3 = (   0.0000000000,   0.0000000000, -22.0000000000)


Analysis of symmetry for initial positions (statically):
=====================================================================
 Subroutine PRICEL returns:
 Original cell was already a primitive cell.
 

 Routine SETGRP: Setting up the symmetry group for a 
 hexagonal supercell.


 Subroutine GETGRP returns: Found  1 space group operations
 (whereof  1 operations were pure point group operations)
 out of a pool of 24 trial point group operations.


The static configuration has the point symmetry C_1 .


Analysis of symmetry for dynamics (positions and initial velocities):
=====================================================================
 Subroutine PRICEL returns:
 Original cell was already a primitive cell.
 

 Routine SETGRP: Setting up the symmetry group for a 
 hexagonal supercell.


 Subroutine GETGRP returns: Found  1 space group operations
 (whereof  1 operations were pure point group operations)
 out of a pool of 24 trial point group operations.


The dynamic configuration has the point symmetry C_1 .


Analysis of structural, dynamic, and magnetic symmetry:
=====================================================================
 Subroutine PRICEL returns:
 Original cell was already a primitive cell.
 

 Routine SETGRP: Setting up the symmetry group for a 
 hexagonal supercell.


 Subroutine GETGRP returns: Found  1 space group operations
 (whereof  1 operations were pure point group operations)
 out of a pool of 24 trial point group operations.


The magnetic configuration has the point symmetry C_1 .


 Subroutine INISYM returns: Found  1 space group operations
 (whereof  1 operations are pure point group operations),
 and found     1 'primitive' translations

 
 
 KPOINTS: mesh auto                               

Automatic generation of k-mesh.
Space group operators:
 irot       det(A)        alpha          n_x          n_y          n_z        tau_x        tau_y        tau_z
    1     1.000000     0.000000     1.000000     0.000000     0.000000     0.000000     0.000000     0.000000
 
 Subroutine IBZKPT returns following result:
 ===========================================
 
 Found      4 irreducible k-points:
 
 Following reciprocal coordinates:
            Coordinates               Weight
  0.000000  0.000000  0.000000      1.000000
  0.500000  0.000000  0.000000      1.000000
  0.000000  0.500000  0.000000      1.000000
  0.500000  0.500000  0.000000      1.000000
 
 Following cartesian coordinates:
            Coordinates               Weight
  0.000000  0.000000  0.000000      1.000000
  0.044803 -0.025867  0.000000      1.000000
  0.000000  0.051734  0.000000      1.000000
  0.044803  0.025867  0.000000      1.000000
 
 TETIRR: Found     12 inequivalent tetrahedra from       24


--------------------------------------------------------------------------------------------------------




 Dimension of arrays:
   k-points           NKPTS =      4   k-points in BZ     NKDIM =      4   number of bands    NBANDS=    600
   number of dos      NEDOS =   1000   number of ions     NIONS =     80
   non local maximal  LDIM  =      6   non local SUM 2l+1 LMDIM =     18
   total plane-waves  NPLWV = ******
   max r-space proj   IRMAX =   8018   max aug-charges    IRDMAX=  34929
   dimension x,y,z NGX =    90 NGY =   90 NGZ =  168
   dimension x,y,z NGXF=   180 NGYF=  180 NGZF=  336
   support grid    NGXF=   180 NGYF=  180 NGZF=  336
   ions per type =              32  13  10  13  12
   NGX,Y,Z   is equivalent  to a cutoff of  13.41, 13.41, 12.70 a.u.
   NGXF,Y,Z  is equivalent  to a cutoff of  26.81, 26.81, 25.39 a.u.

 SYSTEM =  Pt111                                   
 POSCAR =  11.16                                   

 Startparameter for this run:
   NWRITE =      2    write-flag & timer
   PREC   = accura    normal or accurate (medium, high low for compatibility)
   ISTART =      0    job   : 0-new  1-cont  2-samecut
   ICHARG =      2    charge: 1-file 2-atom 10-const
   ISPIN  =      2    spin polarized calculation?
   LNONCOLLINEAR =      F non collinear calculations
   LSORBIT =      F    spin-orbit coupling
   INIWAV =      1    electr: 0-lowe 1-rand  2-diag
   LASPH  =      F    aspherical Exc in radial PAW
   METAGGA=      F    non-selfconsistent MetaGGA calc.

 Electronic Relaxation 1
   ENCUT  =  550.0 eV  40.42 Ry    6.36 a.u.  21.34 21.34 42.07*2*pi/ulx,y,z
   ENINI  =  550.0     initial cutoff
   ENAUG  =  587.0 eV  augmentation charge cutoff
   NELM   =    200;   NELMIN=  2; NELMDL= -5     # of ELM steps 
   EDIFF  = 0.1E-04   stopping-criterion for ELM
   LREAL  =      T    real-space projection
   NLSPLINE    = F    spline interpolate recip. space projectors
   LCOMPAT=      F    compatible to vasp.4.4
   GGA_COMPAT  = T    GGA compatible to vasp.4.4-vasp.4.6
   LMAXPAW     = -100 max onsite density
   LMAXMIX     =    2 max onsite mixed and CHGCAR
   VOSKOWN=      0    Vosko Wilk Nusair interpolation
   ROPT   =   -0.00025  -0.00025  -0.00025  -0.00025
   ROPT   =   -0.00025
 Ionic relaxation
   EDIFFG = -.5E-01   stopping-criterion for IOM
   NSW    =      0    number of steps for IOM
   NBLOCK =      1;   KBLOCK =      1    inner block; outer block 
   IBRION =     -1    ionic relax: 0-MD 1-quasi-New 2-CG
   NFREE  =      0    steps in history (QN), initial steepest desc. (CG)
   ISIF   =      2    stress and relaxation
   IWAVPR =     10    prediction:  0-non 1-charg 2-wave 3-comb
   ISYM   =      2    0-nonsym 1-usesym 2-fastsym
   LCORR  =      T    Harris-Foulkes like correction to forces

   POTIM  = 0.5000    time-step for ionic-motion
   TEIN   =    0.0    initial temperature
   TEBEG  =    0.0;   TEEND  =   0.0 temperature during run
   SMASS  =  -3.00    Nose mass-parameter (am)
   estimated Nose-frequenzy (Omega)   =  0.10E-29 period in steps =****** mass=  -0.285E-26a.u.
   SCALEE = 1.0000    scale energy and forces
   NPACO  =    256;   APACO  = 16.0  distance and # of slots for P.C.
   PSTRESS=    0.0 pullay stress

  Mass of Ions in am
   POMASS = 195.08 55.85 58.93 63.55 58.69
  Ionic Valenz
   ZVAL   =  10.00  8.00  9.00 11.00 10.00
  Atomic Wigner-Seitz radii
   RWIGS  =  -1.00 -1.00 -1.00 -1.00 -1.00
  virtual crystal weights 
   VCA    =   1.00  1.00  1.00  1.00  1.00
   NELECT =     777.0000    total number of electrons
   NUPDOWN=      -1.0000    fix difference up-down

 DOS related values:
   EMIN   =  10.00;   EMAX   =-10.00  energy-range for DOS
   EFERMI =   0.00
   ISMEAR =    -5;   SIGMA  =   0.03  broadening in eV -4-tet -1-fermi 0-gaus

 Electronic relaxation 2 (details)
   IALGO  =     68    algorithm
   LDIAG  =      T    sub-space diagonalisation (order eigenvalues)
   LSUBROT=      F    optimize rotation matrix (better conditioning)
   TURBO    =      0    0=normal 1=particle mesh
   IRESTART =      0    0=no restart 2=restart with 2 vectors
   NREBOOT  =      0    no. of reboots
   NMIN     =      0    reboot dimension
   EREF     =   0.00    reference energy to select bands
   IMIX   =      4    mixing-type and parameters
     AMIX     =   0.40;   BMIX     =  1.00
     AMIX_MAG =   1.60;   BMIX_MAG =  1.00
     AMIN     =   0.10
     WC   =   100.;   INIMIX=   1;  MIXPRE=   1;  MAXMIX= -45

 Intra band minimization:
   WEIMIN = 0.0000     energy-eigenvalue tresh-hold
   EBREAK =  0.42E-08  absolut break condition
   DEPER  =   0.30     relativ break condition  

   TIME   =   0.40     timestep for ELM

  volume/ion in A,a.u.               =      29.66       200.17
  Fermi-wavevector in a.u.,A,eV,Ry     =   1.128378  2.132325 17.323440  1.273237
  Thomas-Fermi vector in A             =   2.265068
 
 Write flags
   LWAVE        =      F    write WAVECAR
   LDOWNSAMPLE  =      F    k-point downsampling of WAVECAR
   LCHARG       =      F    write CHGCAR
   LVTOT        =      F    write LOCPOT, total local potential
   LVHAR        =      F    write LOCPOT, Hartree potential only
   LELF         =      F    write electronic localiz. function (ELF)
   LORBIT       =     11    0 simple, 1 ext, 2 COOP (PROOUT), +10 PAW based schemes


 Dipole corrections
   LMONO  =      F    monopole corrections only (constant potential shift)
   LDIPOL =      F    correct potential (dipole corrections)
   IDIPOL =      0    1-x, 2-y, 3-z, 4-all directions 
   EPSILON=  1.0000000 bulk dielectric constant

 Exchange correlation treatment:
   GGA     =    --    GGA type
   LEXCH   =     8    internal setting for exchange type
   VOSKOWN=      0    Vosko Wilk Nusair interpolation
   LHFCALC =     F    Hartree Fock is set to
   LHFONE  =     F    Hartree Fock one center treatment
   AEXX    =    0.0000 exact exchange contribution

 Linear response parameters
   LEPSILON=     F    determine dielectric tensor
   LRPA    =     F    only Hartree local field effects (RPA)
   LNABLA  =     F    use nabla operator in PAW spheres
   LVEL    =     F    velocity operator in full k-point grid
   LINTERFAST=   F  fast interpolation
   KINTER  =     0    interpolate to denser k-point grid
   CSHIFT  =0.1000    complex shift for real part using Kramers Kronig
   OMEGAMAX=  -1.0    maximum frequency
   DEG_THRESHOLD= 0.2000000E-02 threshold for treating states as degnerate
   RTIME   =   -0.100 relaxation time in fs
  (WPLASMAI=    0.000 imaginary part of plasma frequency in eV, 0.658/RTIME)
   DFIELD  = 0.0000000 0.0000000 0.0000000 field for delta impulse in time
 
 Orbital magnetization related:
   ORBITALMAG=     F  switch on orbital magnetization
   LCHIMAG   =     F  perturbation theory with respect to B field
   DQ        =  0.001000  dq finite difference perturbation B field
   LLRAUG    =     F  two centre corrections for induced B field



--------------------------------------------------------------------------------------------------------


 Static calculation
 charge density and potential will be updated during run
 spin polarized calculation
 RMM-DIIS sequential band-by-band and
  variant of blocked Davidson during initial phase
 perform sub-space diagonalisation
    before iterative eigenvector-optimisation
 modified Broyden-mixing scheme, WC =      100.0
 initial mixing is a Kerker type mixing with AMIX =  0.4000 and BMIX =      1.0000
 Hartree-type preconditioning will be used
 using additional bands          211
 real space projection scheme for non local part
 use partial core corrections
 calculate Harris-corrections to forces 
   (improved forces if not selfconsistent)
 use gradient corrections 
 use of overlap-Matrix (Vanderbilt PP)
 Fermi weights with tetrahedron method with Bloechl corrections


--------------------------------------------------------------------------------------------------------


  energy-cutoff  :      550.00
  volume of cell :     2372.91
      direct lattice vectors                 reciprocal lattice vectors
    11.159999847  0.000000000  0.000000000     0.089605736 -0.051733896  0.000000000
     5.579999924  9.664843374  0.000000000     0.000000000  0.103467792  0.000000000
     0.000000000  0.000000000 22.000000000     0.000000000  0.000000000  0.045454545

  length of vectors
    11.159999847 11.159999847 22.000000000     0.103467792  0.103467792  0.045454545


 
 k-points in units of 2pi/SCALE and weight: mesh auto                               
   0.00000000  0.00000000  0.00000000       0.250
   0.04480287 -0.02586695  0.00000000       0.250
   0.00000000  0.05173390  0.00000000       0.250
   0.04480287  0.02586695  0.00000000       0.250
 
 k-points in reciprocal lattice and weights: mesh auto                               
   0.00000000  0.00000000  0.00000000       0.250
   0.50000000  0.00000000  0.00000000       0.250
   0.00000000  0.50000000  0.00000000       0.250
   0.50000000  0.50000000  0.00000000       0.250
 
 position of ions in fractional coordinates (direct lattice) 
   0.77907670  0.88189087  0.31049239
   0.03847038  0.88012596  0.30586484
   0.27498005  0.37901875  0.31412713
   0.87119716  0.96440084  0.41059352
   0.11076060  0.46824985  0.41534361
   0.12122146  0.95936418  0.41042542
   0.87211833  0.45515050  0.41650464
   0.36841127  0.95979028  0.41221380
   0.86721704  0.21120502  0.40909383
   0.12386541  0.21333536  0.41224519
   0.61944961  0.95876376  0.41287715
   0.86835835  0.71424673  0.41578259
   0.37278993  0.20592157  0.41386662
   0.37274282  0.71247698  0.41355609
   0.62293164  0.46279427  0.41361689
   0.11713014  0.71224648  0.41427265
   0.62103667  0.20779123  0.41084908
   0.54294807  0.37748998  0.31350220
   0.52816552  0.12714808  0.30904189
   0.54789162  0.12459941  0.05495393
   0.11309022  0.45198844  0.12914385
   0.04414464  0.13378849  0.31011038
   0.02813910  0.13591719  0.04069285
   0.12944994  0.95732372  0.13570000
   0.36772127  0.46106552  0.41482381
   0.45284464  0.55288076  0.21879599
   0.61733622  0.71129093  0.41460689
   0.94696320  0.78030755  0.21612381
   0.79337536  0.62415384  0.31622217
   0.28352859  0.63129386  0.31380001
   0.19116956  0.27372261  0.22664778
   0.69809584  0.55418836  0.22183174
   0.03502149  0.63442495  0.31826267
   0.79089783  0.85571111  0.05693591
   0.05541737  0.85678028  0.04902036
   0.04454520  0.64426156  0.05327044
   0.62408445  0.23411447  0.13525967
   0.37921728  0.94943468  0.13403478
   0.02938495  0.38575701  0.31983650
   0.00934519  0.37620849  0.04618199
   0.86462675  0.22004240  0.13331057
   0.95243521  0.53951025  0.22440748
   0.29656146  0.11421772  0.31801658
   0.53700008  0.62560276  0.31914995
   0.28952478  0.10920505  0.05172683
   0.55166262  0.62076185  0.05264610
   0.30230685  0.38396240  0.05188353
   0.61868910  0.94174006  0.13708840
   0.70406503  0.78814984  0.22091382
   0.85413843  0.68998041  0.13304356
   0.62838666  0.45288244  0.13242399
   0.29046404  0.87521319  0.31675583
   0.30264817  0.87617202  0.04737812
   0.61451448  0.72117502  0.13198354
   0.23116827  0.02101838  0.22785173
   0.53520175  0.38737128  0.04330257
   0.36784685  0.20645762  0.13962602
   0.14661493  0.70742673  0.14141011
   0.69886886  0.05368276  0.21874161
   0.78824920  0.12672178  0.31165929
   0.53635749  0.87058224  0.31564782
   0.78664968  0.13031128  0.04427631
   0.53868923  0.87484630  0.04283288
   0.20264571  0.54034853  0.22279838
   0.94204477  0.30457787  0.22379532
   0.87032707  0.97166470  0.13324893
   0.71610986  0.29415408  0.22669852
   0.45213822  0.29957558  0.22177031
   0.86930276  0.45578747  0.13329936
   0.12218349  0.20019020  0.13310062
   0.77828336  0.61890418  0.04704588
   0.29123307  0.62553023  0.05141637
   0.38075020  0.71909883  0.13076230
   0.38073350  0.45454829  0.13329876
   0.78711107  0.38647038  0.31779647
   0.78469493  0.37762316  0.04633519
   0.94722450  0.06409528  0.22068098
   0.45823902  0.79385236  0.22646005
   0.22657808  0.79696433  0.22517312
   0.45681485  0.02169772  0.22438779
 
 position of ions in cartesian coordinates  (Angst):
  13.61544688  8.52333712  6.83083266
   5.34043220  8.50627952  6.72902646
   5.18370192  3.66315684  6.91079680
  15.10391679  9.32078306  9.03305740
   3.84892234  4.52556143  9.13755951
   6.70608346  9.27210453  9.02935916
  12.27258025  4.39895832  9.16310213
   9.46709939  9.27622269  9.06870357
  10.85666607  2.04126348  9.00006418
   2.57274922  2.06185286  9.06939408
  12.26295923  9.26630158  9.08329725
  13.67637573  6.90308274  9.14721702
   5.30937788  1.99019971  9.10506560
   8.13543129  6.88597843  9.09823400
   9.53430904  4.47283415  9.09957160
   5.28150759  6.88375063  9.11399830
   8.09024423  2.00826971  9.03867969
   8.16569448  3.64838155  6.89704829
   6.60381341  1.22886628  6.79892168
   6.80973506  1.20423375  1.20898654
   3.78418231  4.36839751  2.84116475
   1.23919396  1.29304483  6.82242844
   1.07245025  1.31361834  0.89524266
   6.78652762  9.25238382  2.98540004
   6.67651486  4.45612602  9.12612372
   8.13882066  5.34350593  4.81351180
  10.85847540  6.87451541  9.12135162
  14.92222517  7.54155023  4.75472387
  12.33684724  6.03234910  6.95688775
   6.68679871  6.10135625  6.90360031
   3.66082445  2.64548620  4.98625114
  10.88312046  5.35614367  4.88029836
   3.93093100  6.13161780  7.00177879
  13.60128758  8.27031384  1.25259001
   5.39929170  8.28064724  1.07844787
   4.09210382  6.22668703  1.17194958
   8.27114106  2.26267969  2.97571279
   9.52991020  9.17613744  2.94876521
   2.48046010  3.72828111  7.03640300
   2.20353566  3.63599618  1.01600386
  10.87707098  2.12667529  2.93283260
  13.63964398  5.21428205  4.93696446
   3.94696070  1.10389636  6.99636466
   9.48378418  6.04635266  7.02129890
   3.84046068  1.05544972  1.13799036
   9.62040582  5.99956604  1.15821428
   5.51625456  3.71093646  1.14143763
  12.15947969  9.10177016  3.01594474
  12.25524167  7.61734480  4.86010398
  13.38227540  6.66855262  2.92695828
   9.53987898  4.37703787  2.91332788
   8.12526823  8.45879843  6.96862824
   8.26659336  8.46806531  1.04231862
  10.88213808  6.97004357  2.90363787
   2.69712037  0.20313935  5.01273811
   8.13438319  3.74388277  0.95265654
   5.25720424  1.99538056  3.07177241
   5.58366374  6.83716858  3.11102240
   8.09892612  0.51883542  4.81231535
   9.50396850  1.22474616  6.85650430
  10.84359832  8.41404101  6.94425213
   9.50614729  1.25943811  0.97407892
  10.89341395  8.45525245  0.94232343
   5.27667079  5.22238390  4.90156440
  12.21276394  2.94369739  4.92349714
  15.13473898  9.39098717  2.93147640
   9.63316560  2.84295309  4.98736754
   6.71749421  2.89535104  4.87894686
  12.24471267  4.40511447  2.93258587
   2.48062904  1.93480690  2.92821354
  12.13912747  5.98161200  1.03500929
   6.74061964  6.04565172  1.13116021
   8.26174356  6.94997756  2.87677051
   6.78536520  4.39313800  2.93257270
  10.94066417  3.73517571  6.99152230
  10.86433255  3.64966874  1.01937417
  10.92867695  0.61947082  4.85498161
   9.54364346  7.67245869  4.98212102
   6.97567218  7.70253538  4.95380861
   5.21912693  0.20970506  4.93653138
 


--------------------------------------------------------------------------------------------------------


 k-point  1 :   0.0000 0.0000 0.0000  plane waves:   69505
 k-point  2 :   0.5000 0.0000 0.0000  plane waves:   69454
 k-point  3 :   0.0000 0.5000 0.0000  plane waves:   69454
 k-point  4 :   0.5000 0.5000 0.0000  plane waves:   69454

 maximum and minimum number of plane-waves per node :     69505    69454

 maximum number of plane-waves:     69505
 maximum index in each direction: 
   IXMAX=   21   IYMAX=   21   IZMAX=   42
   IXMIN=  -21   IYMIN=  -21   IZMIN=  -42


 serial   3D FFT for wavefunctions
 parallel 3D FFT for charge:
    minimum data exchange during FFTs selected (reduces bandwidth)


 total amount of memory used by VASP MPI-rank0   425812. kBytes
=======================================================================

   base      :      30000. kBytes
   nonlr-proj:     100826. kBytes
   fftplans  :      15524. kBytes
   grid      :     140731. kBytes
   one-center:       2488. kBytes
   wavefun   :     136243. kBytes
 
     INWAV:  cpu time    0.0000: real time    0.0000
 Broyden mixing: mesh for mixing (old mesh)
   NGX = 43   NGY = 43   NGZ = 85
  (NGX  =180   NGY  =180   NGZ  =336)
  gives a total of 157165 points

 initial charge density was supplied:
 charge density of overlapping atoms calculated
 number of electron     777.0000000 magnetization     231.0000000
 keeping initial charge density in first step


--------------------------------------------------------------------------------------------------------


 Maximum index for non-local projection operator         7751
 Maximum index for augmentation-charges         1800 (set IRDMAX)


--------------------------------------------------------------------------------------------------------


 First call to EWALD:  gamma=   0.133
 Maximum number of real-space cells 4x 4x 2
 Maximum number of reciprocal cells 2x 2x 4

    FEWALD:  cpu time    0.0038: real time    0.0038


--------------------------------------- Iteration      1(   1)  ---------------------------------------


    POTLOK:  cpu time    0.5708: real time    0.5929
    SETDIJ:  cpu time    0.0339: real time    0.0342
     EDDAV:  cpu time   62.9003: real time   63.2744
 BZINTS: Fermi energy: 16.460447;777.000000 electrons
         Band energy:7255.574804;  BLOECHL correction: -0.008399
       DOS:  cpu time    0.0191: real time    0.0191
    --------------------------------------------
      LOOP:  cpu time   63.5240: real time   63.9206

 eigenvalue-minimisations  :  9600
 total energy-change (2. order) : 0.7391145E+04  (-0.3323656E+05)
 number of electron     777.0000000 magnetization     231.0000000
 augmentation part      777.0000000 magnetization     231.0000000

 Free energy of the ion-electron system (eV)
  ---------------------------------------------------
  alpha Z        PSCENC =      2001.31358000
  Ewald energy   TEWEN  =    220595.68557874
  -Hartree energ DENC   =   -292134.88057324
  -exchange      EXHF   =         0.00000000
  -V(xc)+E(xc)   XCENC  =      1369.18409587
  PAW double counting   =     64134.66604118   -66036.56585687
  entropy T*S    EENTRO =         0.00000000
  eigenvalues    EBANDS =      7255.57480436
  atomic energy  EATOM  =     70206.16701721
  Solvation  Ediel_sol  =         0.00000000
  ---------------------------------------------------
  free energy    TOTEN  =      7391.14468724 eV

  energy without entropy =     7391.14468724  energy(sigma->0) =     7391.14468724


--------------------------------------------------------------------------------------------------------




--------------------------------------- Iteration      1(   2)  ---------------------------------------


     EDDAV:  cpu time   64.0555: real time   64.2073
 BZINTS: Fermi energy:  5.049608;777.000000 electrons
         Band energy: 486.543713;  BLOECHL correction: -0.043421
       DOS:  cpu time    0.0179: real time    0.0180
    --------------------------------------------
      LOOP:  cpu time   64.0734: real time   64.2253

 eigenvalue-minimisations  :  9880
 total energy-change (2. order) :-0.6769031E+04  (-0.6031574E+04)
 number of electron     777.0000000 magnetization     231.0000000
 augmentation part      777.0000000 magnetization     231.0000000

 Free energy of the ion-electron system (eV)
  ---------------------------------------------------
  alpha Z        PSCENC =      2001.31358000
  Ewald energy   TEWEN  =    220595.68557874
  -Hartree energ DENC   =   -292134.88057324
  -exchange      EXHF   =         0.00000000
  -V(xc)+E(xc)   XCENC  =      1369.18409587
  PAW double counting   =     64134.66604118   -66036.56585687
  entropy T*S    EENTRO =         0.00000000
  eigenvalues    EBANDS =       486.54371254
  atomic energy  EATOM  =     70206.16701721
  Solvation  Ediel_sol  =         0.00000000
  ---------------------------------------------------
  free energy    TOTEN  =       622.11359543 eV

  energy without entropy =      622.11359543  energy(sigma->0) =      622.11359543


--------------------------------------------------------------------------------------------------------




--------------------------------------- Iteration      1(   3)  ---------------------------------------


     EDDAV:  cpu time   63.7156: real time   63.8670
 BZINTS: Fermi energy:  2.803722;777.000000 electrons
         Band energy:-546.300553;  BLOECHL correction: -0.039611
       DOS:  cpu time    0.0174: real time    0.0175
    --------------------------------------------
      LOOP:  cpu time   63.7330: real time   63.8845

 eigenvalue-minimisations  :  9800
 total energy-change (2. order) :-0.1032844E+04  (-0.8559770E+03)
 number of electron     777.0000000 magnetization     231.0000000
 augmentation part      777.0000000 magnetization     231.0000000

 Free energy of the ion-electron system (eV)
  ---------------------------------------------------
  alpha Z        PSCENC =      2001.31358000
  Ewald energy   TEWEN  =    220595.68557874
  -Hartree energ DENC   =   -292134.88057324
  -exchange      EXHF   =         0.00000000
  -V(xc)+E(xc)   XCENC  =      1369.18409587
  PAW double counting   =     64134.66604118   -66036.56585687
  entropy T*S    EENTRO =         0.00000000
  eigenvalues    EBANDS =      -546.30055293
  atomic energy  EATOM  =     70206.16701721
  Solvation  Ediel_sol  =         0.00000000
  ---------------------------------------------------
  free energy    TOTEN  =      -410.73067005 eV

  energy without entropy =     -410.73067005  energy(sigma->0) =     -410.73067005


--------------------------------------------------------------------------------------------------------




--------------------------------------- Iteration      1(   4)  ---------------------------------------


     EDDAV:  cpu time   75.3927: real time   75.5716
 BZINTS: Fermi energy:  2.655748;777.000000 electrons
         Band energy:-622.491240;  BLOECHL correction: -0.084024
       DOS:  cpu time    0.0184: real time    0.0185
    --------------------------------------------
      LOOP:  cpu time   75.4112: real time   75.5901

 eigenvalue-minimisations  : 12120
 total energy-change (2. order) :-0.7619069E+02  (-0.7216667E+02)
 number of electron     777.0000000 magnetization     231.0000000
 augmentation part      777.0000000 magnetization     231.0000000

 Free energy of the ion-electron system (eV)
  ---------------------------------------------------
  alpha Z        PSCENC =      2001.31358000
  Ewald energy   TEWEN  =    220595.68557874
  -Hartree energ DENC   =   -292134.88057324
  -exchange      EXHF   =         0.00000000
  -V(xc)+E(xc)   XCENC  =      1369.18409587
  PAW double counting   =     64134.66604118   -66036.56585687
  entropy T*S    EENTRO =         0.00000000
  eigenvalues    EBANDS =      -622.49124014
  atomic energy  EATOM  =     70206.16701721
  Solvation  Ediel_sol  =         0.00000000
  ---------------------------------------------------
  free energy    TOTEN  =      -486.92135726 eV

  energy without entropy =     -486.92135726  energy(sigma->0) =     -486.92135726


--------------------------------------------------------------------------------------------------------




--------------------------------------- Iteration      1(   5)  ---------------------------------------


     EDDAV:  cpu time   72.4284: real time   72.5999
 BZINTS: Fermi energy:  2.652136;777.000000 electrons
         Band energy:-625.068269;  BLOECHL correction: -0.083829
       DOS:  cpu time    0.0190: real time    0.0190
    CHARGE:  cpu time    3.2160: real time    3.2239
    MIXING:  cpu time    0.0106: real time    0.0114
    --------------------------------------------
      LOOP:  cpu time   75.6741: real time   75.8544

 eigenvalue-minimisations  : 11520
 total energy-change (2. order) :-0.2577029E+01  (-0.2565283E+01)
 number of electron     777.0000019 magnetization     216.6914648
 augmentation part      335.6194023 magnetization     183.6219826

 Broyden mixing:
  rms(total) = 0.11114E+02    rms(broyden)= 0.11114E+02
  rms(prec ) = 0.11523E+02
  weight for this iteration     100.00

 Free energy of the ion-electron system (eV)
  ---------------------------------------------------
  alpha Z        PSCENC =      2001.31358000
  Ewald energy   TEWEN  =    220595.68557874
  -Hartree energ DENC   =   -292134.88057324
  -exchange      EXHF   =         0.00000000
  -V(xc)+E(xc)   XCENC  =      1369.18409587
  PAW double counting   =     64134.66604118   -66036.56585687
  entropy T*S    EENTRO =         0.00000000
  eigenvalues    EBANDS =      -625.06826931
  atomic energy  EATOM  =     70206.16701721
  Solvation  Ediel_sol  =         0.00000000
  ---------------------------------------------------
  free energy    TOTEN  =      -489.49838642 eV

  energy without entropy =     -489.49838642  energy(sigma->0) =     -489.49838642


--------------------------------------------------------------------------------------------------------




--------------------------------------- Iteration      1(   6)  ---------------------------------------


    POTLOK:  cpu time    0.5067: real time    0.5080
    SETDIJ:  cpu time    0.0342: real time    0.0343
    EDDIAG:  cpu time   10.5063: real time   10.5316
  RMM-DIIS:  cpu time   50.3693: real time   50.4884
    ORTHCH:  cpu time    1.4580: real time    1.4615
 BZINTS: Fermi energy:  1.414574;777.000000 electrons
         Band energy:***********;  BLOECHL correction: -0.040157
       DOS:  cpu time    0.0229: real time    0.0229
    CHARGE:  cpu time    3.2181: real time    3.2258
    MIXING:  cpu time    0.0108: real time    0.0112
    --------------------------------------------
      LOOP:  cpu time   66.1263: real time   66.2837

 eigenvalue-minimisations  : 11383
 total energy-change (2. order) :-0.2918655E+03  (-0.1017639E+03)
 number of electron     777.0000024 magnetization     213.2671799
 augmentation part      407.7489340 magnetization     177.6558237

 Broyden mixing:
  rms(total) = 0.21889E+02    rms(broyden)= 0.21889E+02
  rms(prec ) = 0.29012E+02
  weight for this iteration     100.00

 eigenvalues of (default mixing * dielectric matrix)
  average eigenvalue GAMMA=   0.1833
  0.1833

 Free energy of the ion-electron system (eV)
  ---------------------------------------------------
  alpha Z        PSCENC =      2001.31358000
  Ewald energy   TEWEN  =    220595.68557874
  -Hartree energ DENC   =   -290530.66558627
  -exchange      EXHF   =         0.00000000
  -V(xc)+E(xc)   XCENC  =      1328.36107041
  PAW double counting   =     68133.19385612   -69805.20654842
  entropy T*S    EENTRO =         0.00000000
  eigenvalues    EBANDS =     -2710.21289282
  atomic energy  EATOM  =     70206.16701721
  Solvation  Ediel_sol  =         0.00000000
  ---------------------------------------------------
  free energy    TOTEN  =      -781.36392505 eV

  energy without entropy =     -781.36392505  energy(sigma->0) =     -781.36392505


--------------------------------------------------------------------------------------------------------




--------------------------------------- Iteration      1(   7)  ---------------------------------------


    POTLOK:  cpu time    0.5068: real time    0.5080
    SETDIJ:  cpu time    0.0340: real time    0.0341
    EDDIAG:  cpu time   10.4732: real time   10.4981
  RMM-DIIS:  cpu time   49.1230: real time   49.2393
    ORTHCH:  cpu time    1.4469: real time    1.4503
 BZINTS: Fermi energy:  1.835791;777.000000 electrons
         Band energy:***********;  BLOECHL correction: -0.017652
       DOS:  cpu time    0.0189: real time    0.0189
    CHARGE:  cpu time    3.1672: real time    3.1747
    MIXING:  cpu time    0.0112: real time    0.0112
    --------------------------------------------
      LOOP:  cpu time   64.7812: real time   64.9346

 eigenvalue-minimisations  : 11221
 total energy-change (2. order) : 0.3097039E+03  (-0.1524691E+02)
 number of electron     777.0000024 magnetization     208.5679531
 augmentation part      376.5668080 magnetization     164.5215797

 Broyden mixing:
  rms(total) = 0.13773E+02    rms(broyden)= 0.13773E+02
  rms(prec ) = 0.17336E+02
  weight for this iteration     100.00

 eigenvalues of (default mixing * dielectric matrix)
  average eigenvalue GAMMA=   0.2534
  0.3299  0.1769

 Free energy of the ion-electron system (eV)
  ---------------------------------------------------
  alpha Z        PSCENC =      2001.31358000
  Ewald energy   TEWEN  =    220595.68557874
  -Hartree energ DENC   =   -291175.42489361
  -exchange      EXHF   =         0.00000000
  -V(xc)+E(xc)   XCENC  =      1345.49515747
  PAW double counting   =     69008.90724728   -70826.42411240
  entropy T*S    EENTRO =         0.00000000
  eigenvalues    EBANDS =     -1627.37957274
  atomic energy  EATOM  =     70206.16701721
  Solvation  Ediel_sol  =         0.00000000
  ---------------------------------------------------
  free energy    TOTEN  =      -471.65999807 eV

  energy without entropy =     -471.65999807  energy(sigma->0) =     -471.65999807


--------------------------------------------------------------------------------------------------------




--------------------------------------- Iteration      1(   8)  ---------------------------------------


    POTLOK:  cpu time    0.5077: real time    0.5089
    SETDIJ:  cpu time    0.0339: real time    0.0340
    EDDIAG:  cpu time   10.4911: real time   10.5159
  RMM-DIIS:  cpu time   49.1821: real time   49.3021
    ORTHCH:  cpu time    1.4482: real time    1.4517
 BZINTS: Fermi energy:  1.667445;777.000000 electrons
         Band energy:***********;  BLOECHL correction: -0.031720
       DOS:  cpu time    0.0191: real time    0.0192
    CHARGE:  cpu time    3.2228: real time    3.2305
    MIXING:  cpu time    0.0125: real time    0.1006
    --------------------------------------------
      LOOP:  cpu time   64.9175: real time   65.1628

 eigenvalue-minimisations  : 11246
 total energy-change (2. order) : 0.1115693E+02  (-0.1467611E+02)
 number of electron     777.0000014 magnetization     201.4189905
 augmentation part      376.8695270 magnetization     162.9993048

 Broyden mixing:
  rms(total) = 0.15757E+02    rms(broyden)= 0.15756E+02
  rms(prec ) = 0.18461E+02
  weight for this iteration     100.00

 eigenvalues of (default mixing * dielectric matrix)
  average eigenvalue GAMMA=   0.3164
  0.5885  0.2738  0.0867

 Free energy of the ion-electron system (eV)
  ---------------------------------------------------
  alpha Z        PSCENC =      2001.31358000
  Ewald energy   TEWEN  =    220595.68557874
  -Hartree energ DENC   =   -291369.62178296
  -exchange      EXHF   =         0.00000000
  -V(xc)+E(xc)   XCENC  =      1353.54754270
  PAW double counting   =     70118.32709450   -72016.79462443
  entropy T*S    EENTRO =         0.00000000
  eigenvalues    EBANDS =     -1349.12747554
  atomic energy  EATOM  =     70206.16701721
  Solvation  Ediel_sol  =         0.00000000
  ---------------------------------------------------
  free energy    TOTEN  =      -460.50306979 eV

  energy without entropy =     -460.50306979  energy(sigma->0) =     -460.50306979


--------------------------------------------------------------------------------------------------------




--------------------------------------- Iteration      1(   9)  ---------------------------------------


    POTLOK:  cpu time    0.5084: real time    0.5096
    SETDIJ:  cpu time    0.0336: real time    0.0336
    EDDIAG:  cpu time   10.4876: real time   10.5124
  RMM-DIIS:  cpu time   48.4805: real time   48.5950
    ORTHCH:  cpu time    1.4561: real time    1.4596
 BZINTS: Fermi energy:  1.415070;777.000000 electrons
         Band energy:***********;  BLOECHL correction: -0.010096
       DOS:  cpu time    0.0180: real time    0.0181
    CHARGE:  cpu time    3.1713: real time    3.1789
    MIXING:  cpu time    0.0124: real time    0.0124
    --------------------------------------------
      LOOP:  cpu time   64.1678: real time   64.3196

 eigenvalue-minimisations  : 11034
 total energy-change (2. order) : 0.4857114E+02  (-0.1614211E+02)
 number of electron     777.0000028 magnetization     194.1147770
 augmentation part      379.1157187 magnetization     145.2966253

 Broyden mixing:
  rms(total) = 0.13457E+02    rms(broyden)= 0.13457E+02
  rms(prec ) = 0.15301E+02
  weight for this iteration     100.00

 eigenvalues of (default mixing * dielectric matrix)
  average eigenvalue GAMMA=   0.3440
  0.8015  0.3536  0.1104  0.1104

 Free energy of the ion-electron system (eV)
  ---------------------------------------------------
  alpha Z        PSCENC =      2001.31358000
  Ewald energy   TEWEN  =    220595.68557874
  -Hartree energ DENC   =   -291195.92477564
  -exchange      EXHF   =         0.00000000
  -V(xc)+E(xc)   XCENC  =      1371.22225894
  PAW double counting   =     71374.26712565   -73330.99190714
  entropy T*S    EENTRO =         0.00000000
  eigenvalues    EBANDS =     -1433.67080492
  atomic energy  EATOM  =     70206.16701721
  Solvation  Ediel_sol  =         0.00000000
  ---------------------------------------------------
  free energy    TOTEN  =      -411.93192716 eV

  energy without entropy =     -411.93192716  energy(sigma->0) =     -411.93192716


--------------------------------------------------------------------------------------------------------




--------------------------------------- Iteration      1(  10)  ---------------------------------------


    POTLOK:  cpu time    0.5079: real time    0.5091
    SETDIJ:  cpu time    0.0338: real time    0.0339
    EDDIAG:  cpu time   10.5256: real time   10.5506
  RMM-DIIS:  cpu time   48.3016: real time   48.4156
    ORTHCH:  cpu time    1.4729: real time    1.4764
 BZINTS: Fermi energy:  1.795061;777.000000 electrons
         Band energy:-977.724794;  BLOECHL correction: -0.015232
       DOS:  cpu time    0.0203: real time    0.0203
    CHARGE:  cpu time    3.1682: real time    3.1757
    MIXING:  cpu time    0.0123: real time    0.0124
    --------------------------------------------
      LOOP:  cpu time   64.0425: real time   64.1940

 eigenvalue-minimisations  : 10921
 total energy-change (2. order) : 0.4904795E+02  (-0.1051607E+02)
 number of electron     777.0000018 magnetization     186.0785107
 augmentation part      375.8730666 magnetization     137.9931233

 Broyden mixing:
  rms(total) = 0.11100E+02    rms(broyden)= 0.11100E+02
  rms(prec ) = 0.13103E+02
  weight for this iteration     100.00

 eigenvalues of (default mixing * dielectric matrix)
  average eigenvalue GAMMA=   0.3825
  0.9789  0.5342  0.1526  0.1526  0.0941

 Free energy of the ion-electron system (eV)
  ---------------------------------------------------
  alpha Z        PSCENC =      2001.31358000
  Ewald energy   TEWEN  =    220595.68557874
  -Hartree energ DENC   =   -291542.98101658
  -exchange      EXHF   =         0.00000000
  -V(xc)+E(xc)   XCENC  =      1367.87981315
  PAW double counting   =     72517.02807697   -74530.25223422
  entropy T*S    EENTRO =         0.00000000
  eigenvalues    EBANDS =      -977.72479377
  atomic energy  EATOM  =     70206.16701721
  Solvation  Ediel_sol  =         0.00000000
  ---------------------------------------------------
  free energy    TOTEN  =      -362.88397852 eV

  energy without entropy =     -362.88397852  energy(sigma->0) =     -362.88397852


--------------------------------------------------------------------------------------------------------




--------------------------------------- Iteration      1(  11)  ---------------------------------------


    POTLOK:  cpu time    0.5084: real time    0.5097
    SETDIJ:  cpu time    0.0339: real time    0.0340
    EDDIAG:  cpu time   10.4895: real time   10.5145
[...]
   -.267E+02 0.808E+01 0.131E+04   0.268E+02 -.765E+01 -.131E+04   -.210E+00 -.480E+00 -.573E+00   -.395E-03 -.753E-03 -.775E-03
   0.502E+02 -.960E+02 -.229E+02   -.494E+02 0.956E+02 0.233E+02   -.819E+00 0.478E+00 -.462E+00   -.102E-02 -.433E-03 0.183E-03
   0.603E+02 0.518E+02 0.324E+04   -.605E+02 -.507E+02 -.323E+04   0.244E+00 -.122E+01 -.457E+01   0.222E-03 0.103E-02 -.157E-02
   0.456E+02 -.850E+01 0.159E+04   -.460E+02 0.811E+01 -.159E+04   0.349E+00 0.412E+00 0.128E+00   -.149E-02 0.452E-03 -.371E-03
   0.171E+03 -.357E+02 0.151E+04   -.171E+03 0.361E+02 -.151E+04   -.741E-01 -.422E+00 -.116E+00   0.302E-03 0.831E-03 -.369E-03
   0.345E+02 0.739E+02 0.154E+03   -.351E+02 -.737E+02 -.154E+03   0.632E+00 -.284E+00 -.244E+00   0.901E-03 -.386E-03 0.172E-02
   0.103E+02 0.676E+02 -.158E+04   -.988E+01 -.677E+02 0.158E+04   -.450E+00 0.952E-01 0.618E+00   0.259E-03 -.416E-03 0.176E-02
   -.503E+02 0.173E+02 -.162E+04   0.495E+02 -.171E+02 0.162E+04   0.882E+00 -.123E+00 0.151E+01   -.241E-03 -.195E-03 0.122E-02
   0.271E+02 0.147E+03 0.318E+04   -.269E+02 -.146E+03 -.317E+04   -.271E+00 -.164E+00 -.414E+01   0.114E-02 -.600E-03 -.134E-02
   -.570E+02 -.104E+03 0.324E+04   0.559E+02 0.103E+03 -.324E+04   0.112E+01 0.144E+00 -.405E+01   -.944E-03 -.463E-03 -.125E-02
   0.129E+03 0.161E+02 -.193E+02   -.130E+03 -.161E+02 0.199E+02   0.188E-01 -.107E+00 -.750E+00   -.291E-03 0.902E-03 0.439E-03
   -.132E+03 -.580E+01 0.325E+01   0.131E+03 0.553E+01 -.293E+01   0.205E+00 0.271E+00 -.346E+00   0.394E-03 -.125E-03 0.126E-03
   0.158E+02 0.115E+03 0.170E+04   -.156E+02 -.114E+03 -.170E+04   -.120E+00 -.844E+00 -.100E+01   0.151E-02 -.106E-02 -.564E-03
   0.513E+02 -.444E+02 -.216E+02   -.509E+02 0.433E+02 0.213E+02   -.434E+00 0.128E+01 0.106E+00   0.782E-03 0.133E-03 0.143E-02
   0.729E+02 0.764E+01 0.791E+01   -.721E+02 -.775E+01 -.734E+01   -.867E+00 0.127E+00 -.558E+00   -.543E-03 0.494E-03 0.126E-02
   -.108E+03 -.301E+01 0.145E+04   0.108E+03 0.330E+01 -.145E+04   0.486E+00 -.269E+00 -.588E+00   0.457E-03 -.130E-03 -.225E-03
   -.402E+02 -.456E+01 0.153E+04   0.406E+02 0.419E+01 -.153E+04   -.450E+00 0.440E+00 -.609E+00   -.200E-03 -.258E-03 -.290E-03
   -.165E+03 -.272E+02 0.292E+04   0.165E+03 0.269E+02 -.292E+04   0.188E+00 0.209E+00 -.268E+01   0.233E-04 -.356E-03 -.555E-03
   0.739E+02 -.468E+02 0.290E+04   -.749E+02 0.473E+02 -.289E+04   0.101E+01 -.442E+00 -.153E+01   -.264E-03 0.108E-02 -.754E-03
   0.285E+02 -.928E+01 0.153E+04   -.282E+02 0.909E+01 -.153E+04   -.378E+00 0.185E+00 0.313E-01   -.870E-03 0.643E-03 -.560E-03
   0.878E+02 0.148E+02 0.145E+04   -.870E+02 -.149E+02 -.145E+04   -.803E+00 0.124E+00 -.616E+00   -.629E-03 0.129E-02 -.419E-03
   -.278E+02 -.365E+02 -.149E+04   0.278E+02 0.367E+02 0.149E+04   0.535E-01 -.143E+00 0.644E-01   -.283E-03 -.323E-03 0.585E-03
   -.354E+02 0.361E+02 0.290E+04   0.360E+02 -.354E+02 -.290E+04   -.552E+00 -.695E+00 -.210E+01   0.442E-03 0.160E-03 -.770E-03
   -.478E+02 0.125E+03 0.884E+02   0.483E+02 -.124E+03 -.879E+02   -.461E+00 -.361E+00 -.520E+00   0.816E-03 -.676E-03 0.631E-03
   -.717E+01 0.533E+02 -.484E+02   0.713E+01 -.525E+02 0.482E+02   0.105E+00 -.832E+00 0.210E-01   -.144E-02 -.131E-03 0.790E-03
   0.116E+03 -.143E+02 -.500E+02   -.116E+03 0.150E+02 0.503E+02   -.382E+00 -.677E+00 -.324E+00   -.281E-03 0.458E-03 0.486E-03
   -.353E+02 -.104E+03 0.258E+02   0.348E+02 0.104E+03 -.257E+02   0.438E+00 0.472E+00 -.138E+00   -.923E-03 0.300E-03 0.831E-03
 -----------------------------------------------------------------------------------------------
   -.213E+01 -.354E+00 0.265E+01   -.497E-13 -.568E-13 0.207E-11   0.207E+01 0.377E+00 -.265E+01   -.865E-03 0.517E-03 -.371E-03
 
 
 POSITION                                       TOTAL-FORCE (eV/Angst)
 -----------------------------------------------------------------------------------
     13.61545      8.52334      6.83083         0.042822     -0.007434     -0.012931
      5.34043      8.50628      6.72903         0.009353     -0.014048     -0.041224
      5.18370      3.66316      6.91080         0.003653      0.000994      0.023137
     15.10392      9.32078      9.03306         0.004226      0.004119     -0.027599
      3.84892      4.52556      9.13756        -0.004218      0.022066     -0.003258
      6.70608      9.27210      9.02936        -0.015284      0.010839     -0.042396
     12.27258      4.39896      9.16310         0.014470      0.001532      0.022632
      9.46710      9.27622      9.06870         0.003495     -0.011048      0.033077
     10.85667      2.04126      9.00006         0.009853     -0.016322      0.007396
      2.57275      2.06185      9.06939         0.005327     -0.006069      0.011539
     12.26296      9.26630      9.08330         0.027075     -0.027191     -0.008260
     13.67638      6.90308      9.14722        -0.026783      0.010296     -0.046447
      5.30938      1.99020      9.10507         0.009730     -0.005948      0.018902
      8.13543      6.88598      9.09823        -0.000859     -0.011025     -0.000227
      9.53431      4.47283      9.09957         0.011902      0.022558      0.030600
      5.28151      6.88375      9.11400         0.028158     -0.006095     -0.020148
      8.09024      2.00827      9.03868         0.022452     -0.023674      0.041110
      8.16569      3.64838      6.89705        -0.018871      0.062695     -0.006612
      6.60381      1.22887      6.79892         0.001525     -0.044588     -0.030348
      6.80974      1.20423      1.20899        -0.102034      0.206146     -0.035060
      3.78418      4.36840      2.84116        -0.037446     -0.086306     -0.060838
      1.23919      1.29304      6.82243         0.012045     -0.031277      0.042030
      1.07245      1.31362      0.89524        -0.031043     -0.000112      0.018377
      6.78653      9.25238      2.98540        -0.044252      0.005992      0.011918
      6.67651      4.45613      9.12612        -0.009677     -0.014422     -0.039021
      8.13882      5.34351      4.81351         0.016882      0.023564      0.119099
     10.85848      6.87452      9.12135         0.008898     -0.001586      0.013671
     14.92223      7.54155      4.75472         0.010192     -0.020387      0.006699
     12.33685      6.03235      6.95689         0.075036      0.018079      0.140091
      6.68680      6.10136      6.90360         0.019205     -0.028034     -0.085663
      3.66082      2.64549      4.98625         0.010490     -0.014163     -0.053967
     10.88312      5.35614      4.88030        -0.032292      0.009258     -0.075565
      3.93093      6.13162      7.00178         0.003311      0.016293     -0.011071
     13.60129      8.27031      1.25259         0.139046      0.022110     -0.256839
      5.39929      8.28065      1.07845         0.125559      0.042627      0.000490
      4.09210      6.22669      1.17195         0.127331     -0.149962      0.087328
      8.27114      2.26268      2.97571         0.011548      0.036471      0.023727
      9.52991      9.17614      2.94877         0.075579     -0.031579      0.127012
      2.48046      3.72828      7.03640        -0.001378     -0.008939      0.035008
      2.20354      3.63600      1.01600        -0.165808     -0.026705      0.090198
     10.87707      2.12668      2.93283         0.000502      0.008817     -0.073756
     13.63964      5.21428      4.93696        -0.004670     -0.025193     -0.030859
      3.94696      1.10390      6.99636         0.005814     -0.012359     -0.006952
      9.48378      6.04635      7.02130        -0.029139     -0.010566      0.015699
      3.84046      1.05545      1.13799        -0.052416      0.046233     -0.079608
      9.62041      5.99957      1.15821        -0.048531      0.026815     -0.011086
      5.51625      3.71094      1.14144         0.052455      0.013422      0.013944
     12.15948      9.10177      3.01594        -0.084583      0.027432      0.170623
     12.25524      7.61734      4.86010        -0.035366      0.011095     -0.020757
     13.38228      6.66855      2.92696        -0.068792     -0.132331      0.085181
      9.53988      4.37704      2.91333         0.050199      0.012411     -0.064730
      8.12527      8.45880      6.96863         0.027432     -0.000083     -0.008022
      8.26659      8.46807      1.04232         0.027576      0.030135     -0.115058
     10.88214      6.97004      2.90364        -0.070244     -0.044998      0.019345
      2.69712      0.20314      5.01274         0.001497      0.008250      0.038025
      8.13438      3.74388      0.95266         0.029060     -0.007454     -0.001361
      5.25720      1.99538      3.07177         0.011575     -0.014969     -0.004453
      5.58366      6.83717      3.11102         0.084548     -0.010838     -0.008925
      8.09893      0.51884      4.81232         0.023767      0.016817     -0.023301
      9.50397      1.22475      6.85650         0.016510     -0.007902      0.018296
     10.84360      8.41404      6.94425         0.018119      0.012895     -0.017695
      9.50615      1.25944      0.97408         0.056621      0.134282     -0.044365
     10.89341      8.45525      0.94232        -0.257281      0.027178     -0.029520
      5.27667      5.22238      4.90156        -0.026293     -0.035525     -0.005156
     12.21276      2.94370      4.92350        -0.020069      0.013335      0.000854
     15.13474      9.39099      2.93148         0.121390      0.165157      0.163956
      9.63317      2.84295      4.98737        -0.003014      0.028702     -0.012264
      6.71749      2.89535      4.87895        -0.024358      0.013228     -0.023033
     12.24471      4.40511      2.93259        -0.038285     -0.033243     -0.120295
      2.48063      1.93481      2.92821        -0.068492      0.070021     -0.025155
     12.13913      5.98161      1.03501        -0.148600     -0.298772     -0.005690
      6.74062      6.04565      1.13116         0.017171      0.028767     -0.010683
      8.26174      6.94998      2.87677        -0.031182     -0.039181      0.092539
      6.78537      4.39314      2.93257         0.019244     -0.009136     -0.026429
     10.94066      3.73518      6.99152         0.009765      0.017868      0.001914
     10.86433      3.64967      1.01937         0.022654     -0.025118      0.000763
     10.92868      0.61947      4.85498         0.007879      0.040411      0.000178
      9.54364      7.67246      4.98212         0.031581      0.036195      0.010679
      6.97567      7.70254      4.95381         0.043149      0.005269      0.076395
      5.21913      0.20971      4.93653        -0.006409     -0.015790      0.014200
 -----------------------------------------------------------------------------------
    total drift:                               -0.060157      0.022716      0.001735


--------------------------------------------------------------------------------------------------------



  FREE ENERGIE OF THE ION-ELECTRON SYSTEM (eV)
  ---------------------------------------------------
  free  energy   TOTEN  =      -498.78732300 eV

  energy  without entropy=     -498.78732300  energy(sigma->0) =     -498.78732300
 


--------------------------------------------------------------------------------------------------------


    POTLOK:  cpu time    0.5398: real time    0.5411


--------------------------------------------------------------------------------------------------------


     LOOP+:  cpu time 5430.5119: real time 5443.8473
    4ORBIT:  cpu time    0.0000: real time    0.0000
 


 total charge     
 
# of ion       s       p       d       tot
------------------------------------------
    1        0.650   0.558   8.072   9.280
    2        0.642   0.529   8.064   9.235
    3        0.651   0.550   8.081   9.282
    4        0.642   0.450   8.018   9.110
    5        0.665   0.462   8.020   9.147
    6        0.642   0.450   8.031   9.124
    7        0.661   0.459   8.033   9.153
    8        0.682   0.473   8.020   9.175
    9        0.651   0.446   8.026   9.123
   10        0.662   0.457   8.036   9.155
   11        0.643   0.450   8.024   9.117
   12        0.650   0.454   8.026   9.130
   13        0.646   0.453   8.031   9.130
   14        0.664   0.463   8.032   9.159
   15        0.660   0.459   8.028   9.148
   16        0.648   0.449   8.036   9.132
   17        0.640   0.443   8.027   9.110
   18        0.642   0.543   8.086   9.272
   19        0.651   0.531   8.101   9.283
   20        0.697   0.360   8.084   9.140
   21        0.710   0.557   8.034   9.301
   22        0.665   0.542   8.066   9.273
   23        0.700   0.386   8.090   9.176
   24        0.710   0.579   8.051   9.340
   25        0.618   0.417   8.043   9.079
   26        0.703   0.595   8.054   9.352
   27        0.662   0.459   8.027   9.148
   28        0.691   0.527   8.075   9.293
   29        0.692   0.603   8.063   9.358
   30        0.662   0.580   8.060   9.302
   31        0.708   0.570   8.075   9.353
   32        0.711   0.615   8.052   9.378
   33        0.391   0.427   6.051   6.868
   34        0.427   0.313   6.111   6.852
   35        0.415   0.305   6.107   6.827
   36        0.427   0.323   6.101   6.852
   37        0.428   0.412   6.131   6.971
   38        0.446   0.457   6.185   7.088
   39        0.410   0.451   6.083   6.944
   40        0.431   0.332   6.081   6.845
   41        0.433   0.432   6.123   6.988
   42        0.421   0.442   6.133   6.995
   43        0.418   0.461   6.070   6.948
   44        0.398   0.432   6.056   6.885
   45        0.415   0.298   6.121   6.834
   46        0.441   0.315   7.207   7.963
   47        0.418   0.278   7.209   7.906
   48        0.446   0.411   7.237   8.093
   49        0.439   0.448   7.209   8.096
   50        0.467   0.456   7.242   8.165
   51        0.445   0.441   7.238   8.123
   52        0.412   0.423   7.186   8.021
   53        0.426   0.306   7.234   7.966
   54        0.453   0.453   7.242   8.148
   55        0.449   0.442   7.220   8.110
   56        0.439   0.263   9.181   9.883
   57        0.425   0.347   9.168   9.940
   58        0.449   0.371   9.168   9.988
   59        0.421   0.336   9.162   9.920
   60        0.388   0.337   9.191   9.916
   61        0.409   0.361   9.180   9.950
   62        0.423   0.252   9.186   9.861
   63        0.444   0.278   9.171   9.894
   64        0.416   0.355   9.172   9.942
   65        0.446   0.392   9.158   9.995
   66        0.432   0.336   9.164   9.932
   67        0.448   0.383   9.160   9.991
   68        0.426   0.357   9.169   9.952
   69        0.469   0.457   8.337   9.263
   70        0.450   0.423   8.328   9.201
   71        0.462   0.316   8.324   9.102
   72        0.449   0.300   8.326   9.075
   73        0.471   0.447   8.321   9.239
   74        0.458   0.415   8.352   9.225
   75        0.410   0.403   8.322   9.134
   76        0.463   0.333   8.328   9.124
   77        0.442   0.402   8.335   9.178
   78        0.463   0.440   8.317   9.220
   79        0.466   0.455   8.329   9.250
   80        0.464   0.419   8.326   9.209
--------------------------------------------------
tot         42.212  34.101 628.314 704.628
 


 magnetization (x)
 
# of ion       s       p       d       tot
------------------------------------------
    1       -0.007  -0.011   0.289   0.272
    2       -0.008  -0.012   0.262   0.242
    3       -0.009  -0.017   0.281   0.255
    4       -0.003  -0.003   0.150   0.144
    5       -0.006  -0.006   0.273   0.262
    6       -0.004  -0.004   0.200   0.193
    7       -0.005  -0.005   0.211   0.201
    8       -0.006  -0.005   0.285   0.275
    9       -0.004  -0.003   0.150   0.143
   10       -0.006  -0.004   0.284   0.274
   11       -0.002  -0.002   0.136   0.132
   12       -0.004  -0.005   0.203   0.195
   13       -0.003  -0.004   0.190   0.183
   14       -0.007  -0.006   0.275   0.263
   15       -0.004  -0.005   0.232   0.223
   16       -0.008  -0.004   0.171   0.159
   17       -0.002  -0.002   0.117   0.113
   18       -0.005  -0.009   0.178   0.165
   19       -0.011  -0.003   0.210   0.197
   20       -0.026  -0.023   0.259   0.210
   21       -0.022  -0.044   0.373   0.307
   22       -0.013  -0.017   0.334   0.305
   23       -0.023  -0.033   0.274   0.219
   24       -0.017  -0.047   0.318   0.253
   25       -0.002  -0.001   0.144   0.141
   26       -0.009  -0.029   0.206   0.169
   27       -0.006  -0.004   0.239   0.230
   28       -0.011  -0.027   0.278   0.239
   29       -0.015  -0.025   0.395   0.354
   30       -0.007  -0.014   0.310   0.289
   31       -0.018  -0.035   0.298   0.245
   32       -0.013  -0.047   0.307   0.247
   33        0.013   0.007   3.164   3.184
   34        0.008  -0.015   2.949   2.942
   35        0.017  -0.006   2.953   2.964
   36        0.013  -0.016   2.945   2.942
   37        0.010  -0.004   2.862   2.868
   38       -0.001  -0.027   2.711   2.683
   39        0.012   0.002   3.096   3.110
   40        0.022   0.003   3.067   3.092
   41        0.010  -0.009   2.857   2.858
   42        0.007  -0.007   2.869   2.869
   43        0.016   0.006   3.112   3.134
   44        0.016   0.009   3.145   3.170
   45        0.011  -0.007   2.967   2.971
   46       -0.004  -0.018   1.874   1.851
   47        0.001  -0.005   1.879   1.875
   48       -0.009  -0.024   1.778   1.745
   49       -0.002  -0.015   1.830   1.814
   50       -0.013  -0.038   1.803   1.752
   51       -0.007  -0.030   1.693   1.655
   52       -0.000  -0.013   2.003   1.990
   53       -0.007  -0.019   1.832   1.806
   54       -0.008  -0.032   1.759   1.720
   55       -0.005  -0.019   1.811   1.786
   56       -0.017  -0.028   0.080   0.035
   57       -0.015  -0.025   0.067   0.026
   58       -0.014  -0.023   0.089   0.053
   59       -0.014  -0.019   0.089   0.057
   60       -0.005  -0.004   0.043   0.034
   61       -0.012  -0.016   0.104   0.076
   62       -0.024  -0.021   0.067   0.023
   63       -0.026  -0.035   0.105   0.044
   64       -0.008  -0.016   0.068   0.044
   65       -0.015  -0.027   0.107   0.065
   66       -0.022  -0.029   0.090   0.039
   67       -0.015  -0.022   0.074   0.037
   68       -0.010  -0.014   0.057   0.033
   69       -0.019  -0.041   0.675   0.614
   70       -0.016  -0.026   0.677   0.634
   71       -0.022  -0.041   0.730   0.667
   72       -0.024  -0.034   0.630   0.572
   73       -0.014  -0.035   0.662   0.612
   74       -0.013  -0.021   0.542   0.508
   75       -0.005  -0.010   0.747   0.732
   76       -0.016  -0.032   0.650   0.603
   77       -0.007  -0.017   0.527   0.503
   78       -0.012  -0.036   0.684   0.636
   79       -0.006  -0.017   0.593   0.570
   80       -0.012  -0.027   0.654   0.616
--------------------------------------------------
tot         -0.548  -1.347  73.603  71.708
 
 BZINTS: Fermi energy:  1.351312;777.000000 electrons
         Band energy:***********;  BLOECHL correction: -0.193321

 total amount of memory used by VASP MPI-rank0   425812. kBytes
=======================================================================

   base      :      30000. kBytes
   nonlr-proj:     100826. kBytes
   fftplans  :      15524. kBytes
   grid      :     140731. kBytes
   one-center:       2488. kBytes
   wavefun   :     136243. kBytes
 
  
  
 General timing and accounting informations for this job:
 ========================================================
  
                  Total CPU time used (sec):     5465.120
                            User time (sec):     5446.434
                          System time (sec):       18.686
                         Elapsed time (sec):     5480.267
  
                   Maximum memory used (kb):     1127184.
                   Average memory used (kb):           0.
  
                          Minor page faults:      2328076
                          Major page faults:            0
                 Voluntary context switches:         4635
