 vasp.5.4.4.18Apr17-6-g9f103f2a35 (build Nov 30 2020 22:55:02) complex          
  
 executed on             LinuxIFC date 2021.10.11  20:26:50
 running on   40 total cores
 distrk:  each k-point on   40 cores,    1 groups
 distr:  one band on NCORES_PER_BAND=   4 cores,   10 groups


--------------------------------------------------------------------------------------------------------


 INCAR:
 POTCAR:    PAW_PBE Pt 04Feb2005                  
 POTCAR:    PAW_PBE Fe 06Sep2000                  
 POTCAR:    PAW_PBE Co 02Aug2007                  
 POTCAR:    PAW_PBE Cu 22Jun2005                  
 POTCAR:    PAW_PBE Ni 02Aug2007                  
 POTCAR:    PAW_PBE Pt 04Feb2005                  
   VRHFIN =Pt: s1d9                                                             
   LEXCH  = PE                                                                  
   EATOM  =   729.1176 eV,   53.5886 Ry                                         
                                                                                
   TITEL  = PAW_PBE Pt 04Feb2005                                                
   LULTRA =        F    use ultrasoft PP ?                                      
   IUNSCR =        1    unscreen: 0-lin 1-nonlin 2-no                           
   RPACOR =    2.330    partial core radius                                     
   POMASS =  195.080; ZVAL   =   10.000    mass and valenz                      
   RCORE  =    2.600    outmost cutoff radius                                   
   RWIGS  =    2.750; RWIGS  =    1.455    wigner-seitz radius (au A)           
   ENMAX  =  230.283; ENMIN  =  172.712 eV                                      
   ICORE  =        3    local potential                                         
   LCOR   =        T    correct aug charges                                     
   LPAW   =        T    paw PP                                                  
   EAUG   =  358.966                                                            
   DEXC   =    0.000                                                            
   RMAX   =    2.658    core radius for proj-oper                               
   RAUG   =    1.300    factor for augmentation sphere                          
   RDEP   =    2.761    radius for radial grids                                 
   RDEPT  =    2.203    core radius for aug-charge                              
                                                                                
   Atomic configuration                                                         
   16 entries                                                                   
     n  l   j            E        occ.                                          
     1  0  0.50    -78401.1885   2.0000                                         
     2  0  0.50    -13770.7750   2.0000                                         
     2  1  1.50    -11931.0468   6.0000                                         
     3  0  0.50     -3234.7234   2.0000                                         
     3  1  1.50     -2699.2216   6.0000                                         
     3  2  2.50     -2119.5714  10.0000                                         
     4  0  0.50      -695.1528   2.0000                                         
     4  1  1.50      -519.6034   6.0000                                         
     4  2  2.50      -306.6786  10.0000                                         
     4  3  3.50       -70.1041  14.0000                                         
     5  0  0.50      -101.7747   2.0000                                         
     5  1  1.50       -55.9873   6.0000                                         
     5  2  2.50        -6.1423   9.0000                                         
     6  0  0.50        -5.6573   1.0000                                         
     6  1  1.50        -6.8029   0.0000                                         
     5  3  2.50        -1.3606   0.0000                                         
   Description                                                                  
     l       E           TYP  RCUT    TYP  RCUT                                 
     2     -6.1423404     23  2.500                                             
     2     -7.5029230     23  2.500                                             
     0     -5.6573207     23  2.500                                             
     0      0.7416693     23  2.500                                             
     1     -2.7211652     23  2.600                                             
     1     20.4087390     23  2.600                                             
     3     -1.3605826     23  2.500                                             
  local pseudopotential read in
  partial core-charges read in
  partial kinetic energy density read in
  atomic valenz-charges read in
  non local Contribution for L=           2  read in
    real space projection operators read in
  non local Contribution for L=           2  read in
    real space projection operators read in
  non local Contribution for L=           0  read in
    real space projection operators read in
  non local Contribution for L=           0  read in
    real space projection operators read in
  non local Contribution for L=           1  read in
    real space projection operators read in
  non local Contribution for L=           1  read in
    real space projection operators read in
    PAW grid and wavefunctions read in
 
   number of l-projection  operators is LMAX  =           6
   number of lm-projection operators is LMMAX =          18
 
 POTCAR:    PAW_PBE Fe 06Sep2000                  
   VRHFIN =Fe:  d7 s1                                                           
   LEXCH  = PE                                                                  
   EATOM  =   594.3153 eV,   43.6809 Ry                                         
                                                                                
   TITEL  = PAW_PBE Fe 06Sep2000                                                
   LULTRA =        F    use ultrasoft PP ?                                      
   IUNSCR =        1    unscreen: 0-lin 1-nonlin 2-no                           
   RPACOR =    2.000    partial core radius                                     
   POMASS =   55.847; ZVAL   =    8.000    mass and valenz                      
   RCORE  =    2.300    outmost cutoff radius                                   
   RWIGS  =    2.460; RWIGS  =    1.302    wigner-seitz radius (au A)           
   ENMAX  =  267.882; ENMIN  =  200.911 eV                                      
   RCLOC  =    1.701    cutoff for local pot                                    
   LCOR   =        T    correct aug charges                                     
   LPAW   =        T    paw PP                                                  
   EAUG   =  511.368                                                            
   DEXC   =    0.000                                                            
   RMAX   =    2.356    core radius for proj-oper                               
   RAUG   =    1.300    factor for augmentation sphere                          
   RDEP   =    2.442    radius for radial grids                                 
   RDEPT  =    1.890    core radius for aug-charge                              
                                                                                
   Atomic configuration                                                         
    9 entries                                                                   
     n  l   j            E        occ.                                          
     1  0  0.50     -6993.8440   2.0000                                         
     2  0  0.50      -814.6047   2.0000                                         
     2  1  1.50      -693.3689   6.0000                                         
     3  0  0.50       -89.4732   2.0000                                         
     3  1  1.50       -55.6373   6.0000                                         
     3  2  2.50        -3.8151   7.0000                                         
     4  0  0.50        -4.2551   1.0000                                         
     4  1  1.50        -3.4015   0.0000                                         
     4  3  2.50        -1.3606   0.0000                                         
   Description                                                                  
     l       E           TYP  RCUT    TYP  RCUT                                 
     2     -3.8151135     23  2.300                                             
     2     -5.1756961     23  2.300                                             
     0     -4.2550963     23  2.300                                             
     0      7.2035603     23  2.300                                             
     1     -2.7211652     23  2.300                                             
     1     18.4316424     23  2.300                                             
  local pseudopotential read in
  partial core-charges read in
  partial kinetic energy density read in
  atomic valenz-charges read in
  non local Contribution for L=           2  read in
    real space projection operators read in
  non local Contribution for L=           2  read in
    real space projection operators read in
  non local Contribution for L=           0  read in
    real space projection operators read in
  non local Contribution for L=           0  read in
    real space projection operators read in
  non local Contribution for L=           1  read in
    real space projection operators read in
  non local Contribution for L=           1  read in
    real space projection operators read in
    PAW grid and wavefunctions read in
 
   number of l-projection  operators is LMAX  =           6
   number of lm-projection operators is LMMAX =          18
 
 POTCAR:    PAW_PBE Co 02Aug2007                  
   VRHFIN =Co: d8 s1                                                            
   LEXCH  = PE                                                                  
   EATOM  =   813.3670 eV,   59.7808 Ry                                         
                                                                                
   TITEL  = PAW_PBE Co 02Aug2007                                                
   LULTRA =        F    use ultrasoft PP ?                                      
   IUNSCR =        1    unscreen: 0-lin 1-nonlin 2-no                           
   RPACOR =    2.000    partial core radius                                     
   POMASS =   58.933; ZVAL   =    9.000    mass and valenz                      
   RCORE  =    2.300    outmost cutoff radius                                   
   RWIGS  =    2.460; RWIGS  =    1.302    wigner-seitz radius (au A)           
   ENMAX  =  267.968; ENMIN  =  200.976 eV                                      
   RCLOC  =    1.203    cutoff for local pot                                    
   LCOR   =        T    correct aug charges                                     
   LPAW   =        T    paw PP                                                  
   EAUG   =  477.818                                                            
   DEXC   =    0.000                                                            
   RMAX   =    2.360    core radius for proj-oper                               
   RAUG   =    1.300    factor for augmentation sphere                          
   RDEP   =    2.393    radius for radial grids                                 
   RDEPT  =    1.864    core radius for aug-charge                              
                                                                                
   Atomic configuration                                                         
    9 entries                                                                   
     n  l   j            E        occ.                                          
     1  0  0.50     -7587.6674   2.0000                                         
     2  0  0.50      -893.6084   2.0000                                         
     2  1  1.50      -764.5805   6.0000                                         
     3  0  0.50       -97.5973   2.0000                                         
     3  1  1.50       -60.9648   6.0000                                         
     3  2  2.50        -4.2382   8.0000                                         
     4  0  0.50        -4.3746   1.0000                                         
     4  1  1.50        -4.0817   0.0000                                         
     4  3  2.50        -1.3606   0.0000                                         
   Description                                                                  
     l       E           TYP  RCUT    TYP  RCUT                                 
     2     -4.2382362     23  2.300                                             
     2     -5.5988188     23  2.300                                             
     0     -4.3745797     23  2.300                                             
     0      5.7660125     23  2.300                                             
     1     -2.7211652     23  2.300                                             
     1     16.9860234     23  2.300                                             
  local pseudopotential read in
  partial core-charges read in
  partial kinetic energy density read in
  atomic valenz-charges read in
  non local Contribution for L=           2  read in
    real space projection operators read in
  non local Contribution for L=           2  read in
    real space projection operators read in
  non local Contribution for L=           0  read in
    real space projection operators read in
  non local Contribution for L=           0  read in
    real space projection operators read in
  non local Contribution for L=           1  read in
    real space projection operators read in
  non local Contribution for L=           1  read in
    real space projection operators read in
    PAW grid and wavefunctions read in
 
   number of l-projection  operators is LMAX  =           6
   number of lm-projection operators is LMMAX =          18
 
 POTCAR:    PAW_PBE Cu 22Jun2005                  
   VRHFIN =Cu: d10 p1                                                           
   LEXCH  = PE                                                                  
   EATOM  =  1390.9808 eV,  102.2342 Ry                                         
                                                                                
   TITEL  = PAW_PBE Cu 22Jun2005                                                
   LULTRA =        F    use ultrasoft PP ?                                      
   IUNSCR =        1    unscreen: 0-lin 1-nonlin 2-no                           
   RPACOR =    2.000    partial core radius                                     
   POMASS =   63.546; ZVAL   =   11.000    mass and valenz                      
   RCORE  =    2.300    outmost cutoff radius                                   
   RWIGS  =    2.200; RWIGS  =    1.164    wigner-seitz radius (au A)           
   ENMAX  =  295.446; ENMIN  =  221.585 eV                                      
   ICORE  =        3    local potential                                         
   LCOR   =        T    correct aug charges                                     
   LPAW   =        T    paw PP                                                  
   EAUG   =  586.980                                                            
   DEXC   =    0.000                                                            
   RMAX   =    2.344    core radius for proj-oper                               
   RAUG   =    1.300    factor for augmentation sphere                          
   RDEP   =    2.302    radius for radial grids                                 
   RDEPT  =    1.771    core radius for aug-charge                              
                                                                                
   Atomic configuration                                                         
    9 entries                                                                   
     n  l   j            E        occ.                                          
     1  0  0.50     -8850.2468   2.0000                                         
     2  0  0.50     -1062.3498   2.0000                                         
     2  1  1.50      -916.8226   6.0000                                         
     3  0  0.50      -114.6929   2.0000                                         
     3  1  1.50       -72.1325   6.0000                                         
     3  2  2.50        -5.0394  10.0000                                         
     4  0  0.50        -4.6097   1.0000                                         
     4  1  0.50        -4.0817   0.0000                                         
     4  3  2.50        -1.3606   0.0000                                         
   Description                                                                  
     l       E           TYP  RCUT    TYP  RCUT                                 
     2     -5.0393973     23  2.200                                             
     2     10.8846608     23  2.200                                             
     0     -4.6097109     23  2.200                                             
     0      8.2520465     23  2.200                                             
     1     -2.7211652     23  2.200                                             
     1     21.7055443     23  2.200                                             
     3      2.7211652     23  2.300                                             
  local pseudopotential read in
  partial core-charges read in
  partial kinetic energy density read in
  atomic valenz-charges read in
  non local Contribution for L=           2  read in
    real space projection operators read in
  non local Contribution for L=           2  read in
    real space projection operators read in
  non local Contribution for L=           0  read in
    real space projection operators read in
  non local Contribution for L=           0  read in
    real space projection operators read in
  non local Contribution for L=           1  read in
    real space projection operators read in
  non local Contribution for L=           1  read in
    real space projection operators read in
    PAW grid and wavefunctions read in
 
   number of l-projection  operators is LMAX  =           6
   number of lm-projection operators is LMMAX =          18
 
 POTCAR:    PAW_PBE Ni 02Aug2007                  
   VRHFIN =Ni:                                                                  
   LEXCH  = PE                                                                  
   EATOM  =  1077.6739 eV,   79.2068 Ry                                         
                                                                                
   TITEL  = PAW_PBE Ni 02Aug2007                                                
   LULTRA =        F    use ultrasoft PP ?                                      
   IUNSCR =        1    unscreen: 0-lin 1-nonlin 2-no                           
   RPACOR =    2.000    partial core radius                                     
   POMASS =   58.690; ZVAL   =   10.000    mass and valenz                      
   RCORE  =    2.300    outmost cutoff radius                                   
   RWIGS  =    2.430; RWIGS  =    1.286    wigner-seitz radius (au A)           
   ENMAX  =  269.532; ENMIN  =  202.149 eV                                      
   RCLOC  =    1.201    cutoff for local pot                                    
   LCOR   =        T    correct aug charges                                     
   LPAW   =        T    paw PP                                                  
   EAUG   =  544.565                                                            
   DEXC   =    0.000                                                            
   RMAX   =    2.357    core radius for proj-oper                               
   RAUG   =    1.300    factor for augmentation sphere                          
   RDEP   =    2.390    radius for radial grids                                 
   RDEPT  =    1.838    core radius for aug-charge                              
                                                                                
   Atomic configuration                                                         
    9 entries                                                                   
     n  l   j            E        occ.                                          
     1  0  0.50     -8206.4253   2.0000                                         
     2  0  0.50      -976.1748   2.0000                                         
     2  1  1.50      -839.0571   6.0000                                         
     3  0  0.50      -105.9991   2.0000                                         
     3  1  1.50       -66.4603   6.0000                                         
     3  2  2.50        -4.6458   9.0000                                         
     4  0  0.50        -4.4926   1.0000                                         
     4  1  1.50        -4.0817   0.0000                                         
     4  3  2.50        -1.3606   0.0000                                         
   Description                                                                  
     l       E           TYP  RCUT    TYP  RCUT                                 
     2     -4.6457903     23  2.300                                             
     2     -6.0063729     23  2.300                                             
     0     -4.4925590     23  2.300                                             
     0      5.0102601     23  2.300                                             
     1     -2.7211652     23  2.300                                             
     1     16.5183231     23  2.300                                             
  local pseudopotential read in
  partial core-charges read in
  partial kinetic energy density read in
  atomic valenz-charges read in
  non local Contribution for L=           2  read in
    real space projection operators read in
  non local Contribution for L=           2  read in
    real space projection operators read in
  non local Contribution for L=           0  read in
    real space projection operators read in
  non local Contribution for L=           0  read in
    real space projection operators read in
  non local Contribution for L=           1  read in
    real space projection operators read in
  non local Contribution for L=           1  read in
    real space projection operators read in
    PAW grid and wavefunctions read in
 
   number of l-projection  operators is LMAX  =           6
   number of lm-projection operators is LMMAX =          18
 
 Optimization of the real space projectors (new method)

 maximal supplied QI-value         = 14.36
 optimisation between [QCUT,QGAM] = [ 11.92, 23.98] = [ 39.79,161.09] Ry 
 Optimized for a Real-space Cutoff    1.49 Angstroem

   l    n(q)    QCUT    max X(q) W(low)/X(q) W(high)/X(q)  e(spline) 
   2     10    11.920    66.195    0.79E-04    0.18E-03    0.24E-06
   2     10    11.920    64.643    0.81E-04    0.19E-03    0.24E-06
   0     11    11.920    95.520    0.28E-04    0.54E-04    0.18E-06
   0     11    11.920    63.403    0.27E-04    0.52E-04    0.17E-06
   1     10    11.920    19.961    0.18E-04    0.11E-03    0.23E-06
   1     10    11.920    13.289    0.25E-04    0.87E-04    0.19E-06
 Optimization of the real space projectors (new method)

 maximal supplied QI-value         = 16.25
 optimisation between [QCUT,QGAM] = [ 11.86, 23.89] = [ 39.41,159.82] Ry 
 Optimized for a Real-space Cutoff    1.49 Angstroem

   l    n(q)    QCUT    max X(q) W(low)/X(q) W(high)/X(q)  e(spline) 
   2     10    11.864    80.901    0.13E-03    0.23E-03    0.37E-06
   2     10    11.864    75.754    0.13E-03    0.23E-03    0.38E-06
   0     11    11.864    58.752    0.44E-04    0.11E-04    0.20E-06
   0     11    11.864    30.679    0.36E-04    0.10E-04    0.18E-06
   1     10    11.864    17.977    0.31E-04    0.45E-04    0.10E-06
   1     10    11.864    13.559    0.25E-04    0.37E-04    0.89E-07
 Optimization of the real space projectors (new method)

 maximal supplied QI-value         = 16.25
 optimisation between [QCUT,QGAM] = [ 11.86, 23.89] = [ 39.41,159.82] Ry 
 Optimized for a Real-space Cutoff    1.33 Angstroem

   l    n(q)    QCUT    max X(q) W(low)/X(q) W(high)/X(q)  e(spline) 
   2      9    11.864    65.824    0.22E-03    0.53E-03    0.26E-06
   2      9    11.864    61.429    0.22E-03    0.53E-03    0.26E-06
   0      9    11.864    56.174    0.21E-03    0.32E-04    0.15E-06
   0      9    11.864    31.263    0.19E-03    0.30E-04    0.14E-06
   1      9    11.864    19.828    0.63E-04    0.30E-03    0.16E-06
   1      9    11.864    15.139    0.49E-04    0.25E-03    0.13E-06
 Optimization of the real space projectors (new method)

 maximal supplied QI-value         = 16.25
 optimisation between [QCUT,QGAM] = [ 11.86, 23.89] = [ 39.41,159.82] Ry 
 Optimized for a Real-space Cutoff    1.49 Angstroem

   l    n(q)    QCUT    max X(q) W(low)/X(q) W(high)/X(q)  e(spline) 
   2     10    11.864     4.610    0.10E-03    0.20E-03    0.29E-06
   2     10    11.864     8.522    0.17E-03    0.33E-03    0.50E-06
   0     11    11.864    51.609    0.52E-04    0.55E-04    0.33E-06
   0     11    11.864    27.747    0.46E-04    0.52E-04    0.31E-06
   1     10    11.864    20.408    0.54E-04    0.25E-04    0.21E-06
   1     10    11.864    13.425    0.48E-04    0.22E-04    0.18E-06
 Optimization of the real space projectors (new method)

 maximal supplied QI-value         = 16.25
 optimisation between [QCUT,QGAM] = [ 11.86, 23.89] = [ 39.41,159.82] Ry 
 Optimized for a Real-space Cutoff    1.33 Angstroem

   l    n(q)    QCUT    max X(q) W(low)/X(q) W(high)/X(q)  e(spline) 
   2      9    11.864    60.317    0.21E-03    0.51E-03    0.25E-06
   2      9    11.864    55.921    0.21E-03    0.51E-03    0.26E-06
   0      9    11.864    51.690    0.22E-03    0.30E-04    0.17E-06
   0      9    11.864    30.015    0.20E-03    0.28E-04    0.15E-06
   1      9    11.864    18.849    0.76E-04    0.33E-03    0.17E-06
   1      9    11.864    14.624    0.60E-04    0.28E-03    0.15E-06
  PAW_PBE Pt 04Feb2005                  :
 energy of atom  1       EATOM= -729.1176
 kinetic energy error for atom=    0.0021 (will be added to EATOM!!)
  PAW_PBE Fe 06Sep2000                  :
 energy of atom  2       EATOM= -594.3153
 kinetic energy error for atom=    0.0024 (will be added to EATOM!!)
  PAW_PBE Co 02Aug2007                  :
 energy of atom  3       EATOM= -813.3670
 kinetic energy error for atom=    0.0026 (will be added to EATOM!!)
  PAW_PBE Cu 22Jun2005                  :
 energy of atom  4       EATOM=-1390.9808
 kinetic energy error for atom=    0.0036 (will be added to EATOM!!)
  PAW_PBE Ni 02Aug2007                  :
 energy of atom  5       EATOM=-1077.6739
 kinetic energy error for atom=    0.0027 (will be added to EATOM!!)
 
 
 POSCAR: 10.86                                   
  positions in direct lattice
  velocities in cartesian coordinates
 exchange correlation table for  LEXCH =        8
   RHO(1)=    0.500       N(1)  =     2000
   RHO(2)=  100.500       N(2)  =     4000
 


--------------------------------------------------------------------------------------------------------


 ion  position               nearest neighbor table
   1  0.785  0.880  0.315-  49 2.60  28 2.63  59 2.63  19 2.70  61 2.72  29 2.73  33 2.74  11 2.74
                            60 2.75   4 2.78   2 2.81  12 2.83
   2  0.043  0.882  0.313-  79 2.54  77 2.58  28 2.66  60 2.70  30 2.70  52 2.72  33 2.73   6 2.75
                            22 2.77   4 2.81   1 2.81  16 2.88
   3  0.279  0.381  0.317-  64 2.56  39 2.63  31 2.64  33 2.66  68 2.69   5 2.76  19 2.77  13 2.78
                            30 2.78  43 2.79  25 2.81  18 2.89
   4  0.874  0.963  0.418-   9 2.69  17 2.70   6 2.71  16 2.72  11 2.73  12 2.74  60 2.75   1 2.78
                             2 2.81
   5  0.119  0.464  0.422-  12 2.68  39 2.68   7 2.69  33 2.70  16 2.70  10 2.71  25 2.75   3 2.76
                            13 2.77
   6  0.125  0.961  0.417-   8 2.69  14 2.71   4 2.71   9 2.72  52 2.72  10 2.72  16 2.73   2 2.75
                            22 2.82
   7  0.874  0.459  0.422-  39 2.66  15 2.69   5 2.69   9 2.70  75 2.70  10 2.71  12 2.74  27 2.74
                            29 2.76
   8  0.374  0.960  0.417-  43 2.58  52 2.66  14 2.67   6 2.69  27 2.70  61 2.70  13 2.71  10 2.71
                            11 2.72
   9  0.873  0.211  0.416-  75 2.67   4 2.69  60 2.69   7 2.70  17 2.71  15 2.71   6 2.72  10 2.75
                            22 2.79
  10  0.126  0.212  0.418-  39 2.66  13 2.69  43 2.70   7 2.71   5 2.71   8 2.71   6 2.72   9 2.75
                            22 2.75
  11  0.624  0.960  0.419-  13 2.70  12 2.71  27 2.71  17 2.72   8 2.72   4 2.73   1 2.74  61 2.79
                            19 2.81
  12  0.873  0.712  0.422-   5 2.68  33 2.68  11 2.71  16 2.71  27 2.73   4 2.74   7 2.74  29 2.77
                             1 2.83
  13  0.374  0.209  0.420-  10 2.69  11 2.70   8 2.71  43 2.72  17 2.72  25 2.74   5 2.77   3 2.78
                            19 2.78
  14  0.376  0.713  0.419-  44 2.67  27 2.67   8 2.67  52 2.70   6 2.71  15 2.72  25 2.74  30 2.75
                            16 2.75
  15  0.626  0.462  0.418-  44 2.66  75 2.68   7 2.69  27 2.69   9 2.71  14 2.72  18 2.74  25 2.74
                            17 2.74
  16  0.123  0.711  0.421-  33 2.64   5 2.70  12 2.71  25 2.72   4 2.72   6 2.73  14 2.75  30 2.79
                             2 2.88
  17  0.624  0.210  0.417-   4 2.70   9 2.71  11 2.72  13 2.72  25 2.72  18 2.73  15 2.74  60 2.75
                            19 2.83
  18  0.547  0.376  0.315-  67 2.56  68 2.63  26 2.67  60 2.67  75 2.69  44 2.70  17 2.73  15 2.74
                            30 2.78  19 2.81  25 2.84   3 2.89
  19  0.533  0.125  0.313-  80 2.54  68 2.57  59 2.60  43 2.62   1 2.70  61 2.72   3 2.77  13 2.78
                            11 2.81  18 2.81  17 2.83  60 2.84
  20  0.548  0.123  0.046-  57 2.55  37 2.56  48 2.57  62 2.70  63 2.72  56 2.74  34 2.77  47 2.78
                            45 2.79
  21  0.119  0.458  0.130-  47 2.52  40 2.52  36 2.52  42 2.59  64 2.63  69 2.66  70 2.71  50 2.71
                            31 2.72  57 2.77  58 2.80  74 2.82
  22  0.045  0.136  0.313-  65 2.52  55 2.55  77 2.56  43 2.65  39 2.66  75 2.71  10 2.75   2 2.77
                            60 2.77   9 2.79  52 2.79   6 2.82  31 3.38
  23  0.041  0.131  0.037-  70 2.56  41 2.60  40 2.63  76 2.66  45 2.69  24 2.69  62 2.70  53 2.82
                            35 2.83
  24  0.131  0.958  0.134-  79 2.51  77 2.55  35 2.56  53 2.57  55 2.59  70 2.67  23 2.69  73 2.70
                            58 2.70  38 2.71  66 2.77  41 2.81
  25  0.374  0.461  0.421-  16 2.72  17 2.72  13 2.74  15 2.74  14 2.74   5 2.75  30 2.80   3 2.81
                            18 2.84
  26  0.456  0.548  0.219-  73 2.51  74 2.54  51 2.56  79 2.65  30 2.65  18 2.67  78 2.71  64 2.72
                            32 2.72  44 2.72  68 2.75  67 2.82
  27  0.622  0.712  0.419-  14 2.67  44 2.67  15 2.69   8 2.70  11 2.71  61 2.73  12 2.73   7 2.74
                            29 2.77
  28  0.955  0.786  0.220-  58 2.56  50 2.57  66 2.58   1 2.63  42 2.64  49 2.66   2 2.66  33 2.68
                            64 2.70  59 2.80  79 2.93  77 2.93
  29  0.795  0.623  0.318-  42 2.54  39 2.60  32 2.63  75 2.64  49 2.66  33 2.71   1 2.73  44 2.74
                            61 2.75   7 2.76  12 2.77  27 2.77
  30  0.290  0.631  0.316-  79 2.55  64 2.59  26 2.65  52 2.68  44 2.70   2 2.70  33 2.71  14 2.75
                             3 2.78  18 2.78  16 2.79  25 2.80
  31  0.200  0.277  0.226-  70 2.50  43 2.57  57 2.59  55 2.60  65 2.61  39 2.64   3 2.64  21 2.72
                            80 2.77  42 2.79  68 2.89  64 2.93  22 3.38
  32  0.705  0.552  0.221-  54 2.54  69 2.56  51 2.59  49 2.62  29 2.63  78 2.66  42 2.68  44 2.68
                            75 2.69  65 2.69  26 2.72  67 2.76
  33  0.040  0.632  0.323-  16 2.64   3 2.66  28 2.68  12 2.68  64 2.69   5 2.70  30 2.71  29 2.71
                            42 2.71  39 2.72   2 2.73   1 2.74
  34  0.796  0.861  0.048-  50 2.37  48 2.49  66 2.51  36 2.61  71 2.62  63 2.66  20 2.77  35 2.86
                            62 2.86
  35  0.057  0.863  0.043-  58 2.52  24 2.56  72 2.57  36 2.58  66 2.62  53 2.74  62 2.83  23 2.83
                            34 2.86
  36  0.046  0.632  0.043-  21 2.52  58 2.57  35 2.58  50 2.60  34 2.61  72 2.67  47 2.71  71 2.78
                            40 2.85
  37  0.628  0.226  0.132-  51 2.50  67 2.50  56 2.50  68 2.55  59 2.56  20 2.56  74 2.57  62 2.59
                            41 2.59  66 2.75  57 2.86  48 3.06
  38  0.382  0.953  0.132-  53 2.44  80 2.47  45 2.47  78 2.53  63 2.54  55 2.56  73 2.58  48 2.60
                            54 2.61  24 2.71  57 2.71  70 2.76
  39  0.035  0.385  0.322-  29 2.60  42 2.62   3 2.63  31 2.64  75 2.65   7 2.66  10 2.66  22 2.66
                             5 2.68  65 2.71  33 2.72  43 2.89
  40  0.027  0.380  0.042-  69 2.41  21 2.52  76 2.55  70 2.56  71 2.56  23 2.63  36 2.85  45 2.88
                            47 2.94
  41  0.872  0.216  0.131-  76 2.44  77 2.50  65 2.53  67 2.53  62 2.56  37 2.59  23 2.60  51 2.63
                            69 2.64  70 2.71  66 2.72  24 2.81
  42  0.955  0.544  0.224-  50 2.54  29 2.54  21 2.59  69 2.60  39 2.62  28 2.64  65 2.67  32 2.68
                            49 2.69  33 2.71  64 2.75  31 2.79
  43  0.298  0.115  0.320-  55 2.52  31 2.57   8 2.58  19 2.62  52 2.62  80 2.62  61 2.63  22 2.65
                            10 2.70  13 2.72   3 2.79  39 2.89
  44  0.541  0.628  0.320-  78 2.62  61 2.64  15 2.66  52 2.66  14 2.67  27 2.67  32 2.68  18 2.70
                            75 2.70  30 2.70  26 2.72  29 2.74
  45  0.295  0.117  0.044-  38 2.47  70 2.47  57 2.57  53 2.58  63 2.67  23 2.69  20 2.79  40 2.88
                            47 2.89
  46  0.552  0.624  0.047-  51 2.40  54 2.41  73 2.41  71 2.63  76 2.68  63 2.70  53 2.71  56 2.73
                            72 2.79
  47  0.296  0.383  0.044-  74 2.37  21 2.52  57 2.61  72 2.64  56 2.64  36 2.71  20 2.78  45 2.89
                            40 2.94
  48  0.625  0.946  0.135-  49 2.39  80 2.48  54 2.49  34 2.49  63 2.54  20 2.57  59 2.57  38 2.60
                            50 2.63  57 2.77  66 2.80  37 3.06
  49  0.707  0.792  0.221-  48 2.39  50 2.47  54 2.49   1 2.60  80 2.62  32 2.62  61 2.63  28 2.66
                            29 2.66  78 2.67  42 2.69  59 2.80
  50  0.864  0.701  0.131-  34 2.37  71 2.39  49 2.47  54 2.50  42 2.54  28 2.57  69 2.60  36 2.60
                            48 2.63  21 2.71  66 2.91
  51  0.628  0.457  0.129-  46 2.40  76 2.45  37 2.50  56 2.52  26 2.56  32 2.59  67 2.62  41 2.63
                            69 2.68  74 2.70  73 2.73  54 2.82
  52  0.297  0.874  0.317-  55 2.43  79 2.51  78 2.54  61 2.61  43 2.62  44 2.66   8 2.66  30 2.68
                            14 2.70   6 2.72   2 2.72  22 2.79
  53  0.303  0.875  0.044-  73 2.42  38 2.44  24 2.57  45 2.58  63 2.62  46 2.71  35 2.74  72 2.75
                            23 2.82
  54  0.626  0.717  0.129-  46 2.41  71 2.48  63 2.49  48 2.49  49 2.49  50 2.50  32 2.54  38 2.61
                            78 2.63  73 2.63  69 2.76  51 2.82
  55  0.228  0.025  0.228-  52 2.43  78 2.50  43 2.52  79 2.53  80 2.54  22 2.55  38 2.56  24 2.59
                            31 2.60  70 2.73  77 2.82
  56  0.541  0.379  0.039-  74 2.49  37 2.50  51 2.52  47 2.64  72 2.69  76 2.73  46 2.73  20 2.74
                            62 2.77
  57  0.376  0.206  0.136-  68 2.47  20 2.55  80 2.56  45 2.57  31 2.59  47 2.61  74 2.71  70 2.71
                            38 2.71  48 2.77  21 2.77  37 2.86
  58  0.139  0.705  0.135-  72 2.44  64 2.48  35 2.52  79 2.55  28 2.56  36 2.57  74 2.69  24 2.70
                            73 2.73  21 2.80
  59  0.704  0.051  0.220-  66 2.51  37 2.56  48 2.57  19 2.60  60 2.60   1 2.63  68 2.67  67 2.68
                            77 2.74  80 2.78  49 2.80  28 2.80
  60  0.793  0.129  0.315-  67 2.51  77 2.56  59 2.60  18 2.67   9 2.69   2 2.70  75 2.75   4 2.75
                            17 2.75   1 2.75  22 2.77  19 2.84
  61  0.539  0.872  0.316-  78 2.48  80 2.51  52 2.61  43 2.63  49 2.63  44 2.64   8 2.70   1 2.72
                            19 2.72  27 2.73  29 2.75  11 2.79
  62  0.796  0.123  0.039-  66 2.51  41 2.56  37 2.59  20 2.70  23 2.70  76 2.72  56 2.77  35 2.83
                            34 2.86
  63  0.544  0.876  0.039-  54 2.49  48 2.54  38 2.54  53 2.62  34 2.66  45 2.67  46 2.70  20 2.72
                            71 2.76
  64  0.208  0.543  0.224-  58 2.48   3 2.56  30 2.59  21 2.63  74 2.65  33 2.69  28 2.70  68 2.70
                            26 2.72  42 2.75  79 2.82  31 2.93
  65  0.949  0.301  0.222-  69 2.51  22 2.52  41 2.53  67 2.57  75 2.59  31 2.61  70 2.62  77 2.63
                            42 2.67  32 2.69  39 2.71
  66  0.873  0.966  0.132-  59 2.51  34 2.51  62 2.51  77 2.56  28 2.58  35 2.62  41 2.72  37 2.75
                            24 2.77  48 2.80  50 2.91
  67  0.717  0.291  0.225-  37 2.50  60 2.51  41 2.53  18 2.56  77 2.57  65 2.57  75 2.60  51 2.62
                            59 2.68  32 2.76  26 2.82
  68  0.457  0.295  0.221-  57 2.47  74 2.51  37 2.55  19 2.57  18 2.63  59 2.67   3 2.69  64 2.70
                            26 2.75  80 2.88  31 2.89
  69  0.875  0.457  0.130-  40 2.41  71 2.45  76 2.46  65 2.51  32 2.56  50 2.60  42 2.60  41 2.64
                            21 2.66  51 2.68  70 2.74  54 2.76
  70  0.127  0.205  0.131-  45 2.47  31 2.50  40 2.56  23 2.56  65 2.62  24 2.67  21 2.71  57 2.71
                            41 2.71  55 2.73  69 2.74  38 2.76
  71  0.796  0.620  0.043-  50 2.39  69 2.45  54 2.48  40 2.56  34 2.62  46 2.63  76 2.68  63 2.76
                            36 2.78
  72  0.294  0.627  0.046-  58 2.44  74 2.45  73 2.50  35 2.57  47 2.64  36 2.67  56 2.69  53 2.75
                            46 2.79
  73  0.385  0.715  0.130-  46 2.41  53 2.42  72 2.50  26 2.51  78 2.56  38 2.58  79 2.61  54 2.63
                            24 2.70  51 2.73  58 2.73  74 2.87
  74  0.382  0.452  0.129-  47 2.37  72 2.45  56 2.49  68 2.51  26 2.54  37 2.57  64 2.65  58 2.69
                            51 2.70  57 2.71  21 2.82  73 2.87
  75  0.792  0.382  0.319-  65 2.59  67 2.60  29 2.64  39 2.65   9 2.67  15 2.68  32 2.69  18 2.69
                             7 2.70  44 2.70  22 2.71  60 2.75
  76  0.795  0.374  0.043-  41 2.44  51 2.45  69 2.46  40 2.55  23 2.66  46 2.68  71 2.68  62 2.72
                            56 2.73
  77  0.955  0.056  0.222-  41 2.50  24 2.55  22 2.56  60 2.56  66 2.56  67 2.57   2 2.58  65 2.63
                            59 2.74  55 2.82  79 2.84  28 2.93
  78  0.460  0.796  0.225-  61 2.48  55 2.50  80 2.53  38 2.53  52 2.54  73 2.56  79 2.61  44 2.62
                            54 2.63  32 2.66  49 2.67  26 2.71
  79  0.218  0.797  0.225-  52 2.51  24 2.51  55 2.53   2 2.54  30 2.55  58 2.55  78 2.61  73 2.61
                            26 2.65  64 2.82  77 2.84  28 2.93
  80  0.461  0.027  0.223-  38 2.47  48 2.48  61 2.51  78 2.53  19 2.54  55 2.54  57 2.56  49 2.62
                            43 2.62  31 2.77  59 2.78  68 2.88
 
  LATTYP: Found a hexagonal cell.
 ALAT       =    10.8599996567
 C/A-ratio  =     2.0257827528
  
  Lattice vectors:
  
 A1 = (   5.4299998284,  -9.4050355878,   0.0000000000)
 A2 = ( -10.8599996567,   0.0000000000,   0.0000000000)
 A3 = (   0.0000000000,   0.0000000000, -22.0000000000)


Analysis of symmetry for initial positions (statically):
=====================================================================
 Subroutine PRICEL returns:
 Original cell was already a primitive cell.
 

 Routine SETGRP: Setting up the symmetry group for a 
 hexagonal supercell.


 Subroutine GETGRP returns: Found  1 space group operations
 (whereof  1 operations were pure point group operations)
 out of a pool of 24 trial point group operations.


The static configuration has the point symmetry C_1 .


Analysis of symmetry for dynamics (positions and initial velocities):
=====================================================================
 Subroutine PRICEL returns:
 Original cell was already a primitive cell.
 

 Routine SETGRP: Setting up the symmetry group for a 
 hexagonal supercell.


 Subroutine GETGRP returns: Found  1 space group operations
 (whereof  1 operations were pure point group operations)
 out of a pool of 24 trial point group operations.


The dynamic configuration has the point symmetry C_1 .


Analysis of structural, dynamic, and magnetic symmetry:
=====================================================================
 Subroutine PRICEL returns:
 Original cell was already a primitive cell.
 

 Routine SETGRP: Setting up the symmetry group for a 
 hexagonal supercell.


 Subroutine GETGRP returns: Found  1 space group operations
 (whereof  1 operations were pure point group operations)
 out of a pool of 24 trial point group operations.


The magnetic configuration has the point symmetry C_1 .


 Subroutine INISYM returns: Found  1 space group operations
 (whereof  1 operations are pure point group operations),
 and found     1 'primitive' translations

 
 
 KPOINTS: mesh auto                               

Automatic generation of k-mesh.
Space group operators:
 irot       det(A)        alpha          n_x          n_y          n_z        tau_x        tau_y        tau_z
    1     1.000000     0.000001     1.000000     0.000000     0.000000     0.000000     0.000000     0.000000
 
 Subroutine IBZKPT returns following result:
 ===========================================
 
 Found      4 irreducible k-points:
 
 Following reciprocal coordinates:
            Coordinates               Weight
  0.000000  0.000000  0.000000      1.000000
  0.500000  0.000000  0.000000      1.000000
  0.000000  0.500000  0.000000      1.000000
  0.500000  0.500000  0.000000      1.000000
 
 Following cartesian coordinates:
            Coordinates               Weight
  0.000000  0.000000  0.000000      1.000000
  0.046041 -0.026582  0.000000      1.000000
  0.000000  0.053163  0.000000      1.000000
  0.046041  0.026582  0.000000      1.000000
 


--------------------------------------------------------------------------------------------------------




 Dimension of arrays:
   k-points           NKPTS =      4   k-points in BZ     NKDIM =      4   number of bands    NBANDS=    590
   number of dos      NEDOS =    301   number of ions     NIONS =     80
   non local maximal  LDIM  =      6   non local SUM 2l+1 LMDIM =     18
   total plane-waves  NPLWV = ******
   max r-space proj   IRMAX =   7380   max aug-charges    IRDMAX=  32147
   dimension x,y,z NGX =    84 NGY =   84 NGZ =  168
   dimension x,y,z NGXF=   168 NGYF=  168 NGZF=  336
   support grid    NGXF=   168 NGYF=  168 NGZF=  336
   ions per type =              32  13  10  13  12
   NGX,Y,Z   is equivalent  to a cutoff of  12.86, 12.86, 12.70 a.u.
   NGXF,Y,Z  is equivalent  to a cutoff of  25.72, 25.72, 25.39 a.u.

 SYSTEM =  Pt111                                   
 POSCAR =  10.86                                   

 Startparameter for this run:
   NWRITE =      2    write-flag & timer
   PREC   = accura    normal or accurate (medium, high low for compatibility)
   ISTART =      0    job   : 0-new  1-cont  2-samecut
   ICHARG =      2    charge: 1-file 2-atom 10-const
   ISPIN  =      2    spin polarized calculation?
   LNONCOLLINEAR =      F non collinear calculations
   LSORBIT =      F    spin-orbit coupling
   INIWAV =      1    electr: 0-lowe 1-rand  2-diag
   LASPH  =      F    aspherical Exc in radial PAW
   METAGGA=      F    non-selfconsistent MetaGGA calc.

 Electronic Relaxation 1
   ENCUT  =  550.0 eV  40.42 Ry    6.36 a.u.  20.77 20.77 42.07*2*pi/ulx,y,z
   ENINI  =  550.0     initial cutoff
   ENAUG  =  587.0 eV  augmentation charge cutoff
   NELM   =    200;   NELMIN=  2; NELMDL= -5     # of ELM steps 
   EDIFF  = 0.1E-04   stopping-criterion for ELM
   LREAL  =      T    real-space projection
   NLSPLINE    = F    spline interpolate recip. space projectors
   LCOMPAT=      F    compatible to vasp.4.4
   GGA_COMPAT  = T    GGA compatible to vasp.4.4-vasp.4.6
   LMAXPAW     = -100 max onsite density
   LMAXMIX     =    2 max onsite mixed and CHGCAR
   VOSKOWN=      0    Vosko Wilk Nusair interpolation
   ROPT   =   -0.00025  -0.00025  -0.00025  -0.00025
   ROPT   =   -0.00025
 Ionic relaxation
   EDIFFG = -.5E-01   stopping-criterion for IOM
   NSW    =      0    number of steps for IOM
   NBLOCK =      1;   KBLOCK =      1    inner block; outer block 
   IBRION =     -1    ionic relax: 0-MD 1-quasi-New 2-CG
   NFREE  =      1    steps in history (QN), initial steepest desc. (CG)
   ISIF   =      2    stress and relaxation
   IWAVPR =     10    prediction:  0-non 1-charg 2-wave 3-comb
   ISYM   =      2    0-nonsym 1-usesym 2-fastsym
   LCORR  =      T    Harris-Foulkes like correction to forces

   POTIM  = 0.5000    time-step for ionic-motion
   TEIN   =    0.0    initial temperature
   TEBEG  =    0.0;   TEEND  =   0.0 temperature during run
   SMASS  =  -3.00    Nose mass-parameter (am)
   estimated Nose-frequenzy (Omega)   =  0.10E-29 period in steps =****** mass=  -0.270E-26a.u.
   SCALEE = 1.0000    scale energy and forces
   NPACO  =    256;   APACO  = 16.0  distance and # of slots for P.C.
   PSTRESS=    0.0 pullay stress

  Mass of Ions in am
   POMASS = 195.08 55.85 58.93 63.55 58.69
  Ionic Valenz
   ZVAL   =  10.00  8.00  9.00 11.00 10.00
  Atomic Wigner-Seitz radii
   RWIGS  =  -1.00 -1.00 -1.00 -1.00 -1.00
  virtual crystal weights 
   VCA    =   1.00  1.00  1.00  1.00  1.00
   NELECT =     777.0000    total number of electrons
   NUPDOWN=      -1.0000    fix difference up-down

 DOS related values:
   EMIN   =  10.00;   EMAX   =-10.00  energy-range for DOS
   EFERMI =   0.00
   ISMEAR =     1;   SIGMA  =   0.03  broadening in eV -4-tet -1-fermi 0-gaus

 Electronic relaxation 2 (details)
   IALGO  =     68    algorithm
   LDIAG  =      T    sub-space diagonalisation (order eigenvalues)
   LSUBROT=      F    optimize rotation matrix (better conditioning)
   TURBO    =      0    0=normal 1=particle mesh
   IRESTART =      0    0=no restart 2=restart with 2 vectors
   NREBOOT  =      0    no. of reboots
   NMIN     =      0    reboot dimension
   EREF     =   0.00    reference energy to select bands
   IMIX   =      4    mixing-type and parameters
     AMIX     =   0.40;   BMIX     =  1.00
     AMIX_MAG =   1.60;   BMIX_MAG =  1.00
     AMIN     =   0.10
     WC   =   100.;   INIMIX=   1;  MIXPRE=   1;  MAXMIX= -45

 Intra band minimization:
   WEIMIN = 0.0000     energy-eigenvalue tresh-hold
   EBREAK =  0.42E-08  absolut break condition
   DEPER  =   0.30     relativ break condition  

   TIME   =   0.40     timestep for ELM

  volume/ion in A,a.u.               =      28.09       189.55
  Fermi-wavevector in a.u.,A,eV,Ry     =   1.149064  2.171416 17.964424  1.320348
  Thomas-Fermi vector in A             =   2.285736
 
 Write flags
   LWAVE        =      F    write WAVECAR
   LDOWNSAMPLE  =      F    k-point downsampling of WAVECAR
   LCHARG       =      T    write CHGCAR
   LVTOT        =      F    write LOCPOT, total local potential
   LVHAR        =      F    write LOCPOT, Hartree potential only
   LELF         =      F    write electronic localiz. function (ELF)
   LORBIT       =      0    0 simple, 1 ext, 2 COOP (PROOUT), +10 PAW based schemes


 Dipole corrections
   LMONO  =      F    monopole corrections only (constant potential shift)
   LDIPOL =      F    correct potential (dipole corrections)
   IDIPOL =      0    1-x, 2-y, 3-z, 4-all directions 
   EPSILON=  1.0000000 bulk dielectric constant

 Exchange correlation treatment:
   GGA     =    --    GGA type
   LEXCH   =     8    internal setting for exchange type
   VOSKOWN=      0    Vosko Wilk Nusair interpolation
   LHFCALC =     F    Hartree Fock is set to
   LHFONE  =     F    Hartree Fock one center treatment
   AEXX    =    0.0000 exact exchange contribution

 Linear response parameters
   LEPSILON=     F    determine dielectric tensor
   LRPA    =     F    only Hartree local field effects (RPA)
   LNABLA  =     F    use nabla operator in PAW spheres
   LVEL    =     F    velocity operator in full k-point grid
   LINTERFAST=   F  fast interpolation
   KINTER  =     0    interpolate to denser k-point grid
   CSHIFT  =0.1000    complex shift for real part using Kramers Kronig
   OMEGAMAX=  -1.0    maximum frequency
   DEG_THRESHOLD= 0.2000000E-02 threshold for treating states as degnerate
   RTIME   =   -0.100 relaxation time in fs
  (WPLASMAI=    0.000 imaginary part of plasma frequency in eV, 0.658/RTIME)
   DFIELD  = 0.0000000 0.0000000 0.0000000 field for delta impulse in time
 
 Orbital magnetization related:
   ORBITALMAG=     F  switch on orbital magnetization
   LCHIMAG   =     F  perturbation theory with respect to B field
   DQ        =  0.001000  dq finite difference perturbation B field
   LLRAUG    =     F  two centre corrections for induced B field



--------------------------------------------------------------------------------------------------------


 Static calculation
 charge density and potential will be updated during run
 spin polarized calculation
 RMM-DIIS sequential band-by-band and
  variant of blocked Davidson during initial phase
 perform sub-space diagonalisation
    before iterative eigenvector-optimisation
 modified Broyden-mixing scheme, WC =      100.0
 initial mixing is a Kerker type mixing with AMIX =  0.4000 and BMIX =      1.0000
 Hartree-type preconditioning will be used
 using additional bands          201
 real space projection scheme for non local part
 use partial core corrections
 calculate Harris-corrections to forces 
   (improved forces if not selfconsistent)
 use gradient corrections 
 use of overlap-Matrix (Vanderbilt PP)
 Methfessel and Paxton  Order N= 1 SIGMA  =   0.03


--------------------------------------------------------------------------------------------------------


  energy-cutoff  :      550.00
  volume of cell :     2247.05
      direct lattice vectors                 reciprocal lattice vectors
    10.859999657  0.000000000  0.000000000     0.092081034 -0.053163010  0.000000000
     5.429999828  9.405035588  0.000000000     0.000000000  0.106326020  0.000000000
     0.000000000  0.000000000 22.000000000     0.000000000  0.000000000  0.045454545

  length of vectors
    10.859999657 10.859999657 22.000000000     0.106326020  0.106326020  0.045454545


 
 k-points in units of 2pi/SCALE and weight: mesh auto                               
   0.00000000  0.00000000  0.00000000       0.250
   0.04604052 -0.02658150  0.00000000       0.250
   0.00000000  0.05316301  0.00000000       0.250
   0.04604052  0.02658150  0.00000000       0.250
 
 k-points in reciprocal lattice and weights: mesh auto                               
   0.00000000  0.00000000  0.00000000       0.250
   0.50000000  0.00000000  0.00000000       0.250
   0.00000000  0.50000000  0.00000000       0.250
   0.50000000  0.50000000  0.00000000       0.250
 
 position of ions in fractional coordinates (direct lattice) 
   0.78481164  0.88007863  0.31511151
   0.04259218  0.88175835  0.31265917
   0.27875619  0.38133865  0.31703173
   0.87396776  0.96313636  0.41796199
   0.11928450  0.46416016  0.42208819
   0.12472380  0.96147081  0.41695390
   0.87431394  0.45873207  0.42156899
   0.37353769  0.96010435  0.41671173
   0.87323686  0.21104581  0.41592463
   0.12554368  0.21194238  0.41792614
   0.62390324  0.96027918  0.41895229
   0.87343033  0.71150431  0.42163672
   0.37434679  0.20874871  0.41951271
   0.37561593  0.71285064  0.41891600
   0.62551019  0.46208223  0.41803348
   0.12312916  0.71093441  0.42112242
   0.62423163  0.21035341  0.41726708
   0.54732939  0.37633008  0.31534521
   0.53314926  0.12536887  0.31281448
   0.54838833  0.12337347  0.04616746
   0.11897632  0.45840873  0.12986490
   0.04474056  0.13565498  0.31263420
   0.04066573  0.13149863  0.03673280
   0.13095494  0.95789127  0.13392649
   0.37360878  0.46130539  0.42074938
   0.45565223  0.54806677  0.21862214
   0.62188115  0.71154808  0.41941462
   0.95463232  0.78624459  0.22047772
   0.79542152  0.62342462  0.31778474
   0.29012686  0.63149592  0.31628495
   0.20027086  0.27704785  0.22602515
   0.70458292  0.55163211  0.22088515
   0.04034033  0.63249718  0.32269600
   0.79551100  0.86095123  0.04803851
   0.05739494  0.86293659  0.04269821
   0.04587539  0.63174243  0.04254194
   0.62839887  0.22641754  0.13184280
   0.38235880  0.95332843  0.13196947
   0.03480522  0.38451725  0.32224758
   0.02680797  0.37973819  0.04163164
   0.87237911  0.21580924  0.13075454
   0.95470242  0.54363827  0.22446703
   0.29774350  0.11509421  0.31972846
   0.54063642  0.62806874  0.32038629
   0.29450499  0.11703562  0.04414884
   0.55196850  0.62406631  0.04671093
   0.29607773  0.38273525  0.04410119
   0.62495157  0.94618873  0.13463855
   0.70730076  0.79195600  0.22069804
   0.86416424  0.70149040  0.13101985
   0.62840973  0.45654274  0.12888101
   0.29680765  0.87445099  0.31747568
   0.30340848  0.87503324  0.04361807
   0.62639551  0.71686996  0.12943899
   0.22824609  0.02519273  0.22797437
   0.54119566  0.37869383  0.03864044
   0.37588607  0.20624082  0.13551792
   0.13910459  0.70498816  0.13510658
   0.70439885  0.05140639  0.22049063
   0.79265060  0.12915687  0.31522595
   0.53850825  0.87243208  0.31619282
   0.79634723  0.12315750  0.03929397
   0.54409452  0.87593854  0.03924591
   0.20790243  0.54310364  0.22378593
   0.94893253  0.30075086  0.22244782
   0.87251125  0.96557984  0.13164478
   0.71714769  0.29144814  0.22456062
   0.45673307  0.29458484  0.22130469
   0.87502942  0.45728685  0.13000961
   0.12698014  0.20542845  0.13067041
   0.79570639  0.62023288  0.04302802
   0.29386926  0.62662746  0.04632212
   0.38503102  0.71488529  0.12987367
   0.38167182  0.45223852  0.12905631
   0.79220849  0.38204109  0.31928140
   0.79479377  0.37390398  0.04303644
   0.95461703  0.05594721  0.22179318
   0.45953371  0.79572721  0.22516979
   0.21814710  0.79732026  0.22492198
   0.46108295  0.02748800  0.22321297
 
 position of ions in cartesian coordinates  (Angst):
  13.30188099  8.27717085  6.93245318
   5.25049877  8.29296870  6.87850173
   5.09796094  3.58650354  6.97469801
  14.72111989  9.05833176  9.19516376
   3.81581924  4.36544284  9.28594008
   6.57528674  9.04266722  9.17298583
  11.98596415  4.31439141  9.27451771
   9.26998565  9.02981559  9.16765815
  10.62933067  1.98489334  9.15034191
   2.51425142  1.99332566  9.19437509
  11.98990477  9.03145988  9.21695038
  13.34892130  6.69172334  9.27600780
   5.19891141  1.96328901  9.22927970
   7.94996768  6.70438562  9.21615199
   9.30214690  4.34589982  9.19673650
   5.19755631  6.68636342  9.26469325
   7.92137429  1.97838133  9.17987584
   7.98746922  3.53939782  6.93759472
   6.47075372  1.17909871  6.88191853
   6.62541500  1.16033190  1.01568419
   3.78124213  4.31135041  2.85702788
   1.22248897  1.27583994  6.87795248
   1.15566737  1.23674932  0.80812154
   6.62352002  9.00900149  2.94638274
   6.56227937  4.33859361  9.25648640
   7.92438554  5.15458743  4.80968704
  10.61733507  6.69213503  9.22712173
  14.63661464  7.39465836  4.85050991
  12.02347305  5.86333073  6.99126420
   6.57980031  5.93924156  6.95826880
   3.67931125  2.60564485  4.97255331
  10.64713259  5.18811965  4.85947330
   3.87255556  5.94865853  7.09931207
  13.31421424  8.09727694  1.05684727
   5.30905455  8.11594932  0.93936063
   3.92856797  5.94156004  0.93592272
   8.05385868  2.12946499  2.90054150
   9.32898959  8.96608780  2.90332824
   2.46591326  3.61639843  7.08944681
   2.35311289  3.57145122  0.91589603
  10.64588090  2.02969355  2.87659996
  13.32002369  5.11293728  4.93827471
   3.85845586  1.08246512  7.03402614
   9.28172450  5.90700887  7.04849849
   3.83382754  1.10072422  0.97127449
   9.38305771  5.86936583  1.02764050
   5.29365641  3.59963866  0.97022617
  11.92477847  8.89893867  2.96204804
  11.98160699  7.44837437  4.85535685
  13.19391605  6.59754215  2.88243667
   9.30355646  4.29380068  2.83538226
   7.97159974  8.22424266  6.98446502
   8.04644638  8.22971881  0.95959753
  10.69525881  6.74218749  2.84765773
   2.61554891  0.23693848  5.01543608
   7.93369212  3.56162890  0.85008961
   5.20201026  1.93970225  2.98139421
   5.33876141  6.63043871  2.97234485
   7.92890800  0.48347894  4.85079390
   9.30950698  1.21472492  6.93497101
  10.58550542  8.20525476  6.95624207
   9.31707587  1.15830066  0.86446726
  10.66521242  8.23823315  0.86341001
   5.20687297  5.10790903  4.92329037
  11.93848408  2.82857251  4.89385205
  14.71857022  9.08131274  2.89618505
   9.37078710  2.74108017  4.94033374
   6.55971659  2.77058089  4.86870315
  11.98588670  4.30079906  2.86021139
   2.49448074  1.93206192  2.87474900
  12.00923557  5.83331228  0.94661646
   6.59400710  5.89345359  1.01908661
   8.06326377  6.72352161  2.85722084
   6.60061090  4.25331933  2.83923887
  10.67786694  3.59311002  7.02419091
  10.66175863  3.51658022  0.94680163
  10.67093399  0.52618548  4.87945005
   9.31133460  7.48384275  4.95373546
   6.69852636  7.49882547  4.94828364
   5.15662057  0.25852564  4.91068524
 


--------------------------------------------------------------------------------------------------------


 k-point  1 :   0.0000 0.0000 0.0000  plane waves:   65767
 k-point  2 :   0.5000 0.0000 0.0000  plane waves:   65808
 k-point  3 :   0.0000 0.5000 0.0000  plane waves:   65808
 k-point  4 :   0.5000 0.5000 0.0000  plane waves:   65808

 maximum and minimum number of plane-waves per node :     16481    16415

 maximum number of plane-waves:     65808
 maximum index in each direction: 
   IXMAX=   20   IYMAX=   20   IZMAX=   42
   IXMIN=  -21   IYMIN=  -21   IZMIN=  -42


 real space projection operators:
  total allocation   :      73462.36 KBytes
  max/ min on nodes  :      18373.64      18353.67


 parallel 3D FFT for wavefunctions:
    minimum data exchange during FFTs selected (reduces bandwidth)
 parallel 3D FFT for charge:
    minimum data exchange during FFTs selected (reduces bandwidth)


 total amount of memory used by VASP MPI-rank0   261502. kBytes
=======================================================================

   base      :      30000. kBytes
   nonlr-proj:      32617. kBytes
   fftplans  :      17974. kBytes
   grid      :      53265. kBytes
   one-center:        622. kBytes
   wavefun   :     127024. kBytes
 
     INWAV:  cpu time    0.0000: real time    0.0000
 Broyden mixing: mesh for mixing (old mesh)
   NGX = 41   NGY = 41   NGZ = 85
  (NGX  =168   NGY  =168   NGZ  =336)
  gives a total of 142885 points

 initial charge density was supplied:
 charge density of overlapping atoms calculated
 number of electron     777.0000000 magnetization     231.0000000
 keeping initial charge density in first step


--------------------------------------------------------------------------------------------------------


 Maximum index for non-local projection operator         1796
 Maximum index for augmentation-charges         2024 (set IRDMAX)


--------------------------------------------------------------------------------------------------------


 First call to EWALD:  gamma=   0.135
 Maximum number of real-space cells 4x 4x 2
 Maximum number of reciprocal cells 2x 2x 4

    FEWALD:  cpu time    0.0039: real time    0.0039


--------------------------------------- Iteration      1(   1)  ---------------------------------------


    POTLOK:  cpu time    0.4351: real time    0.4378
    SETDIJ:  cpu time    0.0307: real time    0.0310
     EDDAV:  cpu time   68.4306: real time   68.6233
       DOS:  cpu time    0.0016: real time    0.0017
    --------------------------------------------
      LOOP:  cpu time   68.8980: real time   69.0938

 eigenvalue-minimisations  :  9440
 total energy-change (2. order) : 0.7708238E+04  (-0.3279290E+05)
 number of electron     777.0000000 magnetization     231.0000000
 augmentation part      777.0000000 magnetization     231.0000000

 Free energy of the ion-electron system (eV)
  ---------------------------------------------------
  alpha Z        PSCENC =      2113.41067420
  Ewald energy   TEWEN  =    220846.77983896
  -Hartree energ DENC   =   -292740.46110632
  -exchange      EXHF   =         0.00000000
  -V(xc)+E(xc)   XCENC  =      1375.61730116
  PAW double counting   =     64134.66604118   -66036.56585687
  entropy T*S    EENTRO =         0.00029061
  eigenvalues    EBANDS =      7808.62409681
  atomic energy  EATOM  =     70206.16701721
  Solvation  Ediel_sol  =         0.00000000
  ---------------------------------------------------
  free energy    TOTEN  =      7708.23829694 eV

  energy without entropy =     7708.23800633  energy(sigma->0) =     7708.23820007


--------------------------------------------------------------------------------------------------------




--------------------------------------- Iteration      1(   2)  ---------------------------------------


     EDDAV:  cpu time   68.1378: real time   68.2994
       DOS:  cpu time    0.0016: real time    0.0015
    --------------------------------------------
      LOOP:  cpu time   68.1394: real time   68.3010

 eigenvalue-minimisations  :  9440
 total energy-change (2. order) :-0.6914392E+04  (-0.6191427E+04)
 number of electron     777.0000000 magnetization     231.0000000
 augmentation part      777.0000000 magnetization     231.0000000

 Free energy of the ion-electron system (eV)
  ---------------------------------------------------
  alpha Z        PSCENC =      2113.41067420
  Ewald energy   TEWEN  =    220846.77983896
  -Hartree energ DENC   =   -292740.46110632
  -exchange      EXHF   =         0.00000000
  -V(xc)+E(xc)   XCENC  =      1375.61730116
  PAW double counting   =     64134.66604118   -66036.56585687
  entropy T*S    EENTRO =        -0.00153027
  eigenvalues    EBANDS =       894.23391557
  atomic energy  EATOM  =     70206.16701721
  Solvation  Ediel_sol  =         0.00000000
  ---------------------------------------------------
  free energy    TOTEN  =       793.84629482 eV

  energy without entropy =      793.84782509  energy(sigma->0) =      793.84680491


--------------------------------------------------------------------------------------------------------




--------------------------------------- Iteration      1(   3)  ---------------------------------------


     EDDAV:  cpu time   68.2756: real time   68.4375
       DOS:  cpu time    0.0017: real time    0.0017
    --------------------------------------------
      LOOP:  cpu time   68.2773: real time   68.4392

 eigenvalue-minimisations  :  9440
 total energy-change (2. order) :-0.1169409E+04  (-0.9460601E+03)
 number of electron     777.0000000 magnetization     231.0000000
 augmentation part      777.0000000 magnetization     231.0000000

 Free energy of the ion-electron system (eV)
  ---------------------------------------------------
  alpha Z        PSCENC =      2113.41067420
  Ewald energy   TEWEN  =    220846.77983896
  -Hartree energ DENC   =   -292740.46110632
  -exchange      EXHF   =         0.00000000
  -V(xc)+E(xc)   XCENC  =      1375.61730116
  PAW double counting   =     64134.66604118   -66036.56585687
  entropy T*S    EENTRO =        -0.00289164
  eigenvalues    EBANDS =      -275.17346190
  atomic energy  EATOM  =     70206.16701721
  Solvation  Ediel_sol  =         0.00000000
  ---------------------------------------------------
  free energy    TOTEN  =      -375.56244402 eV

  energy without entropy =     -375.55955237  energy(sigma->0) =     -375.56148014


--------------------------------------------------------------------------------------------------------




--------------------------------------- Iteration      1(   4)  ---------------------------------------


     EDDAV:  cpu time   81.1470: real time   81.3394
       DOS:  cpu time    0.0017: real time    0.0017
    --------------------------------------------
      LOOP:  cpu time   81.1486: real time   81.3411

 eigenvalue-minimisations  : 11830
 total energy-change (2. order) :-0.1134113E+03  (-0.1040602E+03)
 number of electron     777.0000000 magnetization     231.0000000
 augmentation part      777.0000000 magnetization     231.0000000

 Free energy of the ion-electron system (eV)
  ---------------------------------------------------
  alpha Z        PSCENC =      2113.41067420
  Ewald energy   TEWEN  =    220846.77983896
  -Hartree energ DENC   =   -292740.46110632
  -exchange      EXHF   =         0.00000000
  -V(xc)+E(xc)   XCENC  =      1375.61730116
  PAW double counting   =     64134.66604118   -66036.56585687
  entropy T*S    EENTRO =        -0.00013617
  eigenvalues    EBANDS =      -388.58747349
  atomic energy  EATOM  =     70206.16701721
  Solvation  Ediel_sol  =         0.00000000
  ---------------------------------------------------
  free energy    TOTEN  =      -488.97370013 eV

  energy without entropy =     -488.97356397  energy(sigma->0) =     -488.97365474


--------------------------------------------------------------------------------------------------------




--------------------------------------- Iteration      1(   5)  ---------------------------------------


     EDDAV:  cpu time   77.7595: real time   77.9510
       DOS:  cpu time    0.0019: real time    0.0019
    CHARGE:  cpu time    4.0808: real time    4.0906
    MIXING:  cpu time    0.0093: real time    0.0101
    --------------------------------------------
      LOOP:  cpu time   81.8515: real time   82.0536

 eigenvalue-minimisations  : 11170
 total energy-change (2. order) :-0.4303915E+01  (-0.4270149E+01)
 number of electron     777.0000037 magnetization     216.7282467
 augmentation part      335.2077127 magnetization     183.5673405

 Broyden mixing:
  rms(total) = 0.11378E+02    rms(broyden)= 0.11378E+02
  rms(prec ) = 0.11730E+02
  weight for this iteration     100.00

 Free energy of the ion-electron system (eV)
  ---------------------------------------------------
  alpha Z        PSCENC =      2113.41067420
  Ewald energy   TEWEN  =    220846.77983896
  -Hartree energ DENC   =   -292740.46110632
  -exchange      EXHF   =         0.00000000
  -V(xc)+E(xc)   XCENC  =      1375.61730116
  PAW double counting   =     64134.66604118   -66036.56585687
  entropy T*S    EENTRO =        -0.00029290
  eigenvalues    EBANDS =      -392.89123211
  atomic energy  EATOM  =     70206.16701721
  Solvation  Ediel_sol  =         0.00000000
  ---------------------------------------------------
  free energy    TOTEN  =      -493.27761549 eV

  energy without entropy =     -493.27732259  energy(sigma->0) =     -493.27751786


--------------------------------------------------------------------------------------------------------




--------------------------------------- Iteration      1(   6)  ---------------------------------------


    POTLOK:  cpu time    0.4173: real time    0.4183
    SETDIJ:  cpu time    0.0294: real time    0.0295
    EDDIAG:  cpu time   12.1015: real time   12.1305
  RMM-DIIS:  cpu time   47.7211: real time   47.8340
    ORTHCH:  cpu time    1.3643: real time    1.3675
       DOS:  cpu time    0.0016: real time    0.0016
    CHARGE:  cpu time    3.9529: real time    3.9623
    MIXING:  cpu time    0.0113: real time    0.0116
    --------------------------------------------
      LOOP:  cpu time   65.5995: real time   65.7554

 eigenvalue-minimisations  : 10964
 total energy-change (2. order) :-0.2147712E+03  (-0.9634979E+02)
 number of electron     777.0000041 magnetization     212.9827737
 augmentation part      407.1841331 magnetization     179.5897299

 Broyden mixing:
  rms(total) = 0.20618E+02    rms(broyden)= 0.20618E+02
  rms(prec ) = 0.27040E+02
  weight for this iteration     100.00

 eigenvalues of (default mixing * dielectric matrix)
  average eigenvalue GAMMA=   0.2020
  0.2020

 Free energy of the ion-electron system (eV)
  ---------------------------------------------------
  alpha Z        PSCENC =      2113.41067420
  Ewald energy   TEWEN  =    220846.77983896
  -Hartree energ DENC   =   -291142.53698861
  -exchange      EXHF   =         0.00000000
  -V(xc)+E(xc)   XCENC  =      1330.11565126
  PAW double counting   =     68611.36725867   -70294.21498448
  entropy T*S    EENTRO =         0.00243252
  eigenvalues    EBANDS =     -2379.13974354
  atomic energy  EATOM  =     70206.16701721
  Solvation  Ediel_sol  =         0.00000000
  ---------------------------------------------------
  free energy    TOTEN  =      -708.04884383 eV

  energy without entropy =     -708.05127635  energy(sigma->0) =     -708.04965467


--------------------------------------------------------------------------------------------------------




--------------------------------------- Iteration      1(   7)  ---------------------------------------


    POTLOK:  cpu time    0.4158: real time    0.4167
    SETDIJ:  cpu time    0.0295: real time    0.0295
    EDDIAG:  cpu time   12.0782: real time   12.1068
  RMM-DIIS:  cpu time   47.9221: real time   48.0356
    ORTHCH:  cpu time    1.3638: real time    1.3670
       DOS:  cpu time    0.0016: real time    0.0016
    CHARGE:  cpu time    3.9613: real time    3.9707
    MIXING:  cpu time    0.0107: real time    0.0107
    --------------------------------------------
      LOOP:  cpu time   65.7828: real time   65.9388

 eigenvalue-minimisations  : 11030
 total energy-change (2. order) : 0.2025602E+03  (-0.1570543E+02)
 number of electron     777.0000042 magnetization     208.2158288
 augmentation part      371.7220914 magnetization     165.0128859

 Broyden mixing:
  rms(total) = 0.14426E+02    rms(broyden)= 0.14425E+02
  rms(prec ) = 0.18952E+02
  weight for this iteration     100.00

 eigenvalues of (default mixing * dielectric matrix)
  average eigenvalue GAMMA=   0.2645
  0.3575  0.1714

 Free energy of the ion-electron system (eV)
  ---------------------------------------------------
  alpha Z        PSCENC =      2113.41067420
  Ewald energy   TEWEN  =    220846.77983896
  -Hartree energ DENC   =   -291790.58253780
  -exchange      EXHF   =         0.00000000
  -V(xc)+E(xc)   XCENC  =      1348.93346273
  PAW double counting   =     69558.42066041   -71392.85242655
  entropy T*S    EENTRO =         0.00132872
  eigenvalues    EBANDS =     -1395.76670955
  atomic energy  EATOM  =     70206.16701721
  Solvation  Ediel_sol  =         0.00000000
  ---------------------------------------------------
  free energy    TOTEN  =      -505.48869169 eV

  energy without entropy =     -505.49002040  energy(sigma->0) =     -505.48913459


--------------------------------------------------------------------------------------------------------




--------------------------------------- Iteration      1(   8)  ---------------------------------------


    POTLOK:  cpu time    0.4144: real time    0.4154
    SETDIJ:  cpu time    0.0298: real time    0.0299
    EDDIAG:  cpu time   12.0326: real time   12.0613
  RMM-DIIS:  cpu time   48.0352: real time   48.1488
    ORTHCH:  cpu time    1.3707: real time    1.3740
       DOS:  cpu time    0.0016: real time    0.0016
    CHARGE:  cpu time    3.9450: real time    3.9545
    MIXING:  cpu time    0.0112: real time    0.0112
    --------------------------------------------
      LOOP:  cpu time   65.8407: real time   65.9968

 eigenvalue-minimisations  : 11026
 total energy-change (2. order) : 0.3312306E+02  (-0.1262157E+02)
 number of electron     777.0000049 magnetization     201.0679376
 augmentation part      373.8125828 magnetization     163.7176268

 Broyden mixing:
  rms(total) = 0.15998E+02    rms(broyden)= 0.15998E+02
  rms(prec ) = 0.18717E+02
  weight for this iteration     100.00

 eigenvalues of (default mixing * dielectric matrix)
  average eigenvalue GAMMA=   0.3092
  0.5784  0.2660  0.0833

 Free energy of the ion-electron system (eV)
  ---------------------------------------------------
  alpha Z        PSCENC =      2113.41067420
  Ewald energy   TEWEN  =    220846.77983896
  -Hartree energ DENC   =   -292022.25592541
  -exchange      EXHF   =         0.00000000
  -V(xc)+E(xc)   XCENC  =      1355.85466931
  PAW double counting   =     70725.91848823   -72636.79612466
  entropy T*S    EENTRO =         0.00402240
  eigenvalues    EBANDS =     -1061.44829470
  atomic energy  EATOM  =     70206.16701721
  Solvation  Ediel_sol  =         0.00000000
  ---------------------------------------------------
  free energy    TOTEN  =      -472.36563447 eV

  energy without entropy =     -472.36965687  energy(sigma->0) =     -472.36697527


--------------------------------------------------------------------------------------------------------




--------------------------------------- Iteration      1(   9)  ---------------------------------------


    POTLOK:  cpu time    0.3990: real time    0.3999
    SETDIJ:  cpu time    0.0296: real time    0.0297
    EDDIAG:  cpu time   12.0424: real time   12.0711
  RMM-DIIS:  cpu time   47.2209: real time   47.3326
    ORTHCH:  cpu time    1.3691: real time    1.3724
       DOS:  cpu time    0.0016: real time    0.0016
    CHARGE:  cpu time    3.9920: real time    4.0015
    MIXING:  cpu time    0.0117: real time    0.0117
    --------------------------------------------
      LOOP:  cpu time   65.0663: real time   65.2205

 eigenvalue-minimisations  : 10825
 total energy-change (2. order) : 0.7804462E+02  (-0.1549100E+02)
 number of electron     777.0000032 magnetization     193.3841139
 augmentation part      376.9258986 magnetization     146.4874073

 Broyden mixing:
  rms(total) = 0.12771E+02    rms(broyden)= 0.12771E+02
  rms(prec ) = 0.14433E+02
  weight for this iteration     100.00

 eigenvalues of (default mixing * dielectric matrix)
  average eigenvalue GAMMA=   0.3492
  0.8255  0.3467  0.1124  0.1124

 Free energy of the ion-electron system (eV)
  ---------------------------------------------------
  alpha Z        PSCENC =      2113.41067420
  Ewald energy   TEWEN  =    220846.77983896
  -Hartree energ DENC   =   -291781.93837152
  -exchange      EXHF   =         0.00000000
  -V(xc)+E(xc)   XCENC  =      1372.70033007
  PAW double counting   =     72058.83681192   -74021.72277825
  entropy T*S    EENTRO =        -0.00095102
  eigenvalues    EBANDS =     -1188.55358938
  atomic energy  EATOM  =     70206.16701721
  Solvation  Ediel_sol  =         0.00000000
  ---------------------------------------------------
  free energy    TOTEN  =      -394.32101782 eV

  energy without entropy =     -394.32006680  energy(sigma->0) =     -394.32070081


--------------------------------------------------------------------------------------------------------




--------------------------------------- Iteration      1(  10)  ---------------------------------------


    POTLOK:  cpu time    0.4163: real time    0.4172
    SETDIJ:  cpu time    0.0296: real time    0.0296
    EDDIAG:  cpu time   12.0295: real time   12.0581
  RMM-DIIS:  cpu time   47.7374: real time   47.8504
    ORTHCH:  cpu time    1.3733: real time    1.3766
       DOS:  cpu time    0.0016: real time    0.0016
    CHARGE:  cpu time    4.0381: real time    4.0477
    MIXING:  cpu time    0.0122: real time    0.0122
    --------------------------------------------
      LOOP:  cpu time   65.6380: real time   65.7936

 eigenvalue-minimisations  : 10890
 total energy-change (2. order) : 0.4105859E+01  (-0.1199962E+02)
 number of electron     777.0000047 magnetization     184.0839139
 augmentation part      372.4876635 magnetization     138.6909140

 Broyden mixing:
  rms(total) = 0.12319E+02    rms(broyden)= 0.12318E+02
  rms(prec ) = 0.14197E+02
  weight for this iteration     100.00

 eigenvalues of (default mixing * dielectric matrix)
  average eigenvalue GAMMA=   0.3967
  1.1071  0.4831  0.1516  0.1516  0.0902

 Free energy of the ion-electron system (eV)
  ---------------------------------------------------
  alpha Z        PSCENC =      2113.41067420
  Ewald energy   TEWEN  =    220846.77983896
  -Hartree energ DENC   =   -292156.17699732
  -exchange      EXHF   =         0.00000000
  -V(xc)+E(xc)   XCENC  =      1369.40937269
  PAW double counting   =     73307.84700780   -75327.06997591
  entropy T*S    EENTRO =         0.00244351
  eigenvalues    EBANDS =      -750.58453950
  atomic energy  EATOM  =     70206.16701721
  Solvation  Ediel_sol  =         0.00000000
  ---------------------------------------------------
  free energy    TOTEN  =      -390.21515836 eV

  energy without entropy =     -390.21760186  energy(sigma->0) =     -390.21597286


--------------------------------------------------------------------------------------------------------




--------------------------------------- Iteration      1(  11)  ---------------------------------------


    POTLOK:  cpu time    0.4158: real time    0.4168
    SETDIJ:  cpu time    0.0300: real time    0.0301
    EDDIAG:  cpu time   12.0404: real time   12.0691
  RMM-DIIS:  cpu time   46.8579: real time   46.9687
    ORTHCH:  cpu time    1.3582: real time    1.3615
       DOS:  cpu time    0.0017: real time    0.0017
    CHARGE:  cpu time    4.0440: real time    4.0558
    MIXING:  cpu time    0.0116: real time    0.0116
    --------------------------------------------
      LOOP:  cpu time   64.7595: real time   64.9152

 eigenvalue-minimisations  : 10698
 total energy-change (2. order) :-0.3423075E+01  (-0.1089246E+02)
 number of electron     777.0000034 magnetization     179.3964598
 augmentation part      371.8959776 magnetization     132.7359592

 Broyden mixing:
  rms(total) = 0.12685E+02    rms(broyden)= 0.12685E+02
  rms(prec ) = 0.14129E+02
  weight for this iteration     100.00

 eigenvalues of (default mixing * dielectric matrix)
  average eigenvalue GAMMA=   0.3699
  1.1776  0.4971  0.1720  0.1720  0.0916  0.1092

 Free energy of the ion-electron system (eV)
  ---------------------------------------------------
  alpha Z        PSCENC =      2113.41067420
  Ewald energy   TEWEN  =    220846.77983896
  -Hartree energ DENC   =   -292061.33613433
  -exchange      EXHF   =         0.00000000
  -V(xc)+E(xc)   XCENC  =      1371.48355772
  PAW double counting   =     74353.29752210   -76390.09524600
  entropy T*S    EENTRO =        -0.00129734
  eigenvalues    EBANDS =      -833.34416596
  atomic energy  EATOM  =     70206.16701721
  Solvation  Ediel_sol  =         0.00000000
  ---------------------------------------------------
  free energy    TOTEN  =      -393.63823343 eV

  energy without entropy =     -393.63693609  energy(sigma->0) =     -393.63780099


--------------------------------------------------------------------------------------------------------




--------------------------------------- Iteration      1(  12)  ---------------------------------------


    POTLOK:  cpu time    0.4165: real time    0.4177
    SETDIJ:  cpu time    0.0301: real time    0.0302
    EDDIAG:  cpu time   12.0506: real time   12.0813
  RMM-DIIS:  cpu time   45.6647: real time   45.7805
    ORTHCH:  cpu time    1.3734: real time    1.3767
       DOS:  cpu time    0.0018: real time    0.0018
    CHARGE:  cpu time    4.0463: real time    4.0566
[...]
     5.429999828  9.405035588  0.000000000     0.000000000  0.106326020  0.000000000
     0.000000000  0.000000000 22.000000000     0.000000000  0.000000000  0.045454545

  length of vectors
    10.859999657 10.859999657 22.000000000     0.106326020  0.106326020  0.045454545


 FORCES acting on ions
    electron-ion (+dipol)            ewald-force                    non-local-force                 convergence-correction
 -----------------------------------------------------------------------------------------------
   -.428E+02 0.713E+02 -.145E+04   0.424E+02 -.714E+02 0.144E+04   0.371E+00 0.187E+00 0.213E+01   -.102E-03 0.589E-03 0.457E-03
   0.293E+02 0.571E+02 -.142E+04   -.288E+02 -.572E+02 0.142E+04   -.470E+00 0.226E+00 0.247E+01   -.386E-03 0.478E-03 0.355E-03
   0.383E+02 -.632E+01 -.148E+04   -.399E+02 0.656E+01 0.148E+04   0.166E+01 -.292E+00 0.196E+01   0.304E-03 -.513E-03 0.334E-03
   -.444E+01 0.307E+02 -.284E+04   0.468E+01 -.304E+02 0.284E+04   -.237E+00 -.298E+00 0.121E+01   -.201E-03 0.386E-04 -.336E-03
   -.175E+02 0.889E+01 -.283E+04   0.169E+02 -.839E+01 0.283E+04   0.695E+00 -.506E+00 0.189E+01   -.127E-04 -.186E-03 0.880E-04
   0.851E+01 0.131E+01 -.283E+04   -.842E+01 -.163E+01 0.282E+04   -.854E-01 0.280E+00 0.146E+01   -.352E-03 0.229E-03 0.511E-05
   -.221E+02 -.650E+01 -.287E+04   0.221E+02 0.589E+01 0.286E+04   -.736E-01 0.590E+00 0.188E+01   0.229E-03 -.144E-04 -.127E-03
   0.119E+02 -.238E+02 -.285E+04   -.123E+02 0.240E+02 0.285E+04   0.366E+00 -.795E-01 0.221E+01   0.337E-03 0.464E-03 -.388E-06
   -.225E+02 0.155E+02 -.285E+04   0.223E+02 -.153E+02 0.285E+04   0.193E+00 -.164E+00 0.153E+01   -.118E-03 -.170E-04 -.345E-03
   -.952E+01 -.197E+01 -.282E+04   0.100E+02 0.228E+01 0.281E+04   -.439E+00 -.290E+00 0.207E+01   0.165E-03 0.283E-03 -.121E-03
   -.138E+02 -.923E+01 -.286E+04   0.141E+02 0.897E+01 0.286E+04   -.271E+00 0.228E+00 0.120E+01   0.220E-03 0.211E-03 -.406E-03
   -.146E+02 -.136E+01 -.283E+04   0.148E+02 0.110E+01 0.283E+04   -.249E+00 0.255E+00 0.161E+01   0.746E-05 0.314E-04 0.149E-04
   0.221E+01 -.277E+02 -.283E+04   -.251E+01 0.272E+02 0.283E+04   0.278E+00 0.492E+00 0.143E+01   0.107E-03 0.135E-03 -.335E-03
   0.308E+02 0.161E+02 -.284E+04   -.302E+02 -.159E+02 0.284E+04   -.630E+00 -.251E+00 0.189E+01   -.183E-03 -.255E-03 0.722E-04
   0.285E+02 -.660E+01 -.285E+04   -.281E+02 0.692E+01 0.285E+04   -.422E+00 -.319E+00 0.181E+01   -.305E-05 -.331E-03 -.243E-03
   -.270E+01 -.201E+01 -.283E+04   0.232E+01 0.149E+01 0.283E+04   0.377E+00 0.497E+00 0.158E+01   -.243E-03 -.563E-04 0.104E-03
   0.286E+02 -.919E+01 -.285E+04   -.285E+02 0.940E+01 0.284E+04   -.106E+00 -.226E+00 0.153E+01   -.159E-03 -.107E-03 -.524E-03
   0.681E+02 -.624E+02 -.148E+04   -.669E+02 0.626E+02 0.148E+04   -.121E+01 -.189E+00 0.161E+01   -.112E-03 -.514E-03 0.141E-03
   0.243E+02 -.433E+02 -.146E+04   -.255E+02 0.429E+02 0.146E+04   0.111E+01 0.418E+00 0.241E+01   0.192E-03 0.115E-03 0.202E-03
   0.311E+02 0.249E+02 0.290E+04   -.312E+02 -.251E+02 -.290E+04   0.711E-01 0.230E+00 -.265E+01   -.148E-03 0.127E-03 0.436E-03
   0.206E+02 -.730E+01 0.155E+04   -.216E+02 0.800E+01 -.155E+04   0.988E+00 -.654E+00 0.942E+00   0.184E-03 -.386E-03 0.446E-03
   -.615E+02 0.109E+02 -.144E+04   0.624E+02 -.103E+02 0.143E+04   -.838E+00 -.569E+00 0.253E+01   -.188E-03 0.249E-03 0.648E-04
   -.459E+02 0.630E+02 0.298E+04   0.467E+02 -.618E+02 -.298E+04   -.804E+00 -.116E+01 -.245E+01   0.135E-03 0.568E-04 0.632E-03
   0.119E+02 -.501E+02 0.153E+04   -.117E+02 0.495E+02 -.153E+04   -.293E+00 0.549E+00 -.739E+00   0.124E-03 0.805E-03 0.600E-03
   0.112E+02 0.244E+01 -.283E+04   -.113E+02 -.241E+01 0.283E+04   0.155E+00 -.371E-02 0.131E+01   -.216E-03 -.338E-03 -.267E-03
   -.168E+02 0.196E+01 0.238E+02   0.168E+02 -.164E+01 -.250E+02   -.121E+00 -.409E+00 0.114E+01   0.181E-04 -.698E-03 0.692E-04
   -.148E+02 0.125E+02 -.286E+04   0.143E+02 -.126E+02 0.286E+04   0.596E+00 0.119E+00 0.176E+01   0.436E-03 -.588E-04 -.163E-03
   0.758E+01 0.468E+02 0.281E+02   -.863E+01 -.482E+02 -.282E+02   0.116E+01 0.131E+01 0.981E-01   -.769E-04 0.198E-03 0.971E-04
   -.624E+02 0.517E+01 -.145E+04   0.629E+02 -.633E+01 0.145E+04   -.512E+00 0.123E+01 0.275E+01   0.160E-04 -.843E-04 0.337E-03
   0.277E+02 0.300E+02 -.149E+04   -.276E+02 -.292E+02 0.149E+04   -.200E+00 -.777E+00 0.218E+01   -.319E-04 -.522E-03 0.296E-03
   0.205E+00 -.671E+02 -.752E+02   -.121E+01 0.665E+02 0.755E+02   0.109E+01 0.569E+00 -.311E+00   -.652E-04 -.184E-03 -.134E-03
   -.162E+02 -.194E+02 0.139E+02   0.169E+02 0.201E+02 -.145E+02   -.732E+00 -.792E+00 0.598E+00   0.710E-04 -.786E-03 0.229E-03
   0.185E+02 0.138E+02 -.120E+04   -.186E+02 -.141E+02 0.120E+04   0.391E-01 0.376E+00 0.207E+00   -.115E-03 -.361E-04 0.350E-03
   -.673E+02 -.947E+01 0.233E+04   0.675E+02 0.816E+01 -.233E+04   -.237E+00 0.136E+01 -.288E+01   0.532E-04 0.423E-03 0.730E-04
   0.354E+02 -.229E+02 0.238E+04   -.353E+02 0.211E+02 -.237E+04   -.563E-01 0.185E+01 -.269E+01   -.385E-03 0.243E-03 0.143E-03
   0.278E+02 0.153E+01 0.237E+04   -.277E+02 -.726E+00 -.237E+04   -.132E+00 -.818E+00 -.307E+01   -.166E-04 -.179E-03 0.614E-04
   0.226E+02 0.606E+02 0.123E+04   -.217E+02 -.598E+02 -.123E+04   -.986E+00 -.840E+00 -.650E-01   0.127E-03 0.407E-04 0.340E-03
   0.275E+02 -.601E+02 0.123E+04   -.274E+02 0.598E+02 -.123E+04   -.968E-01 0.329E+00 -.445E+00   -.237E-05 0.825E-03 0.384E-03
   -.584E+02 -.194E+02 -.120E+04   0.586E+02 0.196E+02 0.119E+04   -.148E+00 -.280E+00 0.504E+00   -.558E-04 -.148E-03 0.182E-03
   -.120E+03 0.159E+02 0.239E+04   0.119E+03 -.158E+02 -.239E+04   0.816E+00 -.143E+00 -.306E+01   0.426E-03 -.367E-03 0.421E-03
   -.341E+02 0.508E+02 0.125E+04   0.333E+02 -.503E+02 -.125E+04   0.883E+00 -.564E+00 -.478E+00   -.902E-04 0.971E-04 0.478E-03
   -.562E+02 0.232E+01 -.434E+02   0.559E+02 -.194E+01 0.434E+02   0.261E+00 -.409E+00 -.170E+00   -.585E-04 -.384E-03 0.160E-04
   0.144E+02 -.821E+02 -.121E+04   -.145E+02 0.819E+02 0.121E+04   0.144E+00 0.246E+00 0.804E+00   0.307E-03 0.294E-03 0.906E-04
   0.131E+02 0.262E+02 -.120E+04   -.132E+02 -.263E+02 0.119E+04   0.134E+00 0.397E-01 0.306E-01   0.135E-03 -.377E-03 0.178E-03
   -.186E+01 -.650E+02 0.236E+04   0.971E+00 0.638E+02 -.236E+04   0.900E+00 0.117E+01 -.309E+01   0.201E-03 0.232E-03 0.347E-03
   0.181E+02 -.171E+02 0.266E+04   -.180E+02 0.173E+02 -.266E+04   -.671E-01 -.267E+00 -.295E+01   -.156E-03 -.341E-03 0.409E-03
   0.129E+03 0.397E+02 0.268E+04   -.129E+03 -.387E+02 -.268E+04   0.174E+00 -.980E+00 -.283E+01   -.804E-04 -.454E-03 0.267E-03
   -.511E+02 -.481E+02 0.136E+04   0.506E+02 0.470E+02 -.136E+04   0.527E+00 0.122E+01 -.277E+00   0.192E-03 0.841E-03 0.174E-03
   -.643E+02 0.495E+02 0.182E+02   0.644E+02 -.495E+02 -.187E+02   -.131E+00 -.140E+00 0.571E+00   0.228E-03 0.339E-03 0.477E-03
   -.107E+03 0.824E+01 0.136E+04   0.107E+03 -.782E+01 -.136E+04   0.450E+00 -.469E+00 -.191E+00   0.455E-03 0.231E-04 0.398E-03
   -.121E+02 -.125E+02 0.136E+04   0.123E+02 0.122E+02 -.136E+04   -.143E+00 0.425E+00 -.203E+00   -.115E-03 -.108E-02 0.101E-02
   0.427E+02 0.333E+01 -.137E+04   -.426E+02 -.349E+01 0.137E+04   -.161E+00 0.192E+00 0.106E+01   0.186E-05 0.315E-03 0.478E-04
   0.544E+02 -.488E+02 0.268E+04   -.540E+02 0.488E+02 -.267E+04   -.425E+00 -.135E+00 -.296E+01   0.666E-04 0.980E-03 0.246E-03
   -.112E+01 0.128E+02 0.136E+04   0.125E+01 -.126E+02 -.136E+04   -.218E+00 -.314E+00 -.485E+00   0.194E-03 0.236E-03 0.803E-03
   0.314E+02 -.740E+02 -.192E+02   -.306E+02 0.735E+02 0.195E+02   -.838E+00 0.533E+00 -.461E+00   0.927E-04 0.565E-03 -.315E-03
   0.223E+02 0.186E+02 0.332E+04   -.228E+02 -.180E+02 -.332E+04   0.497E+00 -.557E+00 -.418E+01   -.500E-03 -.993E-03 0.732E-03
   0.537E+02 0.688E+01 0.166E+04   -.539E+02 -.742E+01 -.166E+04   0.184E+00 0.552E+00 -.673E-01   0.640E-05 -.287E-04 0.136E-03
   0.112E+03 -.370E+02 0.163E+04   -.112E+03 0.371E+02 -.163E+04   -.212E+00 -.118E+00 -.103E+00   -.319E-03 -.278E-03 0.684E-03
   0.245E+02 0.636E+02 0.997E+02   -.251E+02 -.635E+02 -.100E+03   0.550E+00 -.225E+00 0.298E+00   -.947E-04 0.464E-03 0.285E-03
   0.131E+02 0.534E+02 -.165E+04   -.127E+02 -.532E+02 0.165E+04   -.471E+00 -.260E+00 0.101E+01   -.355E-03 0.773E-04 0.227E-03
   -.402E+02 0.282E+02 -.164E+04   0.393E+02 -.279E+02 0.164E+04   0.960E+00 -.222E+00 0.193E+01   0.603E-03 0.482E-03 0.304E-03
   0.345E+01 0.103E+03 0.327E+04   -.338E+01 -.103E+03 -.326E+04   -.114E+00 0.433E+00 -.344E+01   -.269E-03 0.596E-04 0.655E-03
   -.165E+02 -.588E+02 0.331E+04   0.156E+02 0.589E+02 -.330E+04   0.896E+00 -.163E+00 -.328E+01   0.477E-03 0.139E-02 0.422E-04
   0.110E+03 0.144E+02 -.522E+02   -.110E+03 -.143E+02 0.525E+02   -.592E-01 -.272E+00 -.483E+00   0.808E-05 -.496E-03 -.555E-04
   -.116E+03 -.258E+02 0.279E+02   0.116E+03 0.257E+02 -.278E+02   0.320E+00 0.110E+00 -.132E+00   -.318E-04 -.956E-04 -.327E-03
   -.468E+01 0.699E+02 0.173E+04   0.456E+01 -.692E+02 -.173E+04   0.164E+00 -.716E+00 -.896E+00   -.328E-03 0.665E-03 0.437E-03
   0.253E+02 -.668E+02 0.308E+02   -.249E+02 0.657E+02 -.312E+02   -.405E+00 0.128E+01 0.334E+00   -.782E-04 -.171E-03 -.163E-03
   0.549E+02 -.182E+02 0.681E+01   -.541E+02 0.180E+02 -.668E+01   -.764E+00 0.225E+00 -.604E-01   0.145E-03 -.281E-03 0.207E-03
   -.691E+02 -.201E+01 0.150E+04   0.686E+02 0.215E+01 -.150E+04   0.477E+00 -.105E+00 -.262E+00   0.124E-04 -.849E-03 0.114E-02
   -.210E+02 0.159E+02 0.156E+04   0.214E+02 -.162E+02 -.156E+04   -.403E+00 0.286E+00 -.483E+00   -.228E-05 -.164E-03 0.563E-03
   -.864E+02 -.143E+02 0.299E+04   0.869E+02 0.144E+02 -.299E+04   -.681E+00 0.662E-02 -.204E+01   0.849E-03 0.136E-03 0.619E-04
   0.401E+02 -.468E+02 0.298E+04   -.408E+02 0.473E+02 -.297E+04   0.853E+00 -.570E+00 -.136E+01   -.695E-03 -.634E-03 0.380E-03
   0.106E+02 -.198E+02 0.154E+04   -.102E+02 0.196E+02 -.154E+04   -.373E+00 0.206E+00 0.242E-01   -.355E-03 0.451E-04 0.107E-02
   0.472E+02 0.115E+01 0.153E+04   -.467E+02 -.123E+01 -.153E+04   -.575E+00 0.115E+00 -.299E+00   -.105E-03 -.738E-03 0.428E-03
   -.321E+02 -.576E+02 -.151E+04   0.321E+02 0.577E+02 0.151E+04   0.959E-01 -.986E-01 0.448E+00   -.116E-03 -.262E-03 0.153E-03
   -.256E+02 0.142E+02 0.296E+04   0.262E+02 -.136E+02 -.296E+04   -.622E+00 -.494E+00 -.213E+01   -.153E-03 -.955E-03 0.971E-03
   -.468E+02 0.854E+02 0.744E+02   0.473E+02 -.851E+02 -.743E+02   -.445E+00 -.404E+00 -.202E+00   -.135E-03 0.531E-03 0.462E-05
   0.125E+00 0.614E+02 -.729E+01   -.234E+00 -.607E+02 0.714E+01   0.131E+00 -.783E+00 0.356E-02   0.863E-05 0.380E-03 0.148E-03
   0.629E+02 -.187E+01 -.283E+02   -.625E+02 0.248E+01 0.284E+02   -.412E+00 -.623E+00 -.154E+00   -.136E-03 0.162E-03 -.502E-04
   0.737E+00 -.669E+02 0.318E+02   -.117E+01 0.665E+02 -.319E+02   0.391E+00 0.476E+00 0.610E-01   0.103E-03 0.500E-03 0.109E-03
 -----------------------------------------------------------------------------------------------
   -.211E+01 -.613E+00 -.250E+01   -.455E-12 0.185E-12 0.173E-10   0.209E+01 0.651E+00 0.246E+01   -.106E-03 -.405E-05 0.167E-01
 
 
 POSITION                                       TOTAL-FORCE (eV/Angst)
 -----------------------------------------------------------------------------------
     13.30188      8.27717      6.93245         0.003783      0.007150     -0.017665
      5.25050      8.29297      6.87850        -0.003289      0.013410      0.020550
      5.09796      3.58650      6.97470         0.006609     -0.055572      0.003956
     14.72112      9.05833      9.19516         0.003877      0.001343     -0.013653
      3.81582      4.36544      9.28594         0.014968     -0.018145      0.005405
      6.57529      9.04267      9.17299        -0.003372     -0.008940     -0.018398
     11.98596      4.31439      9.27452        -0.025222     -0.000075      0.002338
      9.26999      9.02982      9.16766        -0.012385      0.020712     -0.011392
     10.62933      1.98489      9.15034        -0.004296      0.032823     -0.011715
      2.51425      1.99333      9.19438         0.020863     -0.001361     -0.006991
     11.98990      9.03146      9.21695         0.011301      0.001189      0.005276
     13.34892      6.69172      9.27601        -0.021091     -0.005034     -0.008233
      5.19891      1.96329      9.22928        -0.030341     -0.002726      0.014382
      7.94997      6.70439      9.21615         0.003996     -0.000934      0.001016
      9.30215      4.34590      9.19674         0.009433     -0.027900      0.017660
      5.19756      6.68636      9.26469         0.003992     -0.015535     -0.010954
      7.92137      1.97838      9.17988         0.028422      0.016550      0.009420
      7.98747      3.53940      6.93759         0.011529      0.006080     -0.045476
      6.47075      1.17910      6.88192        -0.007399      0.008456     -0.003160
      6.62542      1.16033      1.01568        -0.002037      0.005445     -0.000699
      3.78124      4.31135      2.85703        -0.017204     -0.016315     -0.006028
      1.22249      1.27584      6.87795         0.026068     -0.000044      0.016377
      1.15567      1.23675      0.80812        -0.002928      0.016895     -0.015381
      6.62352      9.00900      2.94638         0.004377      0.001558      0.009765
      6.56228      4.33859      9.25649        -0.000829      0.035416      0.007336
      7.92439      5.15459      4.80969         0.010450     -0.036742      0.021296
     10.61734      6.69214      9.22712         0.032395     -0.010540      0.004075
     14.63661      7.39466      4.85051         0.015968     -0.010057     -0.032721
     12.02347      5.86333      6.99126        -0.012739      0.001418      0.011319
      6.57980      5.93924      6.95827         0.022627     -0.031001      0.001926
      3.67931      2.60564      4.97255        -0.001292     -0.002369     -0.025234
     10.64713      5.18812      4.85947        -0.024068     -0.010174     -0.005027
      3.87256      5.94866      7.09931        -0.018542     -0.013683     -0.003608
     13.31421      8.09728      1.05685        -0.011697      0.006560      0.020988
      5.30905      8.11595      0.93936        -0.010264      0.007260      0.015401
      3.92857      5.94156      0.93592         0.003771      0.015251      0.013580
      8.05386      2.12946      2.90054        -0.019802      0.014795     -0.021683
      9.32899      8.96609      2.90333         0.006421      0.044807      0.007565
      2.46591      3.61640      7.08945        -0.003003     -0.027643      0.015505
      2.35311      3.57145      0.91590        -0.006765     -0.019651      0.001446
     10.64588      2.02969      2.87660        -0.019242     -0.004170     -0.039227
     13.32002      5.11294      4.93827         0.002868      0.003511     -0.026295
      3.85846      1.08247      7.03403         0.016384      0.007440      0.022912
      9.28172      5.90701      7.04850         0.005074      0.003620     -0.011959
      3.83383      1.10072      0.97127        -0.018451      0.021798      0.034856
      9.38306      5.86937      1.02764        -0.022522      0.005568      0.001767
      5.29366      3.59964      0.97023         0.000656     -0.017880      0.013052
     11.92478      8.89894      2.96205        -0.008228      0.010597      0.026611
     11.98161      7.44837      4.85536         0.012316     -0.035587      0.004140
     13.19392      6.59754      2.88244         0.000116     -0.009517      0.004672
      9.30356      4.29380      2.83538         0.023579      0.016471     -0.025263
      7.97160      8.22424      6.98447         0.022457     -0.014139      0.001112
      8.04645      8.22972      0.95960        -0.009743      0.013891     -0.006569
     10.69526      6.74219      2.84766        -0.026665     -0.000281     -0.002875
      2.61555      0.23694      5.01544         0.008395      0.000718     -0.021680
      7.93369      3.56163      0.85009         0.004856     -0.003679      0.013423
      5.20201      1.93970      2.98139        -0.015015     -0.027135      0.007809
      5.33876      6.63044      2.97234         0.001836     -0.001922      0.016916
      7.92891      0.48348      4.85079         0.000320      0.008113      0.008448
      9.30951      1.21472      6.93497         0.003467      0.009711     -0.016006
     10.58551      8.20525      6.95624         0.011449     -0.002502      0.021254
      9.31708      1.15830      0.86447        -0.015464      0.012579      0.013658
     10.66521      8.23823      0.86341         0.005288      0.005694      0.014714
      5.20687      5.10791      4.92329        -0.007033     -0.010185     -0.019707
     11.93848      2.82857      4.89385         0.010748      0.006656      0.013547
     14.71857      9.08131      2.89619        -0.001714      0.023486     -0.002620
      9.37079      2.74108      4.94033        -0.008492      0.015237      0.033666
      6.55972      2.77058      4.86870        -0.004646      0.014400      0.020425
     11.98589      4.30080      2.86021        -0.008586     -0.026780     -0.002972
      2.49448      1.93206      2.87475         0.009453      0.009344      0.014411
     12.00924      5.83331      0.94662        -0.004697      0.013898      0.005985
      6.59401      5.89345      1.01909         0.002795      0.002402     -0.023133
      8.06326      6.72352      2.85722         0.022812      0.020663     -0.012530
      6.60061      4.25332      2.83924        -0.004222     -0.012919     -0.000011
     10.67787      3.59311      7.02419         0.010189      0.008324     -0.003727
     10.66176      3.51658      0.94680         0.007962     -0.031089     -0.008982
     10.67093      0.52619      4.87945        -0.022140     -0.003710     -0.008410
      9.31133      7.48384      4.95374        -0.000753      0.001409     -0.017362
      6.69853      7.49883      4.94828         0.018613      0.016417     -0.011180
      5.15662      0.25853      4.91069        -0.006306      0.006871     -0.001438
 -----------------------------------------------------------------------------------
    total drift:                               -0.017452      0.037764     -0.027171


--------------------------------------------------------------------------------------------------------



  FREE ENERGIE OF THE ION-ELECTRON SYSTEM (eV)
  ---------------------------------------------------
  free  energy   TOTEN  =      -503.90174585 eV

  energy  without entropy=     -503.90412716  energy(sigma->0) =     -503.90253962
 


--------------------------------------------------------------------------------------------------------


    POTLOK:  cpu time    0.4470: real time    0.4481


--------------------------------------------------------------------------------------------------------


     LOOP+:  cpu time 5743.3740: real time 5757.4678
    4ORBIT:  cpu time    0.0000: real time    0.0000

 total amount of memory used by VASP MPI-rank0   261502. kBytes
=======================================================================

   base      :      30000. kBytes
   nonlr-proj:      32617. kBytes
   fftplans  :      17974. kBytes
   grid      :      53265. kBytes
   one-center:        622. kBytes
   wavefun   :     127024. kBytes
 
  
  
 General timing and accounting informations for this job:
 ========================================================
  
                  Total CPU time used (sec):     5837.817
                            User time (sec):     5789.659
                          System time (sec):       48.158
                         Elapsed time (sec):     5853.066
  
                   Maximum memory used (kb):      749948.
                   Average memory used (kb):           0.
  
                          Minor page faults:      1897345
                          Major page faults:            0
                 Voluntary context switches:         3476
