 vasp.5.4.4.18Apr17-6-g9f103f2a35 (build Oct 25 2019 11:13:22) complex          
  
 executed on             LinuxIFC date 2021.11.02  16:00:33
 running on   48 total cores
 distrk:  each k-point on   48 cores,    1 groups
 distr:  one band on NCORES_PER_BAND=   1 cores,   48 groups


--------------------------------------------------------------------------------------------------------


 INCAR:
 POTCAR:    PAW_PBE Pt 04Feb2005                  
 POTCAR:    PAW_PBE Fe 06Sep2000                  
 POTCAR:    PAW_PBE Co 02Aug2007                  
 POTCAR:    PAW_PBE Cu 22Jun2005                  
 POTCAR:    PAW_PBE Ni 02Aug2007                  
 POTCAR:    PAW_PBE H 15Jun2001                   

 ----------------------------------------------------------------------------- 
|                                                                             |
|           W    W    AA    RRRRR   N    N  II  N    N   GGGG   !!!           |
|           W    W   A  A   R    R  NN   N  II  NN   N  G    G  !!!           |
|           W    W  A    A  R    R  N N  N  II  N N  N  G       !!!           |
|           W WW W  AAAAAA  RRRRR   N  N N  II  N  N N  G  GGG   !            |
|           WW  WW  A    A  R   R   N   NN  II  N   NN  G    G                |
|           W    W  A    A  R    R  N    N  II  N    N   GGGG   !!!           |
|                                                                             |
|      For optimal performance we recommend to set                            |
|        NCORE= 4 - approx SQRT( number of cores)                             |
|      NCORE specifies how many cores store one orbital (NPAR=cpu/NCORE).     |
|      This setting can  greatly improve the performance of VASP for DFT.     |
|      The default,   NCORE=1            might be grossly inefficient         |
|      on modern multi-core architectures or massively parallel machines.     |
|      Do your own testing !!!!                                               |
|      Unfortunately you need to use the default for GW and RPA calculations. |
|      (for HF NCORE is supported but not extensively tested yet)             |
|                                                                             |
 ----------------------------------------------------------------------------- 

 POTCAR:    PAW_PBE Pt 04Feb2005                  
   VRHFIN =Pt: s1d9                                                             
   LEXCH  = PE                                                                  
   EATOM  =   729.1176 eV,   53.5886 Ry                                         
                                                                                
   TITEL  = PAW_PBE Pt 04Feb2005                                                
   LULTRA =        F    use ultrasoft PP ?                                      
   IUNSCR =        1    unscreen: 0-lin 1-nonlin 2-no                           
   RPACOR =    2.330    partial core radius                                     
   POMASS =  195.080; ZVAL   =   10.000    mass and valenz                      
   RCORE  =    2.600    outmost cutoff radius                                   
   RWIGS  =    2.750; RWIGS  =    1.455    wigner-seitz radius (au A)           
   ENMAX  =  230.283; ENMIN  =  172.712 eV                                      
   ICORE  =        3    local potential                                         
   LCOR   =        T    correct aug charges                                     
   LPAW   =        T    paw PP                                                  
   EAUG   =  358.966                                                            
   DEXC   =    0.000                                                            
   RMAX   =    2.658    core radius for proj-oper                               
   RAUG   =    1.300    factor for augmentation sphere                          
   RDEP   =    2.761    radius for radial grids                                 
   RDEPT  =    2.203    core radius for aug-charge                              
                                                                                
   Atomic configuration                                                         
   16 entries                                                                   
     n  l   j            E        occ.                                          
     1  0  0.50    -78401.1885   2.0000                                         
     2  0  0.50    -13770.7750   2.0000                                         
     2  1  1.50    -11931.0468   6.0000                                         
     3  0  0.50     -3234.7234   2.0000                                         
     3  1  1.50     -2699.2216   6.0000                                         
     3  2  2.50     -2119.5714  10.0000                                         
     4  0  0.50      -695.1528   2.0000                                         
     4  1  1.50      -519.6034   6.0000                                         
     4  2  2.50      -306.6786  10.0000                                         
     4  3  3.50       -70.1041  14.0000                                         
     5  0  0.50      -101.7747   2.0000                                         
     5  1  1.50       -55.9873   6.0000                                         
     5  2  2.50        -6.1423   9.0000                                         
     6  0  0.50        -5.6573   1.0000                                         
     6  1  1.50        -6.8029   0.0000                                         
     5  3  2.50        -1.3606   0.0000                                         
   Description                                                                  
     l       E           TYP  RCUT    TYP  RCUT                                 
     2     -6.1423404     23  2.500                                             
     2     -7.5029230     23  2.500                                             
     0     -5.6573207     23  2.500                                             
     0      0.7416693     23  2.500                                             
     1     -2.7211652     23  2.600                                             
     1     20.4087390     23  2.600                                             
     3     -1.3605826     23  2.500                                             
  local pseudopotential read in
  partial core-charges read in
  partial kinetic energy density read in
  atomic valenz-charges read in
  non local Contribution for L=           2  read in
    real space projection operators read in
  non local Contribution for L=           2  read in
    real space projection operators read in
  non local Contribution for L=           0  read in
    real space projection operators read in
  non local Contribution for L=           0  read in
    real space projection operators read in
  non local Contribution for L=           1  read in
    real space projection operators read in
  non local Contribution for L=           1  read in
    real space projection operators read in
    PAW grid and wavefunctions read in
 
   number of l-projection  operators is LMAX  =           6
   number of lm-projection operators is LMMAX =          18
 
 POTCAR:    PAW_PBE Fe 06Sep2000                  
   VRHFIN =Fe:  d7 s1                                                           
   LEXCH  = PE                                                                  
   EATOM  =   594.3153 eV,   43.6809 Ry                                         
                                                                                
   TITEL  = PAW_PBE Fe 06Sep2000                                                
   LULTRA =        F    use ultrasoft PP ?                                      
   IUNSCR =        1    unscreen: 0-lin 1-nonlin 2-no                           
   RPACOR =    2.000    partial core radius                                     
   POMASS =   55.847; ZVAL   =    8.000    mass and valenz                      
   RCORE  =    2.300    outmost cutoff radius                                   
   RWIGS  =    2.460; RWIGS  =    1.302    wigner-seitz radius (au A)           
   ENMAX  =  267.882; ENMIN  =  200.911 eV                                      
   RCLOC  =    1.701    cutoff for local pot                                    
   LCOR   =        T    correct aug charges                                     
   LPAW   =        T    paw PP                                                  
   EAUG   =  511.368                                                            
   DEXC   =    0.000                                                            
   RMAX   =    2.356    core radius for proj-oper                               
   RAUG   =    1.300    factor for augmentation sphere                          
   RDEP   =    2.442    radius for radial grids                                 
   RDEPT  =    1.890    core radius for aug-charge                              
                                                                                
   Atomic configuration                                                         
    9 entries                                                                   
     n  l   j            E        occ.                                          
     1  0  0.50     -6993.8440   2.0000                                         
     2  0  0.50      -814.6047   2.0000                                         
     2  1  1.50      -693.3689   6.0000                                         
     3  0  0.50       -89.4732   2.0000                                         
     3  1  1.50       -55.6373   6.0000                                         
     3  2  2.50        -3.8151   7.0000                                         
     4  0  0.50        -4.2551   1.0000                                         
     4  1  1.50        -3.4015   0.0000                                         
     4  3  2.50        -1.3606   0.0000                                         
   Description                                                                  
     l       E           TYP  RCUT    TYP  RCUT                                 
     2     -3.8151135     23  2.300                                             
     2     -5.1756961     23  2.300                                             
     0     -4.2550963     23  2.300                                             
     0      7.2035603     23  2.300                                             
     1     -2.7211652     23  2.300                                             
     1     18.4316424     23  2.300                                             
  local pseudopotential read in
  partial core-charges read in
  partial kinetic energy density read in
  atomic valenz-charges read in
  non local Contribution for L=           2  read in
    real space projection operators read in
  non local Contribution for L=           2  read in
    real space projection operators read in
  non local Contribution for L=           0  read in
    real space projection operators read in
  non local Contribution for L=           0  read in
    real space projection operators read in
  non local Contribution for L=           1  read in
    real space projection operators read in
  non local Contribution for L=           1  read in
    real space projection operators read in
    PAW grid and wavefunctions read in
 
   number of l-projection  operators is LMAX  =           6
   number of lm-projection operators is LMMAX =          18
 
 POTCAR:    PAW_PBE Co 02Aug2007                  
   VRHFIN =Co: d8 s1                                                            
   LEXCH  = PE                                                                  
   EATOM  =   813.3670 eV,   59.7808 Ry                                         
                                                                                
   TITEL  = PAW_PBE Co 02Aug2007                                                
   LULTRA =        F    use ultrasoft PP ?                                      
   IUNSCR =        1    unscreen: 0-lin 1-nonlin 2-no                           
   RPACOR =    2.000    partial core radius                                     
   POMASS =   58.933; ZVAL   =    9.000    mass and valenz                      
   RCORE  =    2.300    outmost cutoff radius                                   
   RWIGS  =    2.460; RWIGS  =    1.302    wigner-seitz radius (au A)           
   ENMAX  =  267.968; ENMIN  =  200.976 eV                                      
   RCLOC  =    1.203    cutoff for local pot                                    
   LCOR   =        T    correct aug charges                                     
   LPAW   =        T    paw PP                                                  
   EAUG   =  477.818                                                            
   DEXC   =    0.000                                                            
   RMAX   =    2.360    core radius for proj-oper                               
   RAUG   =    1.300    factor for augmentation sphere                          
   RDEP   =    2.393    radius for radial grids                                 
   RDEPT  =    1.864    core radius for aug-charge                              
                                                                                
   Atomic configuration                                                         
    9 entries                                                                   
     n  l   j            E        occ.                                          
     1  0  0.50     -7587.6674   2.0000                                         
     2  0  0.50      -893.6084   2.0000                                         
     2  1  1.50      -764.5805   6.0000                                         
     3  0  0.50       -97.5973   2.0000                                         
     3  1  1.50       -60.9648   6.0000                                         
     3  2  2.50        -4.2382   8.0000                                         
     4  0  0.50        -4.3746   1.0000                                         
     4  1  1.50        -4.0817   0.0000                                         
     4  3  2.50        -1.3606   0.0000                                         
   Description                                                                  
     l       E           TYP  RCUT    TYP  RCUT                                 
     2     -4.2382362     23  2.300                                             
     2     -5.5988188     23  2.300                                             
     0     -4.3745797     23  2.300                                             
     0      5.7660125     23  2.300                                             
     1     -2.7211652     23  2.300                                             
     1     16.9860234     23  2.300                                             
  local pseudopotential read in
  partial core-charges read in
  partial kinetic energy density read in
  atomic valenz-charges read in
  non local Contribution for L=           2  read in
    real space projection operators read in
  non local Contribution for L=           2  read in
    real space projection operators read in
  non local Contribution for L=           0  read in
    real space projection operators read in
  non local Contribution for L=           0  read in
    real space projection operators read in
  non local Contribution for L=           1  read in
    real space projection operators read in
  non local Contribution for L=           1  read in
    real space projection operators read in
    PAW grid and wavefunctions read in
 
   number of l-projection  operators is LMAX  =           6
   number of lm-projection operators is LMMAX =          18
 
 POTCAR:    PAW_PBE Cu 22Jun2005                  
   VRHFIN =Cu: d10 p1                                                           
   LEXCH  = PE                                                                  
   EATOM  =  1390.9808 eV,  102.2342 Ry                                         
                                                                                
   TITEL  = PAW_PBE Cu 22Jun2005                                                
   LULTRA =        F    use ultrasoft PP ?                                      
   IUNSCR =        1    unscreen: 0-lin 1-nonlin 2-no                           
   RPACOR =    2.000    partial core radius                                     
   POMASS =   63.546; ZVAL   =   11.000    mass and valenz                      
   RCORE  =    2.300    outmost cutoff radius                                   
   RWIGS  =    2.200; RWIGS  =    1.164    wigner-seitz radius (au A)           
   ENMAX  =  295.446; ENMIN  =  221.585 eV                                      
   ICORE  =        3    local potential                                         
   LCOR   =        T    correct aug charges                                     
   LPAW   =        T    paw PP                                                  
   EAUG   =  586.980                                                            
   DEXC   =    0.000                                                            
   RMAX   =    2.344    core radius for proj-oper                               
   RAUG   =    1.300    factor for augmentation sphere                          
   RDEP   =    2.302    radius for radial grids                                 
   RDEPT  =    1.771    core radius for aug-charge                              
                                                                                
   Atomic configuration                                                         
    9 entries                                                                   
     n  l   j            E        occ.                                          
     1  0  0.50     -8850.2468   2.0000                                         
     2  0  0.50     -1062.3498   2.0000                                         
     2  1  1.50      -916.8226   6.0000                                         
     3  0  0.50      -114.6929   2.0000                                         
     3  1  1.50       -72.1325   6.0000                                         
     3  2  2.50        -5.0394  10.0000                                         
     4  0  0.50        -4.6097   1.0000                                         
     4  1  0.50        -4.0817   0.0000                                         
     4  3  2.50        -1.3606   0.0000                                         
   Description                                                                  
     l       E           TYP  RCUT    TYP  RCUT                                 
     2     -5.0393973     23  2.200                                             
     2     10.8846608     23  2.200                                             
     0     -4.6097109     23  2.200                                             
     0      8.2520465     23  2.200                                             
     1     -2.7211652     23  2.200                                             
     1     21.7055443     23  2.200                                             
     3      2.7211652     23  2.300                                             
  local pseudopotential read in
  partial core-charges read in
  partial kinetic energy density read in
  atomic valenz-charges read in
  non local Contribution for L=           2  read in
    real space projection operators read in
  non local Contribution for L=           2  read in
    real space projection operators read in
  non local Contribution for L=           0  read in
    real space projection operators read in
  non local Contribution for L=           0  read in
    real space projection operators read in
  non local Contribution for L=           1  read in
    real space projection operators read in
  non local Contribution for L=           1  read in
    real space projection operators read in
    PAW grid and wavefunctions read in
 
   number of l-projection  operators is LMAX  =           6
   number of lm-projection operators is LMMAX =          18
 
 POTCAR:    PAW_PBE Ni 02Aug2007                  
   VRHFIN =Ni:                                                                  
   LEXCH  = PE                                                                  
   EATOM  =  1077.6739 eV,   79.2068 Ry                                         
                                                                                
   TITEL  = PAW_PBE Ni 02Aug2007                                                
   LULTRA =        F    use ultrasoft PP ?                                      
   IUNSCR =        1    unscreen: 0-lin 1-nonlin 2-no                           
   RPACOR =    2.000    partial core radius                                     
   POMASS =   58.690; ZVAL   =   10.000    mass and valenz                      
   RCORE  =    2.300    outmost cutoff radius                                   
   RWIGS  =    2.430; RWIGS  =    1.286    wigner-seitz radius (au A)           
   ENMAX  =  269.532; ENMIN  =  202.149 eV                                      
   RCLOC  =    1.201    cutoff for local pot                                    
   LCOR   =        T    correct aug charges                                     
   LPAW   =        T    paw PP                                                  
   EAUG   =  544.565                                                            
   DEXC   =    0.000                                                            
   RMAX   =    2.357    core radius for proj-oper                               
   RAUG   =    1.300    factor for augmentation sphere                          
   RDEP   =    2.390    radius for radial grids                                 
   RDEPT  =    1.838    core radius for aug-charge                              
                                                                                
   Atomic configuration                                                         
    9 entries                                                                   
     n  l   j            E        occ.                                          
     1  0  0.50     -8206.4253   2.0000                                         
     2  0  0.50      -976.1748   2.0000                                         
     2  1  1.50      -839.0571   6.0000                                         
     3  0  0.50      -105.9991   2.0000                                         
     3  1  1.50       -66.4603   6.0000                                         
     3  2  2.50        -4.6458   9.0000                                         
     4  0  0.50        -4.4926   1.0000                                         
     4  1  1.50        -4.0817   0.0000                                         
     4  3  2.50        -1.3606   0.0000                                         
   Description                                                                  
     l       E           TYP  RCUT    TYP  RCUT                                 
     2     -4.6457903     23  2.300                                             
     2     -6.0063729     23  2.300                                             
     0     -4.4925590     23  2.300                                             
     0      5.0102601     23  2.300                                             
     1     -2.7211652     23  2.300                                             
     1     16.5183231     23  2.300                                             
  local pseudopotential read in
  partial core-charges read in
  partial kinetic energy density read in
  atomic valenz-charges read in
  non local Contribution for L=           2  read in
    real space projection operators read in
  non local Contribution for L=           2  read in
    real space projection operators read in
  non local Contribution for L=           0  read in
    real space projection operators read in
  non local Contribution for L=           0  read in
    real space projection operators read in
  non local Contribution for L=           1  read in
    real space projection operators read in
  non local Contribution for L=           1  read in
    real space projection operators read in
    PAW grid and wavefunctions read in
 
   number of l-projection  operators is LMAX  =           6
   number of lm-projection operators is LMMAX =          18
 
 POTCAR:    PAW_PBE H 15Jun2001                   
   VRHFIN =H: ultrasoft test                                                    
   LEXCH  = PE                                                                  
   EATOM  =    12.4884 eV,    0.9179 Ry                                         
                                                                                
   TITEL  = PAW_PBE H 15Jun2001                                                 
   LULTRA =        F    use ultrasoft PP ?                                      
   IUNSCR =        0    unscreen: 0-lin 1-nonlin 2-no                           
   RPACOR =    0.000    partial core radius                                     
   POMASS =    1.000; ZVAL   =    1.000    mass and valenz                      
   RCORE  =    1.100    outmost cutoff radius                                   
   RWIGS  =    0.700; RWIGS  =    0.370    wigner-seitz radius (au A)           
   ENMAX  =  250.000; ENMIN  =  200.000 eV                                      
   RCLOC  =    0.701    cutoff for local pot                                    
   LCOR   =        T    correct aug charges                                     
   LPAW   =        T    paw PP                                                  
   EAUG   =  400.000                                                            
   RMAX   =    1.123    core radius for proj-oper                               
   RAUG   =    1.200    factor for augmentation sphere                          
   RDEP   =    1.112    radius for radial grids                                 
   RDEPT  =    0.926    core radius for aug-charge                              
                                                                                
   Atomic configuration                                                         
    2 entries                                                                   
     n  l   j            E        occ.                                          
     1  0  0.50        -6.4927   1.0000                                         
     2  1  0.50        -3.4015   0.0000                                         
   Description                                                                  
     l       E           TYP  RCUT    TYP  RCUT                                 
     0     -6.4927494     23  1.100                                             
     0      6.8029130     23  1.100                                             
     1     -4.0817478     23  1.100                                             
  local pseudopotential read in
  atomic valenz-charges read in
  non local Contribution for L=           0  read in
    real space projection operators read in
  non local Contribution for L=           0  read in
    real space projection operators read in
  non local Contribution for L=           1  read in
    real space projection operators read in
    PAW grid and wavefunctions read in
 
   number of l-projection  operators is LMAX  =           3
   number of lm-projection operators is LMMAX =           5
 
 Optimization of the real space projectors (new method)

 maximal supplied QI-value         = 14.36
 optimisation between [QCUT,QGAM] = [ 11.92, 23.98] = [ 39.79,161.09] Ry 
 Optimized for a Real-space Cutoff    1.49 Angstroem

   l    n(q)    QCUT    max X(q) W(low)/X(q) W(high)/X(q)  e(spline) 
   2     10    11.920    66.195    0.79E-04    0.18E-03    0.24E-06
   2     10    11.920    64.643    0.81E-04    0.19E-03    0.24E-06
   0     11    11.920    95.520    0.28E-04    0.54E-04    0.18E-06
   0     11    11.920    63.403    0.27E-04    0.52E-04    0.17E-06
   1     10    11.920    19.961    0.18E-04    0.11E-03    0.23E-06
   1     10    11.920    13.289    0.25E-04    0.87E-04    0.19E-06
 Optimization of the real space projectors (new method)

 maximal supplied QI-value         = 16.25
 optimisation between [QCUT,QGAM] = [ 11.86, 23.89] = [ 39.41,159.82] Ry 
 Optimized for a Real-space Cutoff    1.49 Angstroem

   l    n(q)    QCUT    max X(q) W(low)/X(q) W(high)/X(q)  e(spline) 
   2     10    11.864    80.901    0.13E-03    0.23E-03    0.37E-06
   2     10    11.864    75.754    0.13E-03    0.23E-03    0.38E-06
   0     11    11.864    58.752    0.44E-04    0.11E-04    0.20E-06
   0     11    11.864    30.679    0.36E-04    0.10E-04    0.18E-06
   1     10    11.864    17.977    0.31E-04    0.45E-04    0.10E-06
   1     10    11.864    13.559    0.25E-04    0.37E-04    0.89E-07
 Optimization of the real space projectors (new method)

 maximal supplied QI-value         = 16.25
 optimisation between [QCUT,QGAM] = [ 11.86, 23.89] = [ 39.41,159.82] Ry 
 Optimized for a Real-space Cutoff    1.33 Angstroem

   l    n(q)    QCUT    max X(q) W(low)/X(q) W(high)/X(q)  e(spline) 
   2      9    11.864    65.824    0.22E-03    0.53E-03    0.26E-06
   2      9    11.864    61.429    0.22E-03    0.53E-03    0.26E-06
   0      9    11.864    56.174    0.21E-03    0.32E-04    0.15E-06
   0      9    11.864    31.263    0.19E-03    0.30E-04    0.14E-06
   1      9    11.864    19.828    0.63E-04    0.30E-03    0.16E-06
   1      9    11.864    15.139    0.49E-04    0.25E-03    0.13E-06
 Optimization of the real space projectors (new method)

 maximal supplied QI-value         = 16.25
 optimisation between [QCUT,QGAM] = [ 11.86, 23.89] = [ 39.41,159.82] Ry 
 Optimized for a Real-space Cutoff    1.49 Angstroem

   l    n(q)    QCUT    max X(q) W(low)/X(q) W(high)/X(q)  e(spline) 
   2     10    11.864     4.610    0.10E-03    0.20E-03    0.29E-06
   2     10    11.864     8.522    0.17E-03    0.33E-03    0.50E-06
   0     11    11.864    51.609    0.52E-04    0.55E-04    0.33E-06
   0     11    11.864    27.747    0.46E-04    0.52E-04    0.31E-06
   1     10    11.864    20.408    0.54E-04    0.25E-04    0.21E-06
   1     10    11.864    13.425    0.48E-04    0.22E-04    0.18E-06
 Optimization of the real space projectors (new method)

 maximal supplied QI-value         = 16.25
 optimisation between [QCUT,QGAM] = [ 11.86, 23.89] = [ 39.41,159.82] Ry 
 Optimized for a Real-space Cutoff    1.33 Angstroem

   l    n(q)    QCUT    max X(q) W(low)/X(q) W(high)/X(q)  e(spline) 
   2      9    11.864    60.317    0.21E-03    0.51E-03    0.25E-06
   2      9    11.864    55.921    0.21E-03    0.51E-03    0.26E-06
   0      9    11.864    51.690    0.22E-03    0.30E-04    0.17E-06
   0      9    11.864    30.015    0.20E-03    0.28E-04    0.15E-06
   1      9    11.864    18.849    0.76E-04    0.33E-03    0.17E-06
   1      9    11.864    14.624    0.60E-04    0.28E-03    0.15E-06
 Optimization of the real space projectors (new method)

 maximal supplied QI-value         = 34.20
 optimisation between [QCUT,QGAM] = [ 11.97, 23.94] = [ 40.13,160.53] Ry 
 Optimized for a Real-space Cutoff    1.18 Angstroem

   l    n(q)    QCUT    max X(q) W(low)/X(q) W(high)/X(q)  e(spline) 
   0      8    11.971    19.460    0.15E-03    0.31E-03    0.25E-06
   0      8    11.971    12.209    0.13E-03    0.29E-03    0.25E-06
   1      8    11.971     4.655    0.22E-03    0.24E-03    0.21E-06
  PAW_PBE Pt 04Feb2005                  :
 energy of atom  1       EATOM= -729.1176
 kinetic energy error for atom=    0.0021 (will be added to EATOM!!)
  PAW_PBE Fe 06Sep2000                  :
 energy of atom  2       EATOM= -594.3153
 kinetic energy error for atom=    0.0024 (will be added to EATOM!!)
  PAW_PBE Co 02Aug2007                  :
 energy of atom  3       EATOM= -813.3670
 kinetic energy error for atom=    0.0026 (will be added to EATOM!!)
  PAW_PBE Cu 22Jun2005                  :
 energy of atom  4       EATOM=-1390.9808
 kinetic energy error for atom=    0.0036 (will be added to EATOM!!)
  PAW_PBE Ni 02Aug2007                  :
 energy of atom  5       EATOM=-1077.6739
 kinetic energy error for atom=    0.0027 (will be added to EATOM!!)
  PAW_PBE H 15Jun2001                   :
 energy of atom  6       EATOM=  -12.4884
 kinetic energy error for atom=    0.0008 (will be added to EATOM!!)
 
 
 POSCAR: 10.56                                   
  positions in cartesian coordinates
  No initial velocities read in
 exchange correlation table for  LEXCH =        8
   RHO(1)=    0.500       N(1)  =     2000
   RHO(2)=  100.500       N(2)  =     4000
 


--------------------------------------------------------------------------------------------------------


 ion  position               nearest neighbor table
   1  0.787  0.879  0.318-  49 2.62  28 2.62  19 2.63  59 2.65  33 2.65  61 2.66  29 2.67  60 2.68
                             2 2.72  11 2.76   4 2.82  12 2.86
   2  0.042  0.883  0.316-  79 2.54  77 2.59  60 2.62  30 2.65  28 2.65  52 2.66  33 2.68  22 2.70
                             1 2.72   6 2.75   4 2.84  16 2.90
   3  0.279  0.382  0.319-  64 2.56  39 2.57  33 2.58  31 2.64  19 2.71  43 2.71  68 2.71  30 2.73
                             5 2.79  13 2.81  18 2.81  25 2.84
   4  0.875  0.962  0.424-   9 2.63  17 2.63   6 2.63  11 2.64  16 2.64  12 2.66  60 2.81   1 2.82
                             2 2.84
   5  0.122  0.463  0.428-   7 2.62  12 2.62  16 2.64  10 2.64  25 2.65  13 2.67  33 2.73  39 2.73
                             3 2.79
   6  0.125  0.962  0.421-   9 2.63   4 2.63   8 2.64  10 2.64  16 2.65  14 2.65   2 2.75  52 2.77
                            22 2.85
   7  0.877  0.459  0.427-   5 2.62   9 2.62  10 2.63  15 2.63  27 2.65  12 2.66  39 2.68  75 2.79
                            29 2.81
   8  0.374  0.961  0.419-  43 2.57  13 2.63  10 2.63   6 2.64  11 2.65  14 2.66  27 2.67  52 2.67
                            61 2.69
   9  0.875  0.211  0.421-  15 2.61   7 2.62   4 2.63   6 2.63  17 2.64  10 2.65  75 2.70  60 2.72
                            22 2.81
  10  0.126  0.211  0.423-  13 2.62   7 2.63   8 2.63   5 2.64   6 2.64   9 2.65  39 2.67  43 2.72
                            22 2.79
  11  0.626  0.961  0.424-  17 2.63  13 2.63  12 2.63   4 2.64  27 2.65   8 2.65   1 2.76  19 2.82
                            61 2.84
  12  0.874  0.711  0.427-   5 2.62  27 2.62  11 2.63  16 2.64   7 2.66   4 2.66  33 2.69  29 2.82
                             1 2.86
  13  0.375  0.209  0.425-  10 2.62   8 2.63  11 2.63  25 2.64  17 2.65   5 2.67  43 2.77   3 2.81
                            19 2.83
  14  0.375  0.710  0.429-  81 1.73  16 2.64  25 2.65  27 2.65   6 2.65   8 2.66  15 2.67  44 2.77
                            30 2.81  52 2.89
  15  0.628  0.458  0.422-   9 2.61   7 2.63  17 2.63  27 2.65  25 2.67  14 2.67  44 2.68  75 2.69
                            18 2.73
  16  0.124  0.712  0.426-   5 2.64  14 2.64  12 2.64   4 2.64   6 2.65  25 2.65  33 2.68  30 2.81
                             2 2.90
  17  0.625  0.210  0.423-   4 2.63  11 2.63  15 2.63  25 2.64   9 2.64  13 2.65  18 2.77  60 2.78
                            19 2.86
  18  0.548  0.376  0.317-  67 2.56  60 2.59  75 2.61  68 2.66  44 2.66  26 2.66  30 2.70  19 2.72
                            15 2.73  17 2.77   3 2.81  25 2.89
  19  0.535  0.125  0.315-  80 2.55  43 2.56  68 2.57  59 2.60   1 2.63  61 2.64   3 2.71  18 2.72
                            60 2.76  11 2.82  13 2.83  17 2.86
  20  0.547  0.124  0.040-  37 2.55  57 2.56  48 2.58  62 2.64  63 2.68  47 2.68  45 2.68  56 2.70
                            34 2.71
  21  0.121  0.460  0.128-  40 2.52  36 2.53  47 2.53  42 2.60  69 2.61  64 2.62  70 2.64  50 2.64
                            58 2.67  31 2.70  57 2.71  74 2.72
  22  0.043  0.138  0.314-  65 2.51  55 2.53  77 2.57  43 2.58  39 2.58  75 2.60  60 2.68   2 2.70
                            52 2.72  10 2.79   9 2.81   6 2.85  31 3.38
  23  0.042  0.130  0.033-  70 2.58  40 2.60  41 2.61  45 2.62  62 2.64  76 2.64  24 2.69  35 2.73
                            53 2.78
  24  0.130  0.958  0.132-  79 2.51  77 2.54  35 2.57  53 2.57  55 2.58  70 2.62  38 2.64  58 2.64
                            73 2.65  23 2.69  66 2.70  41 2.72
  25  0.375  0.460  0.427-  17 2.64  13 2.64   5 2.65  14 2.65  16 2.65  15 2.67  30 2.84   3 2.84
                            18 2.89
  26  0.455  0.546  0.219-  73 2.50  74 2.54  51 2.56  79 2.61  64 2.63  18 2.66  30 2.66  68 2.67
                            78 2.67  32 2.68  67 2.72  44 2.78
  27  0.626  0.710  0.429-  81 1.78  12 2.62   7 2.65  11 2.65  14 2.65  15 2.65   8 2.67  44 2.78
                            29 2.85  61 2.89
  28  0.956  0.790  0.221-  58 2.57  66 2.57  50 2.58  42 2.59  49 2.61   1 2.62  64 2.63   2 2.65
                            59 2.70  33 2.73  79 2.76  77 2.77
  29  0.792  0.624  0.320-  39 2.55  75 2.57  42 2.58  44 2.62  32 2.63  61 2.66  33 2.66   1 2.67
                            49 2.69   7 2.81  12 2.82  27 2.85
  30  0.293  0.633  0.320-  79 2.58  44 2.60  52 2.60   2 2.65  64 2.65  26 2.66  33 2.68  18 2.70
                             3 2.73  16 2.81  14 2.81  25 2.84
  31  0.203  0.281  0.225-  70 2.52  55 2.56  65 2.57  43 2.59  57 2.60   3 2.64  39 2.68  80 2.70
                            21 2.70  42 2.71  68 2.75  64 2.79  22 3.38
  32  0.706  0.549  0.221-  54 2.53  69 2.56  51 2.58  49 2.59  42 2.60  78 2.62  65 2.63  29 2.63
                            26 2.68  75 2.68  67 2.70  44 2.72
  33  0.040  0.631  0.326-   3 2.58  39 2.63   1 2.65  29 2.66  16 2.68   2 2.68  30 2.68  12 2.69
                            64 2.71  28 2.73   5 2.73  42 2.74
  34  0.797  0.862  0.042-  50 2.38  66 2.51  48 2.53  36 2.55  71 2.56  63 2.61  20 2.71  35 2.76
                            62 2.76
  35  0.056  0.866  0.038-  58 2.54  72 2.55  36 2.56  24 2.57  66 2.62  53 2.65  23 2.73  62 2.73
                            34 2.76
  36  0.046  0.628  0.037-  21 2.53  34 2.55  35 2.56  58 2.58  50 2.61  47 2.63  72 2.64  40 2.69
                            71 2.72
  37  0.627  0.222  0.129-  51 2.51  74 2.51  67 2.52  56 2.53  41 2.55  20 2.55  68 2.56  59 2.56
                            62 2.59  66 2.66  57 2.73  48 2.89
  38  0.382  0.955  0.130-  53 2.47  80 2.48  45 2.49  78 2.53  48 2.54  73 2.55  63 2.55  54 2.56
                            55 2.59  57 2.62  24 2.64  70 2.67
  39  0.035  0.385  0.325-  29 2.55   3 2.57  22 2.58  75 2.58  33 2.63  42 2.66  10 2.67  31 2.68
                             7 2.68   5 2.73  65 2.77  43 2.80
  40  0.031  0.382  0.038-  69 2.44  21 2.52  71 2.53  76 2.56  70 2.57  23 2.60  36 2.69  45 2.78
                            47 2.78
  41  0.872  0.215  0.128-  76 2.45  65 2.52  77 2.53  67 2.54  37 2.55  69 2.57  62 2.57  51 2.59
                            23 2.61  70 2.65  66 2.66  24 2.72
  42  0.955  0.545  0.224-  50 2.56  29 2.58  28 2.59  21 2.60  32 2.60  69 2.61  49 2.63  65 2.64
                            64 2.65  39 2.66  31 2.71  33 2.74
  43  0.297  0.117  0.321-  52 2.53  55 2.54  19 2.56  61 2.56   8 2.57  22 2.58  31 2.59  80 2.66
                             3 2.71  10 2.72  13 2.77  39 2.80
  44  0.540  0.631  0.323-  61 2.55  52 2.58  30 2.60  29 2.62  78 2.65  18 2.66  75 2.67  15 2.68
                            32 2.72  14 2.77  27 2.78  26 2.78
  45  0.295  0.119  0.039-  70 2.49  38 2.49  57 2.57  53 2.60  23 2.62  63 2.64  20 2.68  47 2.75
                            40 2.78
  46  0.548  0.625  0.044-  51 2.38  73 2.39  54 2.41  71 2.56  53 2.56  63 2.58  76 2.59  56 2.62
                            72 2.64
  47  0.296  0.379  0.039-  74 2.41  21 2.53  57 2.61  72 2.61  56 2.62  36 2.63  20 2.68  45 2.75
                            40 2.78
  48  0.625  0.950  0.132-  49 2.40  80 2.48  54 2.48  34 2.53  38 2.54  59 2.55  50 2.56  63 2.57
                            20 2.58  57 2.65  66 2.68  37 2.89
  49  0.706  0.794  0.220-  48 2.40  50 2.48  54 2.49  80 2.53  32 2.59  28 2.61  78 2.61   1 2.62
                            61 2.63  42 2.63  29 2.69  59 2.69
  50  0.866  0.706  0.129-  34 2.38  71 2.42  54 2.48  49 2.48  42 2.56  48 2.56  69 2.58  28 2.58
                            36 2.61  21 2.64  66 2.76  58 2.85
  51  0.626  0.460  0.127-  46 2.38  76 2.45  37 2.51  56 2.52  26 2.56  32 2.58  41 2.59  73 2.60
                            69 2.62  74 2.62  67 2.63  54 2.69
  52  0.297  0.877  0.317-  55 2.42  78 2.52  61 2.53  43 2.53  79 2.53  44 2.58  30 2.60   2 2.66
                             8 2.67  22 2.72   6 2.77  14 2.89
  53  0.306  0.868  0.040-  73 2.42  38 2.47  63 2.55  46 2.56  24 2.57  45 2.60  72 2.61  35 2.65
                            23 2.78
  54  0.627  0.715  0.128-  46 2.41  71 2.46  50 2.48  48 2.48  63 2.48  49 2.49  32 2.53  38 2.56
                            73 2.56  78 2.62  69 2.68  51 2.69
  55  0.224  0.028  0.227-  52 2.42  78 2.45  79 2.49  22 2.53  80 2.53  43 2.54  31 2.56  24 2.58
                            38 2.59  77 2.72  70 2.72  65 2.86
  56  0.543  0.381  0.035-  74 2.50  51 2.52  37 2.53  72 2.59  76 2.60  46 2.62  47 2.62  20 2.70
                            62 2.70
  57  0.378  0.205  0.133-  68 2.46  80 2.54  20 2.56  45 2.57  31 2.60  47 2.61  38 2.62  74 2.62
                            70 2.64  48 2.65  21 2.71  37 2.73
  58  0.136  0.705  0.132-  72 2.47  64 2.52  35 2.54  79 2.57  28 2.57  36 2.58  74 2.64  24 2.64
                            73 2.67  21 2.67  66 2.76  50 2.85
  59  0.705  0.050  0.220-  66 2.52  48 2.55  37 2.56  68 2.58  67 2.58  19 2.60  60 2.63   1 2.65
                            77 2.66  80 2.67  49 2.69  28 2.70
  60  0.793  0.130  0.317-  67 2.53  77 2.58  18 2.59   2 2.62  59 2.63  75 2.64  22 2.68   1 2.68
                             9 2.72  19 2.76  17 2.78   4 2.81
  61  0.538  0.873  0.317-  78 2.49  52 2.53  80 2.53  44 2.55  43 2.56  49 2.63  19 2.64   1 2.66
                            29 2.66   8 2.69  11 2.84  27 2.89
  62  0.797  0.123  0.035-  66 2.54  41 2.57  37 2.59  23 2.64  20 2.64  76 2.66  56 2.70  35 2.73
                            34 2.76
  63  0.546  0.870  0.036-  54 2.48  53 2.55  38 2.55  48 2.57  46 2.58  34 2.61  71 2.61  45 2.64
                            20 2.68
  64  0.207  0.543  0.224-  58 2.52   3 2.56  21 2.62  26 2.63  28 2.63  30 2.65  68 2.65  42 2.65
                            74 2.68  33 2.71  79 2.72  31 2.79
  65  0.952  0.297  0.221-  22 2.51  41 2.52  69 2.52  67 2.54  77 2.55  31 2.57  70 2.60  75 2.61
                            32 2.63  42 2.64  39 2.77  55 2.86
  66  0.872  0.964  0.129-  34 2.51  59 2.52  62 2.54  28 2.57  77 2.58  35 2.62  37 2.66  41 2.66
                            48 2.68  24 2.70  50 2.76  58 2.76
  67  0.714  0.290  0.223-  37 2.52  77 2.53  60 2.53  65 2.54  41 2.54  18 2.56  59 2.58  51 2.63
                            75 2.63  32 2.70  68 2.70  26 2.72
  68  0.458  0.291  0.221-  57 2.46  74 2.54  37 2.56  19 2.57  59 2.58  64 2.65  18 2.66  26 2.67
                            67 2.70   3 2.71  80 2.73  31 2.75
  69  0.876  0.457  0.128-  40 2.44  71 2.45  76 2.46  65 2.52  32 2.56  41 2.57  50 2.58  21 2.61
                            42 2.61  51 2.62  70 2.65  54 2.68
  70  0.128  0.207  0.129-  45 2.49  31 2.52  40 2.57  23 2.58  65 2.60  24 2.62  57 2.64  21 2.64
                            69 2.65  41 2.65  38 2.67  55 2.72
  71  0.792  0.622  0.040-  50 2.42  69 2.45  54 2.46  40 2.53  46 2.56  34 2.56  76 2.59  63 2.61
                            36 2.72
  72  0.298  0.625  0.042-  74 2.44  58 2.47  73 2.49  35 2.55  56 2.59  53 2.61  47 2.61  36 2.64
                            46 2.64
  73  0.386  0.711  0.129-  46 2.39  53 2.42  72 2.49  26 2.50  78 2.55  38 2.55  54 2.56  51 2.60
                            79 2.63  24 2.65  58 2.67  74 2.76
  74  0.382  0.452  0.126-  47 2.41  72 2.44  56 2.50  37 2.51  68 2.54  26 2.54  51 2.62  57 2.62
                            58 2.64  64 2.68  21 2.72  73 2.76
  75  0.793  0.380  0.320-  29 2.57  39 2.58  22 2.60  18 2.61  65 2.61  67 2.63  60 2.64  44 2.67
                            32 2.68  15 2.69   9 2.70   7 2.79
  76  0.791  0.377  0.039-  51 2.45  41 2.45  69 2.46  40 2.56  71 2.59  46 2.59  56 2.60  23 2.64
                            62 2.66
  77  0.956  0.053  0.221-  67 2.53  41 2.53  24 2.54  65 2.55  22 2.57  66 2.58  60 2.58   2 2.59
                            59 2.66  79 2.71  55 2.72  28 2.77
  78  0.458  0.797  0.224-  55 2.45  80 2.49  61 2.49  52 2.52  38 2.53  73 2.55  79 2.58  49 2.61
                            54 2.62  32 2.62  44 2.65  26 2.67
  79  0.213  0.798  0.225-  55 2.49  24 2.51  52 2.53   2 2.54  58 2.57  78 2.58  30 2.58  26 2.61
                            73 2.63  77 2.71  64 2.72  28 2.76
  80  0.462  0.030  0.222-  38 2.48  48 2.48  78 2.49  55 2.53  61 2.53  49 2.53  57 2.54  19 2.55
                            43 2.66  59 2.67  31 2.70  68 2.73
  81  0.493  0.720  0.481-  14 1.73  27 1.78
 
  LATTYP: Found a hexagonal cell.
 ALAT       =    10.5600004196
 C/A-ratio  =     2.0833332505
  
  Lattice vectors:
  
 A1 = (   5.2800002098,  -9.1452286274,   0.0000000000)
 A2 = ( -10.5600004196,   0.0000000000,   0.0000000000)
 A3 = (   0.0000000000,   0.0000000000, -22.0000000000)


Analysis of symmetry for initial positions (statically):
=====================================================================
 Subroutine PRICEL returns:
 Original cell was already a primitive cell.
 

 Routine SETGRP: Setting up the symmetry group for a 
 hexagonal supercell.


 Subroutine GETGRP returns: Found  1 space group operations
 (whereof  1 operations were pure point group operations)
 out of a pool of 24 trial point group operations.


The static configuration has the point symmetry C_1 .


Analysis of symmetry for dynamics (positions and initial velocities):
=====================================================================
 Subroutine PRICEL returns:
 Original cell was already a primitive cell.
 

 Routine SETGRP: Setting up the symmetry group for a 
 hexagonal supercell.


 Subroutine GETGRP returns: Found  1 space group operations
 (whereof  1 operations were pure point group operations)
 out of a pool of 24 trial point group operations.


The dynamic configuration has the point symmetry C_1 .


Analysis of constrained symmetry for selective dynamics:
=====================================================================
 Subroutine PRICEL returns:
 Original cell was already a primitive cell.
 

 Routine SETGRP: Setting up the symmetry group for a 
 hexagonal supercell.


 Subroutine GETGRP returns: Found  1 space group operations
 (whereof  1 operations were pure point group operations)
 out of a pool of 24 trial point group operations.


The constrained configuration has the point symmetry C_1 .


Analysis of structural, dynamic, and magnetic symmetry:
=====================================================================
 Subroutine PRICEL returns:
 Original cell was already a primitive cell.
 

 Routine SETGRP: Setting up the symmetry group for a 
 hexagonal supercell.


 Subroutine GETGRP returns: Found  1 space group operations
 (whereof  1 operations were pure point group operations)
 out of a pool of 24 trial point group operations.


The magnetic configuration has the point symmetry C_1 .


 Subroutine INISYM returns: Found  1 space group operations
 (whereof  1 operations are pure point group operations),
 and found     1 'primitive' translations

 
 
 KPOINTS: mesh auto                               

Automatic generation of k-mesh.
Space group operators:
 irot       det(A)        alpha          n_x          n_y          n_z        tau_x        tau_y        tau_z
    1     1.000000     0.000001     1.000000     0.000000     0.000000     0.000000     0.000000     0.000000
 
 Subroutine IBZKPT returns following result:
 ===========================================
 
 Found      4 irreducible k-points:
 
 Following reciprocal coordinates:
            Coordinates               Weight
  0.000000  0.000000  0.000000      1.000000
  0.500000  0.000000  0.000000      1.000000
  0.000000  0.500000  0.000000      1.000000
  0.500000  0.500000  0.000000      1.000000
 
 Following cartesian coordinates:
            Coordinates               Weight
  0.000000  0.000000  0.000000      1.000000
  0.047348 -0.027337  0.000000      1.000000
  0.000000  0.054673  0.000000      1.000000
  0.047348  0.027337  0.000000      1.000000
 
 TETIRR: Found     12 inequivalent tetrahedra from       24
 
 Subroutine IBZKPT_HF returns following result:
 ==============================================
 
 Found      4 k-points in 1st BZ
 the following      4 k-points will be used (e.g. in the exchange kernel)
 Following reciprocal coordinates:   # in IRBZ
  0.000000  0.000000  0.000000    0.25000000   1 t-inv F
  0.500000  0.000000  0.000000    0.25000000   2 t-inv F
  0.000000  0.500000  0.000000    0.25000000   3 t-inv F
  0.500000  0.500000  0.000000    0.25000000   4 t-inv F


--------------------------------------------------------------------------------------------------------




 Dimension of arrays:
   k-points           NKPTS =      4   k-points in BZ     NKDIM =      4   number of bands    NBANDS=    624
   number of dos      NEDOS =    301   number of ions     NIONS =     81
   non local maximal  LDIM  =      6   non local SUM 2l+1 LMDIM =     18
   total plane-waves  NPLWV = ******
   max r-space proj   IRMAX =   7802   max aug-charges    IRDMAX=  33988
   dimension x,y,z NGX =    84 NGY =   84 NGZ =  168
   dimension x,y,z NGXF=   168 NGYF=  168 NGZF=  336
   support grid    NGXF=   168 NGYF=  168 NGZF=  336
   ions per type =              32  13  10  13  12   1
   NGX,Y,Z   is equivalent  to a cutoff of  13.22, 13.22, 12.70 a.u.
   NGXF,Y,Z  is equivalent  to a cutoff of  26.45, 26.45, 25.39 a.u.

 SYSTEM =  Pt111                                   
 POSCAR =  10.56                                   

 Startparameter for this run:
   NWRITE =      2    write-flag & timer
   PREC   = accura    normal or accurate (medium, high low for compatibility)
   ISTART =      0    job   : 0-new  1-cont  2-samecut
   ICHARG =      2    charge: 1-file 2-atom 10-const
   ISPIN  =      2    spin polarized calculation?
   LNONCOLLINEAR =      F non collinear calculations
   LSORBIT =      F    spin-orbit coupling
   INIWAV =      1    electr: 0-lowe 1-rand  2-diag
   LASPH  =      F    aspherical Exc in radial PAW
   METAGGA=      F    non-selfconsistent MetaGGA calc.

 Electronic Relaxation 1
   ENCUT  =  550.0 eV  40.42 Ry    6.36 a.u.  20.19 20.19 42.07*2*pi/ulx,y,z
   ENINI  =  550.0     initial cutoff
   ENAUG  =  587.0 eV  augmentation charge cutoff
   NELM   =    200;   NELMIN=  2; NELMDL= -5     # of ELM steps 
   EDIFF  = 0.1E-04   stopping-criterion for ELM
   LREAL  =      T    real-space projection
   NLSPLINE    = F    spline interpolate recip. space projectors
   LCOMPAT=      F    compatible to vasp.4.4
   GGA_COMPAT  = T    GGA compatible to vasp.4.4-vasp.4.6
   LMAXPAW     = -100 max onsite density
   LMAXMIX     =    2 max onsite mixed and CHGCAR
   VOSKOWN=      0    Vosko Wilk Nusair interpolation
   ROPT   =   -0.00025  -0.00025  -0.00025  -0.00025
   ROPT   =   -0.00025  -0.00025
 Ionic relaxation
   EDIFFG = -.5E-01   stopping-criterion for IOM
   NSW    =   1009    number of steps for IOM
   NBLOCK =      1;   KBLOCK =   1009    inner block; outer block 
   IBRION =      5    ionic relax: 0-MD 1-quasi-New 2-CG
   NFREE  =      2    steps in history (QN), initial steepest desc. (CG)
   ISIF   =      2    stress and relaxation
   IWAVPR =     11    prediction:  0-non 1-charg 2-wave 3-comb
   ISYM   =      2    0-nonsym 1-usesym 2-fastsym
   LCORR  =      T    Harris-Foulkes like correction to forces

   POTIM  = 0.5000    time-step for ionic-motion
   TEIN   =    0.0    initial temperature
   TEBEG  =    0.0;   TEEND  =   0.0 temperature during run
   SMASS  =  -3.00    Nose mass-parameter (am)
   estimated Nose-frequenzy (Omega)   =  0.10E-29 period in steps =****** mass=  -0.255E-26a.u.
   SCALEE = 1.0000    scale energy and forces
   NPACO  =    256;   APACO  = 16.0  distance and # of slots for P.C.
   PSTRESS=    0.0 pullay stress

  Mass of Ions in am
   POMASS = 195.08 55.85 58.93 63.55 58.69  1.00
  Ionic Valenz
   ZVAL   =  10.00  8.00  9.00 11.00 10.00  1.00
  Atomic Wigner-Seitz radii
   RWIGS  =  -1.00 -1.00 -1.00 -1.00 -1.00 -1.00
  virtual crystal weights 
   VCA    =   1.00  1.00  1.00  1.00  1.00  1.00
   NELECT =     778.0000    total number of electrons
   NUPDOWN=      -1.0000    fix difference up-down

 DOS related values:
   EMIN   =  10.00;   EMAX   =-10.00  energy-range for DOS
   EFERMI =   0.00
   ISMEAR =    -5;   SIGMA  =   0.10  broadening in eV -4-tet -1-fermi 0-gaus

 Electronic relaxation 2 (details)
   IALGO  =     68    algorithm
   LDIAG  =      T    sub-space diagonalisation (order eigenvalues)
   LSUBROT=      F    optimize rotation matrix (better conditioning)
   TURBO    =      0    0=normal 1=particle mesh
   IRESTART =      0    0=no restart 2=restart with 2 vectors
   NREBOOT  =      0    no. of reboots
   NMIN     =      0    reboot dimension
   EREF     =   0.00    reference energy to select bands
   IMIX   =      4    mixing-type and parameters
     AMIX     =   0.40;   BMIX     =  1.00
     AMIX_MAG =   1.60;   BMIX_MAG =  1.00
     AMIN     =   0.10
     WC   =   100.;   INIMIX=   1;  MIXPRE=   1;  MAXMIX= -45

 Intra band minimization:
   WEIMIN = 0.0010     energy-eigenvalue tresh-hold
   EBREAK =  0.40E-08  absolut break condition
   DEPER  =   0.30     relativ break condition  

   TIME   =   0.40     timestep for ELM

  volume/ion in A,a.u.               =      26.23       177.01
  Fermi-wavevector in a.u.,A,eV,Ry     =   1.171227  2.213298 18.664091  1.371772
  Thomas-Fermi vector in A             =   2.307674
 
 Write flags
   LWAVE        =      F    write WAVECAR
   LDOWNSAMPLE  =      F    k-point downsampling of WAVECAR
   LCHARG       =      F    write CHGCAR
   LVTOT        =      F    write LOCPOT, total local potential
   LVHAR        =      F    write LOCPOT, Hartree potential only
   LELF         =      F    write electronic localiz. function (ELF)
   LORBIT       =      0    0 simple, 1 ext, 2 COOP (PROOUT), +10 PAW based schemes


 Dipole corrections
   LMONO  =      F    monopole corrections only (constant potential shift)
   LDIPOL =      F    correct potential (dipole corrections)
   IDIPOL =      0    1-x, 2-y, 3-z, 4-all directions 
   EPSILON=  1.0000000 bulk dielectric constant

 Exchange correlation treatment:
   GGA     =    --    GGA type
   LEXCH   =     8    internal setting for exchange type
   VOSKOWN=      0    Vosko Wilk Nusair interpolation
   LHFCALC =     F    Hartree Fock is set to
   LHFONE  =     F    Hartree Fock one center treatment
   AEXX    =    0.0000 exact exchange contribution

 Linear response parameters
   LEPSILON=     F    determine dielectric tensor
   LRPA    =     F    only Hartree local field effects (RPA)
   LNABLA  =     F    use nabla operator in PAW spheres
   LVEL    =     F    velocity operator in full k-point grid
   LINTERFAST=   F  fast interpolation
   KINTER  =     0    interpolate to denser k-point grid
   CSHIFT  =0.1000    complex shift for real part using Kramers Kronig
   OMEGAMAX=  -1.0    maximum frequency
   DEG_THRESHOLD= 0.2000000E-02 threshold for treating states as degnerate
   RTIME   =   -0.100 relaxation time in fs
  (WPLASMAI=    0.000 imaginary part of plasma frequency in eV, 0.658/RTIME)
   DFIELD  = 0.0000000 0.0000000 0.0000000 field for delta impulse in time
 
 Orbital magnetization related:
   ORBITALMAG=     F  switch on orbital magnetization
   LCHIMAG   =     F  perturbation theory with respect to B field
   DQ        =  0.001000  dq finite difference perturbation B field
   LLRAUG    =     F  two centre corrections for induced B field



--------------------------------------------------------------------------------------------------------


 finite differences
   using selective dynamics as specified on POSCAR
   WARNING: If single coordinates had been selected the selection of coordinates
            is made according to the corresponding   d i r e c t   coordinates!
            Don't support selection of single cartesian coordinates -- sorry ...
  !
 charge density and potential will be updated during run
 spin polarized calculation
 RMM-DIIS sequential band-by-band and
  variant of blocked Davidson during initial phase
 perform sub-space diagonalisation
    before iterative eigenvector-optimisation
 modified Broyden-mixing scheme, WC =      100.0
 initial mixing is a Kerker type mixing with AMIX =  0.4000 and BMIX =      1.0000
 Hartree-type preconditioning will be used
 using additional bands          235
 real space projection scheme for non local part
 use partial core corrections
 calculate Harris-corrections to forces 
   (improved forces if not selfconsistent)
 use gradient corrections 
 use of overlap-Matrix (Vanderbilt PP)
 Fermi weights with tetrahedron method with Bloechl corrections


--------------------------------------------------------------------------------------------------------


  energy-cutoff  :      550.00
  volume of cell :     2124.62
      direct lattice vectors                 reciprocal lattice vectors
    10.560000420  0.000000000  0.000000000     0.094696966 -0.054673319  0.000000000
     5.280000210  9.145228627  0.000000000     0.000000000  0.109346638  0.000000000
     0.000000000  0.000000000 22.000000000     0.000000000  0.000000000  0.045454545

  length of vectors
    10.560000420 10.560000420 22.000000000     0.109346638  0.109346638  0.045454545


 
 k-points in units of 2pi/SCALE and weight: mesh auto                               
   0.00000000  0.00000000  0.00000000       0.250
   0.04734848 -0.02733666  0.00000000       0.250
   0.00000000  0.05467332  0.00000000       0.250
   0.04734848  0.02733666  0.00000000       0.250
 
 k-points in reciprocal lattice and weights: mesh auto                               
   0.00000000  0.00000000  0.00000000       0.250
   0.50000000  0.00000000  0.00000000       0.250
   0.00000000  0.50000000  0.00000000       0.250
   0.50000000  0.50000000  0.00000000       0.250
 
 position of ions in fractional coordinates (direct lattice) 
   0.78703964  0.87897983  0.31751169
   0.04249103  0.88275823  0.31566779
   0.27925676  0.38196473  0.31946967
   0.87495084  0.96248211  0.42424744
   0.12246870  0.46277629  0.42802939
   0.12468497  0.96170332  0.42108262
   0.87651557  0.45859349  0.42741200
   0.37445536  0.96145706  0.41872557
   0.87528140  0.21100846  0.42088854
   0.12613842  0.21111536  0.42264175
   0.62555914  0.96119054  0.42359588
   0.87430106  0.71124015  0.42694983
   0.37523028  0.20934860  0.42509844
   0.37504444  0.71043610  0.42904381
   0.62811663  0.45837926  0.42150200
   0.12443699  0.71150684  0.42643710
   0.62518010  0.21040075  0.42258584
   0.54848048  0.37588014  0.31712052
   0.53466398  0.12509561  0.31488272
   0.54700026  0.12353325  0.03994180
   0.12080895  0.46017830  0.12803950
   0.04312154  0.13765664  0.31393569
   0.04244149  0.13021000  0.03298030
   0.13048322  0.95798537  0.13183245
   0.37475089  0.45971138  0.42663349
   0.45454095  0.54571928  0.21885182
   0.62635796  0.71010075  0.42937385
   0.95571501  0.79013093  0.22104486
   0.79233220  0.62376380  0.31992508
   0.29335690  0.63271891  0.31968607
   0.20263023  0.28057175  0.22546492
   0.70645161  0.54939058  0.22075077
   0.04031317  0.63121219  0.32582488
   0.79731809  0.86162656  0.04207609
   0.05609859  0.86571859  0.03774080
   0.04641287  0.62819901  0.03699114
   0.62737558  0.22224168  0.12875060
   0.38211413  0.95500403  0.12988305
   0.03524336  0.38469983  0.32480829
   0.03114053  0.38167600  0.03750461
   0.87224044  0.21539432  0.12829500
   0.95471211  0.54518808  0.22389055
   0.29650269  0.11691410  0.32127321
   0.54021853  0.63125451  0.32333419
   0.29525378  0.11938697  0.03940923
   0.54825113  0.62531765  0.04365578
   0.29553136  0.37948250  0.03889216
   0.62548736  0.94995762  0.13208615
   0.70634189  0.79434825  0.22010408
   0.86572308  0.70559157  0.12880862
   0.62619676  0.46010837  0.12710353
   0.29747280  0.87694038  0.31749111
   0.30581838  0.86812735  0.04029659
   0.62671135  0.71465279  0.12827184
   0.22389857  0.02823957  0.22731031
   0.54269301  0.38102257  0.03461701
   0.37824999  0.20530955  0.13259126
   0.13618402  0.70497383  0.13178299
   0.70486941  0.05028396  0.22036332
   0.79300812  0.13009922  0.31729856
   0.53836520  0.87337250  0.31697599
   0.79655062  0.12311547  0.03453465
   0.54614634  0.87048754  0.03589640
   0.20722235  0.54282065  0.22417055
   0.95151324  0.29672189  0.22129229
   0.87185770  0.96385702  0.12897658
   0.71421099  0.29004436  0.22334568
   0.45764413  0.29147175  0.22083053
   0.87581008  0.45650690  0.12794668
   0.12769165  0.20692390  0.12876336
   0.79229095  0.62176839  0.04024823
   0.29784859  0.62540744  0.04208964
   0.38567508  0.71146547  0.12891873
   0.38207648  0.45160905  0.12649526
   0.79337682  0.37971342  0.32019007
   0.79092480  0.37725959  0.03945628
   0.95559961  0.05293444  0.22143250
   0.45755740  0.79715593  0.22440887
   0.21315004  0.79768722  0.22457904
   0.46239859  0.03021630  0.22200270
   0.49251829  0.71956141  0.48148270
 
 position of ions in cartesian coordinates  (Angst):
  12.95215258  8.03847151  6.98525728
   5.10966894  8.07302579  6.94469131
   4.96572537  3.49315483  7.02833282
  14.32138696  8.80211892  9.33344361
   3.73672847  4.23219499  9.41664650
   6.39446708  8.79499670  9.26381765
  11.67737850  4.19394227  9.40306398
   9.03074226  8.79274462  9.21196253
  10.35709663  1.92972058  9.25954786
   2.44671096  1.93069826  9.29811854
  11.68099103  8.79030722  9.31910932
  12.98796768  6.50445376  9.39289627
   5.06779256  1.91454081  9.35216577
   7.71157218  6.49710052  9.43896387
   9.05315447  4.19198316  9.27304407
   5.07081089  6.50689274  9.38161618
   7.71281814  1.92416294  9.29688859
   7.77660135  3.43750986  6.97665144
   6.30655665  1.14402792  6.92741993
   6.42857854  1.12973983  0.87871960
   3.70548407  4.20843578  2.81686897
   1.18219056  1.25890140  6.90658529
   1.13569097  1.19080020  0.72556650
   6.43606578  8.76099519  2.90031393
   6.38464571  4.20416565  9.38593685
   7.68135056  4.99072754  4.81474005
  10.36367238  6.49403370  9.44622460
  14.26424239  7.22592798  4.86298700
  11.66050137  5.70446254  7.03835183
   6.43860498  5.78635912  7.03309349
   3.62119418  2.56589278  4.96022829
  10.36091172  5.02430245  4.85651690
   3.75850754  5.77257979  7.16814741
  12.96906778  7.87977186  0.92567400
   5.16339550  7.91719447  0.83029765
   3.80701088  5.74502359  0.81380505
   7.79852245  2.03245096  2.83251312
   9.07754686  8.73373018  2.85742705
   2.40338503  3.51816788  7.14578242
   2.34409331  3.49051425  0.82510140
  10.34814148  1.96983035  2.82248993
  12.96035349  4.98586960  4.92559202
   3.74837498  1.06920615  7.06801069
   9.03773185  5.77296686  7.11335211
   3.74824325  1.09182115  0.86700304
   9.09120953  5.71867289  0.96042722
   5.12447898  3.47045423  0.85562744
  11.62092318  8.68757958  2.90589533
  11.65312961  7.26449633  4.84228978
  12.86755974  6.45279623  2.83378953
   9.04201027  4.20779619  2.79627770
   7.77155828  8.01982027  6.98480431
   7.81315482  7.93922313  0.88652503
  10.39143898  6.53566319  2.82198042
   2.51347389  0.25825733  5.00082675
   7.74263770  3.48453850  0.76157429
   5.07835445  1.87760273  2.91700770
   5.16036530  6.44714688  2.89922570
   7.70892058  0.45985829  4.84799308
   9.06108994  1.18978708  6.98056831
  10.29654373  7.98719121  6.97347171
   9.06162455  1.12591908  0.75976228
  10.36347996  7.96080760  0.78972076
   5.05436124  4.96421897  4.93175206
  11.61467189  2.71358951  4.86843040
  14.29598293  8.81469279  2.83748465
   9.07350258  2.65252196  4.91360499
   6.37169315  2.66557579  4.85827162
  11.65891135  4.17485993  2.81482702
   2.44098212  1.89236634  2.83279397
  11.64953004  5.68621407  0.88546096
   6.44743266  5.71949403  0.92597203
   7.82926683  6.50651440  2.83621200
   6.41922371  4.13006800  2.78289578
  10.38294645  3.47256606  7.04418151
  10.34409694  3.45012521  0.86803825
  10.37062613  0.48409754  4.87151493
   9.04078979  7.29017323  4.93699507
   6.46265315  7.29503196  4.94073890
   5.04247138  0.27633499  4.88405930
   9.00027773  6.58055364 10.59261932
 


--------------------------------------------------------------------------------------------------------


 k-point  1 :   0.0000 0.0000 0.0000  plane waves:   62167
 k-point  2 :   0.5000 0.0000 0.0000  plane waves:   62242
 k-point  3 :   0.0000 0.5000 0.0000  plane waves:   62242
 k-point  4 :   0.5000 0.5000 0.0000  plane waves:   62242

 maximum and minimum number of plane-waves per node :     62242    62167

 maximum number of plane-waves:     62242
 maximum index in each direction: 
   IXMAX=   20   IYMAX=   20   IZMAX=   42
   IXMIN=  -20   IYMIN=  -20   IZMIN=  -42


 serial   3D FFT for wavefunctions
 parallel 3D FFT for charge:
    minimum data exchange during FFTs selected (reduces bandwidth)


 total amount of memory used by VASP MPI-rank0   369624. kBytes
=======================================================================

   base      :      30000. kBytes
   nonlr-proj:      98397. kBytes
   fftplans  :      12162. kBytes
   grid      :     120476. kBytes
   one-center:       2519. kBytes
   wavefun   :     106070. kBytes
 
     INWAV:  cpu time    0.0000: real time    0.0004
 Broyden mixing: mesh for mixing (old mesh)
   NGX = 41   NGY = 41   NGZ = 85
  (NGX  =168   NGY  =168   NGZ  =336)
  gives a total of 142885 points

 initial charge density was supplied:
 charge density of overlapping atoms calculated
 number of electron     778.0000000 magnetization     231.0000000
 keeping initial charge density in first step


--------------------------------------------------------------------------------------------------------


 Maximum index for non-local projection operator         7553
 Maximum index for augmentation-charges         1469 (set IRDMAX)


--------------------------------------------------------------------------------------------------------


 First call to EWALD:  gamma=   0.138
 Maximum number of real-space cells 4x 4x 2
 Maximum number of reciprocal cells 2x 2x 4

    FEWALD:  cpu time    0.0042: real time    0.0042


--------------------------------------- Iteration      1(   1)  ---------------------------------------


    POTLOK:  cpu time    0.4318: real time    0.4346
    SETDIJ:  cpu time    0.0329: real time    0.0329
     EDDAV:  cpu time   56.7388: real time   56.9085
 BZINTS: Fermi energy: 17.776012;778.000000 electrons
         Band energy:7938.788671;  BLOECHL correction: -0.020590
       DOS:  cpu time    0.0229: real time    0.0360
    --------------------------------------------
      LOOP:  cpu time   57.2264: real time   57.4121

 eigenvalue-minimisations  :  9984
 total energy-change (2. order) : 0.7620395E+04  (-0.3351015E+05)
 number of electron     778.0000000 magnetization     231.0000000
 augmentation part      778.0000000 magnetization     231.0000000

 Free energy of the ion-electron system (eV)
  ---------------------------------------------------
  alpha Z        PSCENC =      2238.96497515
  Ewald energy   TEWEN  =    223518.55597428
  -Hartree energ DENC   =   -295780.31939518
  -exchange      EXHF   =         0.00000000
  -V(xc)+E(xc)   XCENC  =      1387.65928045
  PAW double counting   =     64136.80006862   -66038.70876209
  entropy T*S    EENTRO =         0.00000000
  eigenvalues    EBANDS =      7938.78867120
  atomic energy  EATOM  =     70218.65458108
  Solvation  Ediel_sol  =         0.00000000
  ---------------------------------------------------
  free energy    TOTEN  =      7620.39539350 eV

  energy without entropy =     7620.39539350  energy(sigma->0) =     7620.39539350


--------------------------------------------------------------------------------------------------------




--------------------------------------- Iteration      1(   2)  ---------------------------------------


     EDDAV:  cpu time   57.2901: real time   57.5212
 BZINTS: Fermi energy:  5.921239;778.000000 electrons
         Band energy: 970.957025;  BLOECHL correction: -0.045573
       DOS:  cpu time    0.0228: real time    0.0237
    --------------------------------------------
      LOOP:  cpu time   57.3128: real time   57.5449

 eigenvalue-minimisations  : 10128
 total energy-change (2. order) :-0.6967832E+04  (-0.6177501E+04)
 number of electron     778.0000000 magnetization     231.0000000
 augmentation part      778.0000000 magnetization     231.0000000

 Free energy of the ion-electron system (eV)
  ---------------------------------------------------
  alpha Z        PSCENC =      2238.96497515
  Ewald energy   TEWEN  =    223518.55597428
  -Hartree energ DENC   =   -295780.31939518
  -exchange      EXHF   =         0.00000000
  -V(xc)+E(xc)   XCENC  =      1387.65928045
  PAW double counting   =     64136.80006862   -66038.70876209
  entropy T*S    EENTRO =         0.00000000
  eigenvalues    EBANDS =       970.95702540
  atomic energy  EATOM  =     70218.65458108
  Solvation  Ediel_sol  =         0.00000000
  ---------------------------------------------------
  free energy    TOTEN  =       652.56374770 eV

  energy without entropy =      652.56374770  energy(sigma->0) =      652.56374770


--------------------------------------------------------------------------------------------------------




--------------------------------------- Iteration      1(   3)  ---------------------------------------


     EDDAV:  cpu time   57.7917: real time   57.9493
 BZINTS: Fermi energy:  3.561617;778.000000 electrons
         Band energy:-109.949516;  BLOECHL correction: -0.052655
       DOS:  cpu time    0.0232: real time    0.0238
    --------------------------------------------
      LOOP:  cpu time   57.8150: real time   57.9731

 eigenvalue-minimisations  : 10224
 total energy-change (2. order) :-0.1080907E+04  (-0.9029026E+03)
 number of electron     778.0000000 magnetization     231.0000000
 augmentation part      778.0000000 magnetization     231.0000000

 Free energy of the ion-electron system (eV)
  ---------------------------------------------------
  alpha Z        PSCENC =      2238.96497515
  Ewald energy   TEWEN  =    223518.55597428
  -Hartree energ DENC   =   -295780.31939518
  -exchange      EXHF   =         0.00000000
  -V(xc)+E(xc)   XCENC  =      1387.65928045
  PAW double counting   =     64136.80006862   -66038.70876209
  entropy T*S    EENTRO =         0.00000000
  eigenvalues    EBANDS =      -109.94951621
  atomic energy  EATOM  =     70218.65458108
  Solvation  Ediel_sol  =         0.00000000
  ---------------------------------------------------
  free energy    TOTEN  =      -428.34279390 eV

  energy without entropy =     -428.34279390  energy(sigma->0) =     -428.34279390


--------------------------------------------------------------------------------------------------------




--------------------------------------- Iteration      1(   4)  ---------------------------------------


     EDDAV:  cpu time   68.0165: real time   68.3394
 BZINTS: Fermi energy:  3.438967;778.000000 electrons
         Band energy:-176.413670;  BLOECHL correction: -0.068206
       DOS:  cpu time    0.0240: real time    0.0420
    --------------------------------------------
      LOOP:  cpu time   68.0404: real time   68.3815

 eigenvalue-minimisations  : 12240
 total energy-change (2. order) :-0.6646415E+02  (-0.6404740E+02)
 number of electron     778.0000000 magnetization     231.0000000
 augmentation part      778.0000000 magnetization     231.0000000

 Free energy of the ion-electron system (eV)
  ---------------------------------------------------
  alpha Z        PSCENC =      2238.96497515
  Ewald energy   TEWEN  =    223518.55597428
  -Hartree energ DENC   =   -295780.31939518
  -exchange      EXHF   =         0.00000000
  -V(xc)+E(xc)   XCENC  =      1387.65928045
  PAW double counting   =     64136.80006862   -66038.70876209
  entropy T*S    EENTRO =         0.00000000
  eigenvalues    EBANDS =      -176.41367045
  atomic energy  EATOM  =     70218.65458108
  Solvation  Ediel_sol  =         0.00000000
  ---------------------------------------------------
  free energy    TOTEN  =      -494.80694815 eV

  energy without entropy =     -494.80694815  energy(sigma->0) =     -494.80694815


--------------------------------------------------------------------------------------------------------




--------------------------------------- Iteration      1(   5)  ---------------------------------------


     EDDAV:  cpu time   66.7528: real time   66.9699
 BZINTS: Fermi energy:  3.435184;778.000000 electrons
         Band energy:-178.579807;  BLOECHL correction: -0.065808
       DOS:  cpu time    0.0252: real time    0.0258
    CHARGE:  cpu time    2.6164: real time    2.6357
    MIXING:  cpu time    0.0107: real time    0.0108
    --------------------------------------------
      LOOP:  cpu time   69.4051: real time   69.6423

 eigenvalue-minimisations  : 12240
 total energy-change (2. order) :-0.2166137E+01  (-0.2162249E+01)
 number of electron     778.0000019 magnetization     216.4336713
 augmentation part      334.8237777 magnetization     184.3122660

 Broyden mixing:
  rms(total) = 0.11854E+02    rms(broyden)= 0.11854E+02
  rms(prec ) = 0.12151E+02
  weight for this iteration     100.00

 Free energy of the ion-electron system (eV)
  ---------------------------------------------------
  alpha Z        PSCENC =      2238.96497515
  Ewald energy   TEWEN  =    223518.55597428
  -Hartree energ DENC   =   -295780.31939518
  -exchange      EXHF   =         0.00000000
  -V(xc)+E(xc)   XCENC  =      1387.65928045
  PAW double counting   =     64136.80006862   -66038.70876209
  entropy T*S    EENTRO =         0.00000000
  eigenvalues    EBANDS =      -178.57980743
  atomic energy  EATOM  =     70218.65458108
  Solvation  Ediel_sol  =         0.00000000
  ---------------------------------------------------
  free energy    TOTEN  =      -496.97308512 eV

  energy without entropy =     -496.97308512  energy(sigma->0) =     -496.97308512


--------------------------------------------------------------------------------------------------------




--------------------------------------- Iteration      1(   6)  ---------------------------------------


    POTLOK:  cpu time    0.4135: real time    0.4666
    SETDIJ:  cpu time    0.0324: real time    0.0325
    EDDIAG:  cpu time    9.4266: real time    9.4741
  RMM-DIIS:  cpu time   37.0358: real time   37.1648
    ORTHCH:  cpu time    1.4011: real time    1.4049
 BZINTS: Fermi energy:  1.583712;778.000000 electrons
         Band energy:***********;  BLOECHL correction: -0.028507
       DOS:  cpu time    0.0260: real time    0.0261
    CHARGE:  cpu time    2.6070: real time    2.6182
    MIXING:  cpu time    0.0111: real time    0.0124
    --------------------------------------------
      LOOP:  cpu time   50.9535: real time   51.1997

 eigenvalue-minimisations  : 10023
 total energy-change (2. order) :-0.1238628E+03  (-0.8099985E+02)
 number of electron     778.0000024 magnetization     212.1250979
 augmentation part      405.6692107 magnetization     179.5224301

 Broyden mixing:
  rms(total) = 0.18983E+02    rms(broyden)= 0.18983E+02
  rms(prec ) = 0.24362E+02
  weight for this iteration     100.00

 eigenvalues of (default mixing * dielectric matrix)
  average eigenvalue GAMMA=   0.2387
  0.2387

 Free energy of the ion-electron system (eV)
  ---------------------------------------------------
  alpha Z        PSCENC =      2238.96497515
  Ewald energy   TEWEN  =    223518.55597428
  -Hartree energ DENC   =   -294165.89242852
  -exchange      EXHF   =         0.00000000
  -V(xc)+E(xc)   XCENC  =      1342.31046033
  PAW double counting   =     69148.38561167   -70846.28463975
  entropy T*S    EENTRO =         0.00000000
  eigenvalues    EBANDS =     -2075.53043291
  atomic energy  EATOM  =     70218.65458108
  Solvation  Ediel_sol  =         0.00000000
  ---------------------------------------------------
  free energy    TOTEN  =      -620.83589867 eV

  energy without entropy =     -620.83589867  energy(sigma->0) =     -620.83589867


--------------------------------------------------------------------------------------------------------




--------------------------------------- Iteration      1(   7)  ---------------------------------------


    POTLOK:  cpu time    0.4023: real time    0.4051
    SETDIJ:  cpu time    0.0325: real time    0.0326
    EDDIAG:  cpu time    9.4152: real time    9.4483
  RMM-DIIS:  cpu time   36.8597: real time   36.9676
    ORTHCH:  cpu time    1.4000: real time    1.4059
 BZINTS: Fermi energy:  3.333732;778.000000 electrons
         Band energy:***********;  BLOECHL correction: -0.027702
       DOS:  cpu time    0.0273: real time    0.0274
    CHARGE:  cpu time    2.6118: real time    2.6203
    MIXING:  cpu time    0.0111: real time    0.0112
    --------------------------------------------
      LOOP:  cpu time   50.7598: real time   50.9184

 eigenvalue-minimisations  : 10002
 total energy-change (2. order) : 0.6251391E+02  (-0.1490158E+02)
 number of electron     778.0000016 magnetization     207.5550564
 augmentation part      363.1954532 magnetization     165.1935052

 Broyden mixing:
  rms(total) = 0.16272E+02    rms(broyden)= 0.16272E+02
  rms(prec ) = 0.22214E+02
  weight for this iteration     100.00

 eigenvalues of (default mixing * dielectric matrix)
  average eigenvalue GAMMA=   0.2707
  0.3779  0.1635

 Free energy of the ion-electron system (eV)
  ---------------------------------------------------
  alpha Z        PSCENC =      2238.96497515
  Ewald energy   TEWEN  =    223518.55597428
  -Hartree energ DENC   =   -294871.60826081
  -exchange      EXHF   =         0.00000000
  -V(xc)+E(xc)   XCENC  =      1363.40250604
  PAW double counting   =     70264.69258577   -72128.66876570
  entropy T*S    EENTRO =         0.00000000
  eigenvalues    EBANDS =     -1162.31558100
  atomic energy  EATOM  =     70218.65458108
  Solvation  Ediel_sol  =         0.00000000
  ---------------------------------------------------
  free energy    TOTEN  =      -558.32198521 eV

  energy without entropy =     -558.32198521  energy(sigma->0) =     -558.32198521


--------------------------------------------------------------------------------------------------------




--------------------------------------- Iteration      1(   8)  ---------------------------------------


    POTLOK:  cpu time    0.3979: real time    0.4001
    SETDIJ:  cpu time    0.0325: real time    0.0326
    EDDIAG:  cpu time    9.4616: real time    9.4877
  RMM-DIIS:  cpu time   36.7200: real time   36.8946
    ORTHCH:  cpu time    1.4037: real time    1.4116
 BZINTS: Fermi energy:  2.871041;778.000000 electrons
         Band energy:-732.432242;  BLOECHL correction: -0.013863
       DOS:  cpu time    0.0243: real time    0.0244
    CHARGE:  cpu time    2.6120: real time    2.6192
    MIXING:  cpu time    0.0123: real time    0.0172
    --------------------------------------------
      LOOP:  cpu time   50.6643: real time   50.8872

 eigenvalue-minimisations  : 10001
[...]
      9.037732  5.772967  7.113352            0           0           0  
      3.748243  1.091821  0.867003            0           0           0  
      9.091210  5.718673  0.960427            0           0           0  
      5.124479  3.470454  0.855627            0           0           0  
     11.620923  8.687580  2.905895            0           0           0  
     11.653130  7.264496  4.842290            0           0           0  
     12.867560  6.452796  2.833790            0           0           0  
      9.042010  4.207796  2.796278            0           0           0  
      7.771558  8.019820  6.984804            0           0           0  
      7.813155  7.939223  0.886525            0           0           0  
     10.391439  6.535663  2.821980            0           0           0  
      2.513474  0.258257  5.000827            0           0           0  
      7.742638  3.484538  0.761574            0           0           0  
      5.078354  1.877603  2.917008            0           0           0  
      5.160365  6.447147  2.899226            0           0           0  
      7.708921  0.459858  4.847993            0           0           0  
      9.061090  1.189787  6.980568            0           0           0  
     10.296544  7.987191  6.973472            0           0           0  
      9.061625  1.125919  0.759762            0           0           0  
     10.363480  7.960808  0.789721            0           0           0  
      5.054361  4.964219  4.931752            0           0           0  
     11.614672  2.713590  4.868430            0           0           0  
     14.295983  8.814693  2.837485            0           0           0  
      9.073503  2.652522  4.913605            0           0           0  
      6.371693  2.665576  4.858272            0           0           0  
     11.658911  4.174860  2.814827            0           0           0  
      2.440982  1.892366  2.832794            0           0           0  
     11.649530  5.686214  0.885461            0           0           0  
      6.447433  5.719494  0.925972            0           0           0  
      7.829267  6.506514  2.836212            0           0           0  
      6.419224  4.130068  2.782896            0           0           0  
     10.382946  3.472566  7.044182            0           0           0  
     10.344097  3.450125  0.868038            0           0           0  
     10.370626  0.484098  4.871515            0           0           0  
      9.040790  7.290173  4.936995            0           0           0  
      6.462653  7.295032  4.940739            0           0           0  
      5.042471  0.276335  4.884059            0           0           0  
      9.000278  6.580554 10.592619     0.155882    0.059601    0.985976  
 
   2 f  =   23.545642 THz   147.941632 2PiTHz  785.398055 cm-1    97.376983 meV
             X         Y         Z           dx          dy          dz
     12.952153  8.038472  6.985257            0           0           0  
      5.109669  8.073026  6.944691            0           0           0  
      4.965725  3.493155  7.028333            0           0           0  
     14.321387  8.802119  9.333444            0           0           0  
      3.736728  4.232195  9.416647            0           0           0  
      6.394467  8.794997  9.263818            0           0           0  
     11.677379  4.193942  9.403064            0           0           0  
      9.030742  8.792745  9.211963            0           0           0  
     10.357097  1.929721  9.259548            0           0           0  
      2.446711  1.930698  9.298119            0           0           0  
     11.680991  8.790307  9.319109            0           0           0  
     12.987968  6.504454  9.392896            0           0           0  
      5.067793  1.914541  9.352166            0           0           0  
      7.711572  6.497101  9.438964            0           0           0  
      9.053154  4.191983  9.273044            0           0           0  
      5.070811  6.506893  9.381616            0           0           0  
      7.712818  1.924163  9.296889            0           0           0  
      7.776601  3.437510  6.976651            0           0           0  
      6.306557  1.144028  6.927420            0           0           0  
      6.428579  1.129740  0.878720            0           0           0  
      3.705484  4.208436  2.816869            0           0           0  
      1.182191  1.258901  6.906585            0           0           0  
      1.135691  1.190800  0.725566            0           0           0  
      6.436066  8.760995  2.900314            0           0           0  
      6.384646  4.204166  9.385937            0           0           0  
      7.681351  4.990728  4.814740            0           0           0  
     10.363672  6.494034  9.446225            0           0           0  
     14.264242  7.225928  4.862987            0           0           0  
     11.660501  5.704463  7.038352            0           0           0  
      6.438605  5.786359  7.033093            0           0           0  
      3.621194  2.565893  4.960228            0           0           0  
     10.360912  5.024302  4.856517            0           0           0  
      3.758508  5.772580  7.168147            0           0           0  
     12.969068  7.879772  0.925674            0           0           0  
      5.163396  7.917194  0.830298            0           0           0  
      3.807011  5.745024  0.813805            0           0           0  
      7.798522  2.032451  2.832513            0           0           0  
      9.077547  8.733730  2.857427            0           0           0  
      2.403385  3.518168  7.145782            0           0           0  
      2.344093  3.490514  0.825101            0           0           0  
     10.348141  1.969830  2.822490            0           0           0  
     12.960353  4.985870  4.925592            0           0           0  
      3.748375  1.069206  7.068011            0           0           0  
      9.037732  5.772967  7.113352            0           0           0  
      3.748243  1.091821  0.867003            0           0           0  
      9.091210  5.718673  0.960427            0           0           0  
      5.124479  3.470454  0.855627            0           0           0  
     11.620923  8.687580  2.905895            0           0           0  
     11.653130  7.264496  4.842290            0           0           0  
     12.867560  6.452796  2.833790            0           0           0  
      9.042010  4.207796  2.796278            0           0           0  
      7.771558  8.019820  6.984804            0           0           0  
      7.813155  7.939223  0.886525            0           0           0  
     10.391439  6.535663  2.821980            0           0           0  
      2.513474  0.258257  5.000827            0           0           0  
      7.742638  3.484538  0.761574            0           0           0  
      5.078354  1.877603  2.917008            0           0           0  
      5.160365  6.447147  2.899226            0           0           0  
      7.708921  0.459858  4.847993            0           0           0  
      9.061090  1.189787  6.980568            0           0           0  
     10.296544  7.987191  6.973472            0           0           0  
      9.061625  1.125919  0.759762            0           0           0  
     10.363480  7.960808  0.789721            0           0           0  
      5.054361  4.964219  4.931752            0           0           0  
     11.614672  2.713590  4.868430            0           0           0  
     14.295983  8.814693  2.837485            0           0           0  
      9.073503  2.652522  4.913605            0           0           0  
      6.371693  2.665576  4.858272            0           0           0  
     11.658911  4.174860  2.814827            0           0           0  
      2.440982  1.892366  2.832794            0           0           0  
     11.649530  5.686214  0.885461            0           0           0  
      6.447433  5.719494  0.925972            0           0           0  
      7.829267  6.506514  2.836212            0           0           0  
      6.419224  4.130068  2.782896            0           0           0  
     10.382946  3.472566  7.044182            0           0           0  
     10.344097  3.450125  0.868038            0           0           0  
     10.370626  0.484098  4.871515            0           0           0  
      9.040790  7.290173  4.936995            0           0           0  
      6.462653  7.295032  4.940739            0           0           0  
      5.042471  0.276335  4.884059            0           0           0  
      9.000278  6.580554 10.592619     0.987517    0.013441   -0.156938  
 
   3 f  =   10.384730 THz    65.249183 2PiTHz  346.397295 cm-1    42.947806 meV
             X         Y         Z           dx          dy          dz
     12.952153  8.038472  6.985257            0           0           0  
      5.109669  8.073026  6.944691            0           0           0  
      4.965725  3.493155  7.028333            0           0           0  
     14.321387  8.802119  9.333444            0           0           0  
      3.736728  4.232195  9.416647            0           0           0  
      6.394467  8.794997  9.263818            0           0           0  
     11.677379  4.193942  9.403064            0           0           0  
      9.030742  8.792745  9.211963            0           0           0  
     10.357097  1.929721  9.259548            0           0           0  
      2.446711  1.930698  9.298119            0           0           0  
     11.680991  8.790307  9.319109            0           0           0  
     12.987968  6.504454  9.392896            0           0           0  
      5.067793  1.914541  9.352166            0           0           0  
      7.711572  6.497101  9.438964            0           0           0  
      9.053154  4.191983  9.273044            0           0           0  
      5.070811  6.506893  9.381616            0           0           0  
      7.712818  1.924163  9.296889            0           0           0  
      7.776601  3.437510  6.976651            0           0           0  
      6.306557  1.144028  6.927420            0           0           0  
      6.428579  1.129740  0.878720            0           0           0  
      3.705484  4.208436  2.816869            0           0           0  
      1.182191  1.258901  6.906585            0           0           0  
      1.135691  1.190800  0.725566            0           0           0  
      6.436066  8.760995  2.900314            0           0           0  
      6.384646  4.204166  9.385937            0           0           0  
      7.681351  4.990728  4.814740            0           0           0  
     10.363672  6.494034  9.446225            0           0           0  
     14.264242  7.225928  4.862987            0           0           0  
     11.660501  5.704463  7.038352            0           0           0  
      6.438605  5.786359  7.033093            0           0           0  
      3.621194  2.565893  4.960228            0           0           0  
     10.360912  5.024302  4.856517            0           0           0  
      3.758508  5.772580  7.168147            0           0           0  
     12.969068  7.879772  0.925674            0           0           0  
      5.163396  7.917194  0.830298            0           0           0  
      3.807011  5.745024  0.813805            0           0           0  
      7.798522  2.032451  2.832513            0           0           0  
      9.077547  8.733730  2.857427            0           0           0  
      2.403385  3.518168  7.145782            0           0           0  
      2.344093  3.490514  0.825101            0           0           0  
     10.348141  1.969830  2.822490            0           0           0  
     12.960353  4.985870  4.925592            0           0           0  
      3.748375  1.069206  7.068011            0           0           0  
      9.037732  5.772967  7.113352            0           0           0  
      3.748243  1.091821  0.867003            0           0           0  
      9.091210  5.718673  0.960427            0           0           0  
      5.124479  3.470454  0.855627            0           0           0  
     11.620923  8.687580  2.905895            0           0           0  
     11.653130  7.264496  4.842290            0           0           0  
     12.867560  6.452796  2.833790            0           0           0  
      9.042010  4.207796  2.796278            0           0           0  
      7.771558  8.019820  6.984804            0           0           0  
      7.813155  7.939223  0.886525            0           0           0  
     10.391439  6.535663  2.821980            0           0           0  
      2.513474  0.258257  5.000827            0           0           0  
      7.742638  3.484538  0.761574            0           0           0  
      5.078354  1.877603  2.917008            0           0           0  
      5.160365  6.447147  2.899226            0           0           0  
      7.708921  0.459858  4.847993            0           0           0  
      9.061090  1.189787  6.980568            0           0           0  
     10.296544  7.987191  6.973472            0           0           0  
      9.061625  1.125919  0.759762            0           0           0  
     10.363480  7.960808  0.789721            0           0           0  
      5.054361  4.964219  4.931752            0           0           0  
     11.614672  2.713590  4.868430            0           0           0  
     14.295983  8.814693  2.837485            0           0           0  
      9.073503  2.652522  4.913605            0           0           0  
      6.371693  2.665576  4.858272            0           0           0  
     11.658911  4.174860  2.814827            0           0           0  
      2.440982  1.892366  2.832794            0           0           0  
     11.649530  5.686214  0.885461            0           0           0  
      6.447433  5.719494  0.925972            0           0           0  
      7.829267  6.506514  2.836212            0           0           0  
      6.419224  4.130068  2.782896            0           0           0  
     10.382946  3.472566  7.044182            0           0           0  
     10.344097  3.450125  0.868038            0           0           0  
     10.370626  0.484098  4.871515            0           0           0  
      9.040790  7.290173  4.936995            0           0           0  
      6.462653  7.295032  4.940739            0           0           0  
      5.042471  0.276335  4.884059            0           0           0  
      9.000278  6.580554 10.592619     0.022606   -0.998132    0.056762  
 
 Finite differences POTIM=  1.500000000000000E-002
  LATTYP: Found a hexagonal cell.
 ALAT       =    10.5600004196
 C/A-ratio  =     2.0833332505
  
  Lattice vectors:
  
 A1 = (   5.2800002098,  -9.1452286274,   0.0000000000)
 A2 = ( -10.5600004196,   0.0000000000,   0.0000000000)
 A3 = (   0.0000000000,   0.0000000000, -22.0000000000)


Analysis of symmetry for initial positions (statically):
=====================================================================
 Subroutine PRICEL returns:
 Original cell was already a primitive cell.
 

 Routine SETGRP: Setting up the symmetry group for a 
 hexagonal supercell.


 Subroutine GETGRP returns: Found  1 space group operations
 (whereof  1 operations were pure point group operations)
 out of a pool of 24 trial point group operations.


The static configuration has the point symmetry C_1 .


Analysis of symmetry for dynamics (positions and initial velocities):
=====================================================================
 Subroutine PRICEL returns:
 Original cell was already a primitive cell.
 

 Routine SETGRP: Setting up the symmetry group for a 
 hexagonal supercell.


 Subroutine GETGRP returns: Found  1 space group operations
 (whereof  1 operations were pure point group operations)
 out of a pool of 24 trial point group operations.


The dynamic configuration has the point symmetry C_1 .


Analysis of constrained symmetry for selective dynamics:
=====================================================================
 Subroutine PRICEL returns:
 Original cell was already a primitive cell.
 

 Routine SETGRP: Setting up the symmetry group for a 
 hexagonal supercell.


 Subroutine GETGRP returns: Found  1 space group operations
 (whereof  1 operations were pure point group operations)
 out of a pool of 24 trial point group operations.


The constrained configuration has the point symmetry C_1 .


Analysis of structural, dynamic, and magnetic symmetry:
=====================================================================
 Subroutine PRICEL returns:
 Original cell was already a primitive cell.
 

 Routine SETGRP: Setting up the symmetry group for a 
 hexagonal supercell.


 Subroutine GETGRP returns: Found  1 space group operations
 (whereof  1 operations were pure point group operations)
 out of a pool of 24 trial point group operations.


The magnetic configuration has the point symmetry C_1 .


 Subroutine INISYM returns: Found  1 space group operations
 (whereof  1 operations are pure point group operations),
 and found     1 'primitive' translations

 
 KPOINTS: mesh auto                               

Automatic generation of k-mesh.
Space group operators:
 irot       det(A)        alpha          n_x          n_y          n_z        tau_x        tau_y        tau_z
    1     1.000000     0.000001     1.000000     0.000000     0.000000     0.000000     0.000000     0.000000
 
 Subroutine IBZKPT returns following result:
 ===========================================
 
 Found      4 irreducible k-points:
 
 Following reciprocal coordinates:
            Coordinates               Weight
  0.000000  0.000000  0.000000      1.000000
  0.500000  0.000000  0.000000      1.000000
  0.000000  0.500000  0.000000      1.000000
  0.500000  0.500000  0.000000      1.000000
 
 Following cartesian coordinates:
            Coordinates               Weight
  0.000000  0.000000  0.000000      1.000000
  0.047348 -0.027337  0.000000      1.000000
  0.000000  0.054673  0.000000      1.000000
  0.047348  0.027337  0.000000      1.000000
 
 TETIRR: Found     12 inequivalent tetrahedra from       24
     LOOP+:  cpu time  696.0159: real time  698.6403
    4ORBIT:  cpu time    0.0000: real time    0.0000
 BZINTS: Fermi energy:  2.059798;778.000000 electrons
         Band energy:-677.615080;  BLOECHL correction: -0.245835

 total amount of memory used by VASP MPI-rank0   369624. kBytes
=======================================================================

   base      :      30000. kBytes
   nonlr-proj:      98397. kBytes
   fftplans  :      12162. kBytes
   grid      :     120476. kBytes
   one-center:       2519. kBytes
   wavefun   :     106070. kBytes
 
  
  
 General timing and accounting informations for this job:
 ========================================================
  
                  Total CPU time used (sec):     7987.577
                            User time (sec):     7959.542
                          System time (sec):       28.035
                         Elapsed time (sec):     8022.066
  
                   Maximum memory used (kb):      695780.
                   Average memory used (kb):           0.
  
                          Minor page faults:      3283431
                          Major page faults:          300
                 Voluntary context switches:         7828
