 vasp.5.4.4.18Apr17-6-g9f103f2a35 (build Oct 25 2019 11:13:22) complex          
  
 executed on             LinuxIFC date 2022.02.05  08:59:28
 running on   48 total cores
 distrk:  each k-point on   48 cores,    1 groups
 distr:  one band on NCORES_PER_BAND=   1 cores,   48 groups


--------------------------------------------------------------------------------------------------------


 INCAR:
 POTCAR:    PAW_PBE Pt 04Feb2005                  
 POTCAR:    PAW_PBE Fe 06Sep2000                  
 POTCAR:    PAW_PBE Co 02Aug2007                  
 POTCAR:    PAW_PBE Cu 22Jun2005                  
 POTCAR:    PAW_PBE Ni 02Aug2007                  
 POTCAR:    PAW_PBE H 15Jun2001                   

 ----------------------------------------------------------------------------- 
|                                                                             |
|           W    W    AA    RRRRR   N    N  II  N    N   GGGG   !!!           |
|           W    W   A  A   R    R  NN   N  II  NN   N  G    G  !!!           |
|           W    W  A    A  R    R  N N  N  II  N N  N  G       !!!           |
|           W WW W  AAAAAA  RRRRR   N  N N  II  N  N N  G  GGG   !            |
|           WW  WW  A    A  R   R   N   NN  II  N   NN  G    G                |
|           W    W  A    A  R    R  N    N  II  N    N   GGGG   !!!           |
|                                                                             |
|      For optimal performance we recommend to set                            |
|        NCORE= 4 - approx SQRT( number of cores)                             |
|      NCORE specifies how many cores store one orbital (NPAR=cpu/NCORE).     |
|      This setting can  greatly improve the performance of VASP for DFT.     |
|      The default,   NCORE=1            might be grossly inefficient         |
|      on modern multi-core architectures or massively parallel machines.     |
|      Do your own testing !!!!                                               |
|      Unfortunately you need to use the default for GW and RPA calculations. |
|      (for HF NCORE is supported but not extensively tested yet)             |
|                                                                             |
 ----------------------------------------------------------------------------- 

 POTCAR:    PAW_PBE Pt 04Feb2005                  
   VRHFIN =Pt: s1d9                                                             
   LEXCH  = PE                                                                  
   EATOM  =   729.1176 eV,   53.5886 Ry                                         
                                                                                
   TITEL  = PAW_PBE Pt 04Feb2005                                                
   LULTRA =        F    use ultrasoft PP ?                                      
   IUNSCR =        1    unscreen: 0-lin 1-nonlin 2-no                           
   RPACOR =    2.330    partial core radius                                     
   POMASS =  195.080; ZVAL   =   10.000    mass and valenz                      
   RCORE  =    2.600    outmost cutoff radius                                   
   RWIGS  =    2.750; RWIGS  =    1.455    wigner-seitz radius (au A)           
   ENMAX  =  230.283; ENMIN  =  172.712 eV                                      
   ICORE  =        3    local potential                                         
   LCOR   =        T    correct aug charges                                     
   LPAW   =        T    paw PP                                                  
   EAUG   =  358.966                                                            
   DEXC   =    0.000                                                            
   RMAX   =    2.658    core radius for proj-oper                               
   RAUG   =    1.300    factor for augmentation sphere                          
   RDEP   =    2.761    radius for radial grids                                 
   RDEPT  =    2.203    core radius for aug-charge                              
                                                                                
   Atomic configuration                                                         
   16 entries                                                                   
     n  l   j            E        occ.                                          
     1  0  0.50    -78401.1885   2.0000                                         
     2  0  0.50    -13770.7750   2.0000                                         
     2  1  1.50    -11931.0468   6.0000                                         
     3  0  0.50     -3234.7234   2.0000                                         
     3  1  1.50     -2699.2216   6.0000                                         
     3  2  2.50     -2119.5714  10.0000                                         
     4  0  0.50      -695.1528   2.0000                                         
     4  1  1.50      -519.6034   6.0000                                         
     4  2  2.50      -306.6786  10.0000                                         
     4  3  3.50       -70.1041  14.0000                                         
     5  0  0.50      -101.7747   2.0000                                         
     5  1  1.50       -55.9873   6.0000                                         
     5  2  2.50        -6.1423   9.0000                                         
     6  0  0.50        -5.6573   1.0000                                         
     6  1  1.50        -6.8029   0.0000                                         
     5  3  2.50        -1.3606   0.0000                                         
   Description                                                                  
     l       E           TYP  RCUT    TYP  RCUT                                 
     2     -6.1423404     23  2.500                                             
     2     -7.5029230     23  2.500                                             
     0     -5.6573207     23  2.500                                             
     0      0.7416693     23  2.500                                             
     1     -2.7211652     23  2.600                                             
     1     20.4087390     23  2.600                                             
     3     -1.3605826     23  2.500                                             
  local pseudopotential read in
  partial core-charges read in
  partial kinetic energy density read in
  atomic valenz-charges read in
  non local Contribution for L=           2  read in
    real space projection operators read in
  non local Contribution for L=           2  read in
    real space projection operators read in
  non local Contribution for L=           0  read in
    real space projection operators read in
  non local Contribution for L=           0  read in
    real space projection operators read in
  non local Contribution for L=           1  read in
    real space projection operators read in
  non local Contribution for L=           1  read in
    real space projection operators read in
    PAW grid and wavefunctions read in
 
   number of l-projection  operators is LMAX  =           6
   number of lm-projection operators is LMMAX =          18
 
 POTCAR:    PAW_PBE Fe 06Sep2000                  
   VRHFIN =Fe:  d7 s1                                                           
   LEXCH  = PE                                                                  
   EATOM  =   594.3153 eV,   43.6809 Ry                                         
                                                                                
   TITEL  = PAW_PBE Fe 06Sep2000                                                
   LULTRA =        F    use ultrasoft PP ?                                      
   IUNSCR =        1    unscreen: 0-lin 1-nonlin 2-no                           
   RPACOR =    2.000    partial core radius                                     
   POMASS =   55.847; ZVAL   =    8.000    mass and valenz                      
   RCORE  =    2.300    outmost cutoff radius                                   
   RWIGS  =    2.460; RWIGS  =    1.302    wigner-seitz radius (au A)           
   ENMAX  =  267.882; ENMIN  =  200.911 eV                                      
   RCLOC  =    1.701    cutoff for local pot                                    
   LCOR   =        T    correct aug charges                                     
   LPAW   =        T    paw PP                                                  
   EAUG   =  511.368                                                            
   DEXC   =    0.000                                                            
   RMAX   =    2.356    core radius for proj-oper                               
   RAUG   =    1.300    factor for augmentation sphere                          
   RDEP   =    2.442    radius for radial grids                                 
   RDEPT  =    1.890    core radius for aug-charge                              
                                                                                
   Atomic configuration                                                         
    9 entries                                                                   
     n  l   j            E        occ.                                          
     1  0  0.50     -6993.8440   2.0000                                         
     2  0  0.50      -814.6047   2.0000                                         
     2  1  1.50      -693.3689   6.0000                                         
     3  0  0.50       -89.4732   2.0000                                         
     3  1  1.50       -55.6373   6.0000                                         
     3  2  2.50        -3.8151   7.0000                                         
     4  0  0.50        -4.2551   1.0000                                         
     4  1  1.50        -3.4015   0.0000                                         
     4  3  2.50        -1.3606   0.0000                                         
   Description                                                                  
     l       E           TYP  RCUT    TYP  RCUT                                 
     2     -3.8151135     23  2.300                                             
     2     -5.1756961     23  2.300                                             
     0     -4.2550963     23  2.300                                             
     0      7.2035603     23  2.300                                             
     1     -2.7211652     23  2.300                                             
     1     18.4316424     23  2.300                                             
  local pseudopotential read in
  partial core-charges read in
  partial kinetic energy density read in
  atomic valenz-charges read in
  non local Contribution for L=           2  read in
    real space projection operators read in
  non local Contribution for L=           2  read in
    real space projection operators read in
  non local Contribution for L=           0  read in
    real space projection operators read in
  non local Contribution for L=           0  read in
    real space projection operators read in
  non local Contribution for L=           1  read in
    real space projection operators read in
  non local Contribution for L=           1  read in
    real space projection operators read in
    PAW grid and wavefunctions read in
 
   number of l-projection  operators is LMAX  =           6
   number of lm-projection operators is LMMAX =          18
 
 POTCAR:    PAW_PBE Co 02Aug2007                  
   VRHFIN =Co: d8 s1                                                            
   LEXCH  = PE                                                                  
   EATOM  =   813.3670 eV,   59.7808 Ry                                         
                                                                                
   TITEL  = PAW_PBE Co 02Aug2007                                                
   LULTRA =        F    use ultrasoft PP ?                                      
   IUNSCR =        1    unscreen: 0-lin 1-nonlin 2-no                           
   RPACOR =    2.000    partial core radius                                     
   POMASS =   58.933; ZVAL   =    9.000    mass and valenz                      
   RCORE  =    2.300    outmost cutoff radius                                   
   RWIGS  =    2.460; RWIGS  =    1.302    wigner-seitz radius (au A)           
   ENMAX  =  267.968; ENMIN  =  200.976 eV                                      
   RCLOC  =    1.203    cutoff for local pot                                    
   LCOR   =        T    correct aug charges                                     
   LPAW   =        T    paw PP                                                  
   EAUG   =  477.818                                                            
   DEXC   =    0.000                                                            
   RMAX   =    2.360    core radius for proj-oper                               
   RAUG   =    1.300    factor for augmentation sphere                          
   RDEP   =    2.393    radius for radial grids                                 
   RDEPT  =    1.864    core radius for aug-charge                              
                                                                                
   Atomic configuration                                                         
    9 entries                                                                   
     n  l   j            E        occ.                                          
     1  0  0.50     -7587.6674   2.0000                                         
     2  0  0.50      -893.6084   2.0000                                         
     2  1  1.50      -764.5805   6.0000                                         
     3  0  0.50       -97.5973   2.0000                                         
     3  1  1.50       -60.9648   6.0000                                         
     3  2  2.50        -4.2382   8.0000                                         
     4  0  0.50        -4.3746   1.0000                                         
     4  1  1.50        -4.0817   0.0000                                         
     4  3  2.50        -1.3606   0.0000                                         
   Description                                                                  
     l       E           TYP  RCUT    TYP  RCUT                                 
     2     -4.2382362     23  2.300                                             
     2     -5.5988188     23  2.300                                             
     0     -4.3745797     23  2.300                                             
     0      5.7660125     23  2.300                                             
     1     -2.7211652     23  2.300                                             
     1     16.9860234     23  2.300                                             
  local pseudopotential read in
  partial core-charges read in
  partial kinetic energy density read in
  atomic valenz-charges read in
  non local Contribution for L=           2  read in
    real space projection operators read in
  non local Contribution for L=           2  read in
    real space projection operators read in
  non local Contribution for L=           0  read in
    real space projection operators read in
  non local Contribution for L=           0  read in
    real space projection operators read in
  non local Contribution for L=           1  read in
    real space projection operators read in
  non local Contribution for L=           1  read in
    real space projection operators read in
    PAW grid and wavefunctions read in
 
   number of l-projection  operators is LMAX  =           6
   number of lm-projection operators is LMMAX =          18
 
 POTCAR:    PAW_PBE Cu 22Jun2005                  
   VRHFIN =Cu: d10 p1                                                           
   LEXCH  = PE                                                                  
   EATOM  =  1390.9808 eV,  102.2342 Ry                                         
                                                                                
   TITEL  = PAW_PBE Cu 22Jun2005                                                
   LULTRA =        F    use ultrasoft PP ?                                      
   IUNSCR =        1    unscreen: 0-lin 1-nonlin 2-no                           
   RPACOR =    2.000    partial core radius                                     
   POMASS =   63.546; ZVAL   =   11.000    mass and valenz                      
   RCORE  =    2.300    outmost cutoff radius                                   
   RWIGS  =    2.200; RWIGS  =    1.164    wigner-seitz radius (au A)           
   ENMAX  =  295.446; ENMIN  =  221.585 eV                                      
   ICORE  =        3    local potential                                         
   LCOR   =        T    correct aug charges                                     
   LPAW   =        T    paw PP                                                  
   EAUG   =  586.980                                                            
   DEXC   =    0.000                                                            
   RMAX   =    2.344    core radius for proj-oper                               
   RAUG   =    1.300    factor for augmentation sphere                          
   RDEP   =    2.302    radius for radial grids                                 
   RDEPT  =    1.771    core radius for aug-charge                              
                                                                                
   Atomic configuration                                                         
    9 entries                                                                   
     n  l   j            E        occ.                                          
     1  0  0.50     -8850.2468   2.0000                                         
     2  0  0.50     -1062.3498   2.0000                                         
     2  1  1.50      -916.8226   6.0000                                         
     3  0  0.50      -114.6929   2.0000                                         
     3  1  1.50       -72.1325   6.0000                                         
     3  2  2.50        -5.0394  10.0000                                         
     4  0  0.50        -4.6097   1.0000                                         
     4  1  0.50        -4.0817   0.0000                                         
     4  3  2.50        -1.3606   0.0000                                         
   Description                                                                  
     l       E           TYP  RCUT    TYP  RCUT                                 
     2     -5.0393973     23  2.200                                             
     2     10.8846608     23  2.200                                             
     0     -4.6097109     23  2.200                                             
     0      8.2520465     23  2.200                                             
     1     -2.7211652     23  2.200                                             
     1     21.7055443     23  2.200                                             
     3      2.7211652     23  2.300                                             
  local pseudopotential read in
  partial core-charges read in
  partial kinetic energy density read in
  atomic valenz-charges read in
  non local Contribution for L=           2  read in
    real space projection operators read in
  non local Contribution for L=           2  read in
    real space projection operators read in
  non local Contribution for L=           0  read in
    real space projection operators read in
  non local Contribution for L=           0  read in
    real space projection operators read in
  non local Contribution for L=           1  read in
    real space projection operators read in
  non local Contribution for L=           1  read in
    real space projection operators read in
    PAW grid and wavefunctions read in
 
   number of l-projection  operators is LMAX  =           6
   number of lm-projection operators is LMMAX =          18
 
 POTCAR:    PAW_PBE Ni 02Aug2007                  
   VRHFIN =Ni:                                                                  
   LEXCH  = PE                                                                  
   EATOM  =  1077.6739 eV,   79.2068 Ry                                         
                                                                                
   TITEL  = PAW_PBE Ni 02Aug2007                                                
   LULTRA =        F    use ultrasoft PP ?                                      
   IUNSCR =        1    unscreen: 0-lin 1-nonlin 2-no                           
   RPACOR =    2.000    partial core radius                                     
   POMASS =   58.690; ZVAL   =   10.000    mass and valenz                      
   RCORE  =    2.300    outmost cutoff radius                                   
   RWIGS  =    2.430; RWIGS  =    1.286    wigner-seitz radius (au A)           
   ENMAX  =  269.532; ENMIN  =  202.149 eV                                      
   RCLOC  =    1.201    cutoff for local pot                                    
   LCOR   =        T    correct aug charges                                     
   LPAW   =        T    paw PP                                                  
   EAUG   =  544.565                                                            
   DEXC   =    0.000                                                            
   RMAX   =    2.357    core radius for proj-oper                               
   RAUG   =    1.300    factor for augmentation sphere                          
   RDEP   =    2.390    radius for radial grids                                 
   RDEPT  =    1.838    core radius for aug-charge                              
                                                                                
   Atomic configuration                                                         
    9 entries                                                                   
     n  l   j            E        occ.                                          
     1  0  0.50     -8206.4253   2.0000                                         
     2  0  0.50      -976.1748   2.0000                                         
     2  1  1.50      -839.0571   6.0000                                         
     3  0  0.50      -105.9991   2.0000                                         
     3  1  1.50       -66.4603   6.0000                                         
     3  2  2.50        -4.6458   9.0000                                         
     4  0  0.50        -4.4926   1.0000                                         
     4  1  1.50        -4.0817   0.0000                                         
     4  3  2.50        -1.3606   0.0000                                         
   Description                                                                  
     l       E           TYP  RCUT    TYP  RCUT                                 
     2     -4.6457903     23  2.300                                             
     2     -6.0063729     23  2.300                                             
     0     -4.4925590     23  2.300                                             
     0      5.0102601     23  2.300                                             
     1     -2.7211652     23  2.300                                             
     1     16.5183231     23  2.300                                             
  local pseudopotential read in
  partial core-charges read in
  partial kinetic energy density read in
  atomic valenz-charges read in
  non local Contribution for L=           2  read in
    real space projection operators read in
  non local Contribution for L=           2  read in
    real space projection operators read in
  non local Contribution for L=           0  read in
    real space projection operators read in
  non local Contribution for L=           0  read in
    real space projection operators read in
  non local Contribution for L=           1  read in
    real space projection operators read in
  non local Contribution for L=           1  read in
    real space projection operators read in
    PAW grid and wavefunctions read in
 
   number of l-projection  operators is LMAX  =           6
   number of lm-projection operators is LMMAX =          18
 
 POTCAR:    PAW_PBE H 15Jun2001                   
   VRHFIN =H: ultrasoft test                                                    
   LEXCH  = PE                                                                  
   EATOM  =    12.4884 eV,    0.9179 Ry                                         
                                                                                
   TITEL  = PAW_PBE H 15Jun2001                                                 
   LULTRA =        F    use ultrasoft PP ?                                      
   IUNSCR =        0    unscreen: 0-lin 1-nonlin 2-no                           
   RPACOR =    0.000    partial core radius                                     
   POMASS =    1.000; ZVAL   =    1.000    mass and valenz                      
   RCORE  =    1.100    outmost cutoff radius                                   
   RWIGS  =    0.700; RWIGS  =    0.370    wigner-seitz radius (au A)           
   ENMAX  =  250.000; ENMIN  =  200.000 eV                                      
   RCLOC  =    0.701    cutoff for local pot                                    
   LCOR   =        T    correct aug charges                                     
   LPAW   =        T    paw PP                                                  
   EAUG   =  400.000                                                            
   RMAX   =    1.123    core radius for proj-oper                               
   RAUG   =    1.200    factor for augmentation sphere                          
   RDEP   =    1.112    radius for radial grids                                 
   RDEPT  =    0.926    core radius for aug-charge                              
                                                                                
   Atomic configuration                                                         
    2 entries                                                                   
     n  l   j            E        occ.                                          
     1  0  0.50        -6.4927   1.0000                                         
     2  1  0.50        -3.4015   0.0000                                         
   Description                                                                  
     l       E           TYP  RCUT    TYP  RCUT                                 
     0     -6.4927494     23  1.100                                             
     0      6.8029130     23  1.100                                             
     1     -4.0817478     23  1.100                                             
  local pseudopotential read in
  atomic valenz-charges read in
  non local Contribution for L=           0  read in
    real space projection operators read in
  non local Contribution for L=           0  read in
    real space projection operators read in
  non local Contribution for L=           1  read in
    real space projection operators read in
    PAW grid and wavefunctions read in
 
   number of l-projection  operators is LMAX  =           3
   number of lm-projection operators is LMMAX =           5
 
 Optimization of the real space projectors (new method)

 maximal supplied QI-value         = 14.36
 optimisation between [QCUT,QGAM] = [ 11.92, 23.98] = [ 39.79,161.09] Ry 
 Optimized for a Real-space Cutoff    1.49 Angstroem

   l    n(q)    QCUT    max X(q) W(low)/X(q) W(high)/X(q)  e(spline) 
   2     10    11.920    66.195    0.79E-04    0.18E-03    0.24E-06
   2     10    11.920    64.643    0.81E-04    0.19E-03    0.24E-06
   0     11    11.920    95.520    0.28E-04    0.54E-04    0.18E-06
   0     11    11.920    63.403    0.27E-04    0.52E-04    0.17E-06
   1     10    11.920    19.961    0.18E-04    0.11E-03    0.23E-06
   1     10    11.920    13.289    0.25E-04    0.87E-04    0.19E-06
 Optimization of the real space projectors (new method)

 maximal supplied QI-value         = 16.25
 optimisation between [QCUT,QGAM] = [ 11.86, 23.89] = [ 39.41,159.82] Ry 
 Optimized for a Real-space Cutoff    1.49 Angstroem

   l    n(q)    QCUT    max X(q) W(low)/X(q) W(high)/X(q)  e(spline) 
   2     10    11.864    80.901    0.13E-03    0.23E-03    0.37E-06
   2     10    11.864    75.754    0.13E-03    0.23E-03    0.38E-06
   0     11    11.864    58.752    0.44E-04    0.11E-04    0.20E-06
   0     11    11.864    30.679    0.36E-04    0.10E-04    0.18E-06
   1     10    11.864    17.977    0.31E-04    0.45E-04    0.10E-06
   1     10    11.864    13.559    0.25E-04    0.37E-04    0.89E-07
 Optimization of the real space projectors (new method)

 maximal supplied QI-value         = 16.25
 optimisation between [QCUT,QGAM] = [ 11.86, 23.89] = [ 39.41,159.82] Ry 
 Optimized for a Real-space Cutoff    1.33 Angstroem

   l    n(q)    QCUT    max X(q) W(low)/X(q) W(high)/X(q)  e(spline) 
   2      9    11.864    65.824    0.22E-03    0.53E-03    0.26E-06
   2      9    11.864    61.429    0.22E-03    0.53E-03    0.26E-06
   0      9    11.864    56.174    0.21E-03    0.32E-04    0.15E-06
   0      9    11.864    31.263    0.19E-03    0.30E-04    0.14E-06
   1      9    11.864    19.828    0.63E-04    0.30E-03    0.16E-06
   1      9    11.864    15.139    0.49E-04    0.25E-03    0.13E-06
 Optimization of the real space projectors (new method)

 maximal supplied QI-value         = 16.25
 optimisation between [QCUT,QGAM] = [ 11.86, 23.89] = [ 39.41,159.82] Ry 
 Optimized for a Real-space Cutoff    1.49 Angstroem

   l    n(q)    QCUT    max X(q) W(low)/X(q) W(high)/X(q)  e(spline) 
   2     10    11.864     4.610    0.10E-03    0.20E-03    0.29E-06
   2     10    11.864     8.522    0.17E-03    0.33E-03    0.50E-06
   0     11    11.864    51.609    0.52E-04    0.55E-04    0.33E-06
   0     11    11.864    27.747    0.46E-04    0.52E-04    0.31E-06
   1     10    11.864    20.408    0.54E-04    0.25E-04    0.21E-06
   1     10    11.864    13.425    0.48E-04    0.22E-04    0.18E-06
 Optimization of the real space projectors (new method)

 maximal supplied QI-value         = 16.25
 optimisation between [QCUT,QGAM] = [ 11.86, 23.89] = [ 39.41,159.82] Ry 
 Optimized for a Real-space Cutoff    1.33 Angstroem

   l    n(q)    QCUT    max X(q) W(low)/X(q) W(high)/X(q)  e(spline) 
   2      9    11.864    60.317    0.21E-03    0.51E-03    0.25E-06
   2      9    11.864    55.921    0.21E-03    0.51E-03    0.26E-06
   0      9    11.864    51.690    0.22E-03    0.30E-04    0.17E-06
   0      9    11.864    30.015    0.20E-03    0.28E-04    0.15E-06
   1      9    11.864    18.849    0.76E-04    0.33E-03    0.17E-06
   1      9    11.864    14.624    0.60E-04    0.28E-03    0.15E-06
 Optimization of the real space projectors (new method)

 maximal supplied QI-value         = 34.20
 optimisation between [QCUT,QGAM] = [ 11.97, 23.94] = [ 40.13,160.53] Ry 
 Optimized for a Real-space Cutoff    1.18 Angstroem

   l    n(q)    QCUT    max X(q) W(low)/X(q) W(high)/X(q)  e(spline) 
   0      8    11.971    19.460    0.15E-03    0.31E-03    0.25E-06
   0      8    11.971    12.209    0.13E-03    0.29E-03    0.25E-06
   1      8    11.971     4.655    0.22E-03    0.24E-03    0.21E-06
  PAW_PBE Pt 04Feb2005                  :
 energy of atom  1       EATOM= -729.1176
 kinetic energy error for atom=    0.0021 (will be added to EATOM!!)
  PAW_PBE Fe 06Sep2000                  :
 energy of atom  2       EATOM= -594.3153
 kinetic energy error for atom=    0.0024 (will be added to EATOM!!)
  PAW_PBE Co 02Aug2007                  :
 energy of atom  3       EATOM= -813.3670
 kinetic energy error for atom=    0.0026 (will be added to EATOM!!)
  PAW_PBE Cu 22Jun2005                  :
 energy of atom  4       EATOM=-1390.9808
 kinetic energy error for atom=    0.0036 (will be added to EATOM!!)
  PAW_PBE Ni 02Aug2007                  :
 energy of atom  5       EATOM=-1077.6739
 kinetic energy error for atom=    0.0027 (will be added to EATOM!!)
  PAW_PBE H 15Jun2001                   :
 energy of atom  6       EATOM=  -12.4884
 kinetic energy error for atom=    0.0008 (will be added to EATOM!!)
 
 
 POSCAR: 10.66                                   
  positions in cartesian coordinates
  No initial velocities read in
 exchange correlation table for  LEXCH =        8
   RHO(1)=    0.500       N(1)  =     2000
   RHO(2)=  100.500       N(2)  =     4000
 


--------------------------------------------------------------------------------------------------------


 ion  position               nearest neighbor table
   1  0.788  0.878  0.317-  49 2.62  28 2.63  59 2.66  19 2.66  33 2.67  61 2.68  29 2.69  60 2.71
                             2 2.75  11 2.76   4 2.80  12 2.84
   2  0.043  0.882  0.315-  79 2.54  77 2.59  60 2.65  28 2.65  30 2.67  52 2.68  33 2.71  22 2.71
                             1 2.75   6 2.76   4 2.83  16 2.87
   3  0.279  0.381  0.319-  64 2.57  39 2.58  33 2.61  31 2.64  68 2.72  19 2.73  30 2.74  43 2.74
                             5 2.78  13 2.79  25 2.83  18 2.84
   4  0.874  0.963  0.422-   9 2.64  17 2.65  12 2.66   6 2.66  16 2.67  11 2.68  60 2.78   1 2.80
                             2 2.83
   5  0.125  0.461  0.428-  81 1.83  25 2.66  13 2.67  10 2.68  16 2.68  12 2.71   7 2.71  39 2.76
                            33 2.76   3 2.78
   6  0.124  0.962  0.420-  10 2.65   8 2.65  16 2.66   4 2.66   9 2.66  14 2.67   2 2.76  52 2.77
                            22 2.85
   7  0.872  0.458  0.426-  81 1.89  15 2.62   9 2.63  10 2.68  39 2.71  27 2.71   5 2.71  12 2.74
                            75 2.75  29 2.81
   8  0.374  0.960  0.420-  43 2.60  27 2.63  14 2.64  10 2.65   6 2.65  13 2.66  11 2.66  52 2.69
                            61 2.73
   9  0.874  0.211  0.419-   7 2.63   4 2.64  17 2.66  15 2.66   6 2.66  75 2.67  10 2.69  60 2.71
                            22 2.81
  10  0.126  0.209  0.421-   6 2.65   8 2.65  13 2.65  39 2.66   5 2.68   7 2.68   9 2.69  43 2.70
                            22 2.76
  11  0.624  0.961  0.422-  12 2.63  13 2.65   8 2.66  17 2.67  27 2.67   4 2.68   1 2.76  19 2.81
                            61 2.82
  12  0.871  0.715  0.427-  81 1.85  11 2.63   4 2.66  16 2.69  27 2.69   5 2.71  33 2.74   7 2.74
                            29 2.84   1 2.84
  13  0.375  0.209  0.423-  11 2.65  10 2.65   8 2.66  17 2.67   5 2.67  25 2.69  43 2.76   3 2.79
                            19 2.81
  14  0.375  0.712  0.422-  27 2.61   8 2.64  15 2.67  16 2.67   6 2.67  25 2.68  44 2.70  52 2.75
                            30 2.77
  15  0.625  0.462  0.421-   7 2.62  27 2.65   9 2.66  14 2.67  25 2.67  17 2.68  44 2.68  75 2.71
                            18 2.75
  16  0.125  0.712  0.424-   6 2.66  33 2.66  25 2.67  14 2.67   4 2.67   5 2.68  12 2.69  30 2.80
                             2 2.87
  17  0.625  0.211  0.421-   4 2.65   9 2.66  11 2.67  25 2.67  13 2.67  15 2.68  18 2.75  60 2.77
                            19 2.84
  18  0.548  0.375  0.316-  67 2.56  60 2.62  75 2.64  68 2.64  26 2.66  44 2.67  30 2.73  19 2.75
                            15 2.75  17 2.75   3 2.84  25 2.87
  19  0.535  0.124  0.315-  80 2.55  68 2.58  43 2.59  59 2.60  61 2.66   1 2.66   3 2.73  18 2.75
                            60 2.78  11 2.81  13 2.81  17 2.84
  20  0.549  0.122  0.042-  37 2.55  57 2.55  48 2.57  62 2.66  63 2.70  34 2.71  45 2.73  47 2.74
                            56 2.74
  21  0.120  0.460  0.128-  40 2.52  36 2.53  47 2.53  42 2.60  64 2.62  69 2.62  70 2.66  50 2.67
                            58 2.71  31 2.71  57 2.74  74 2.75
  22  0.043  0.137  0.313-  65 2.51  55 2.54  77 2.57  43 2.60  39 2.60  75 2.63  60 2.71   2 2.71
                            52 2.75  10 2.76   9 2.81   6 2.85  31 3.39
  23  0.042  0.131  0.034-  70 2.57  40 2.60  41 2.61  45 2.64  62 2.65  76 2.65  24 2.69  35 2.76
                            53 2.81
  24  0.131  0.958  0.132-  79 2.51  77 2.54  35 2.57  53 2.58  55 2.59  70 2.64  38 2.66  58 2.66
                            73 2.67  23 2.69  66 2.73  41 2.75
  25  0.375  0.461  0.425-   5 2.66  16 2.67  17 2.67  15 2.67  14 2.68  13 2.69  30 2.83   3 2.83
                            18 2.87
  26  0.455  0.546  0.219-  73 2.50  74 2.54  51 2.55  79 2.63  30 2.65  64 2.66  18 2.66  68 2.69
                            78 2.69  32 2.70  44 2.74  67 2.75
  27  0.620  0.713  0.422-  14 2.61   8 2.63  15 2.65  11 2.67  44 2.67  12 2.69   7 2.71  61 2.74
                            29 2.78
  28  0.956  0.788  0.221-  58 2.56  50 2.58  66 2.58  42 2.61  49 2.63   1 2.63   2 2.65  64 2.66
                            33 2.71  59 2.74  79 2.81  77 2.82
  29  0.796  0.622  0.319-  39 2.55  42 2.56  75 2.60  32 2.62  33 2.66  44 2.68  49 2.68   1 2.69
                            61 2.71  27 2.78   7 2.81  12 2.84
  30  0.292  0.631  0.317-  79 2.56  64 2.60  52 2.64  44 2.64  26 2.65   2 2.67  33 2.68  18 2.73
                             3 2.74  14 2.77  16 2.80  25 2.83
  31  0.202  0.280  0.226-  70 2.52  55 2.57  43 2.59  65 2.59  57 2.60   3 2.64  39 2.67  21 2.71
                            80 2.72  42 2.73  68 2.79  64 2.83  22 3.39
  32  0.706  0.549  0.221-  54 2.54  69 2.56  51 2.58  49 2.60  29 2.62  42 2.63  78 2.64  65 2.65
                            44 2.68  75 2.68  26 2.70  67 2.72
  33  0.041  0.630  0.325-   3 2.61  39 2.66  29 2.66  16 2.66   1 2.67  30 2.68  64 2.70   2 2.71
                            28 2.71  42 2.72  12 2.74   5 2.76
  34  0.796  0.862  0.044-  50 2.39  66 2.51  48 2.52  36 2.55  71 2.58  63 2.62  20 2.71  62 2.79
                            35 2.80
  35  0.057  0.865  0.039-  58 2.54  72 2.55  36 2.56  24 2.57  66 2.62  53 2.68  23 2.76  62 2.76
                            34 2.80
  36  0.044  0.632  0.039-  21 2.53  34 2.55  35 2.56  58 2.58  50 2.59  47 2.67  72 2.69  71 2.74
                            40 2.76
  37  0.628  0.224  0.129-  51 2.51  67 2.51  56 2.52  74 2.53  20 2.55  68 2.56  41 2.57  59 2.57
                            62 2.59  66 2.69  57 2.76  48 2.95
  38  0.383  0.954  0.131-  53 2.46  45 2.47  80 2.48  78 2.53  73 2.56  63 2.56  48 2.56  55 2.57
                            54 2.58  57 2.65  24 2.66  70 2.70
  39  0.036  0.383  0.324-  29 2.55   3 2.58  22 2.60  75 2.61  42 2.66  33 2.66  10 2.66  31 2.67
                             7 2.71  65 2.75   5 2.76  43 2.82
  40  0.028  0.381  0.039-  69 2.42  21 2.52  71 2.54  76 2.54  70 2.56  23 2.60  36 2.76  45 2.84
                            47 2.85
  41  0.872  0.215  0.129-  76 2.45  65 2.52  77 2.52  67 2.53  37 2.57  62 2.57  69 2.59  23 2.61
                            51 2.61  70 2.68  66 2.68  24 2.75
  42  0.955  0.544  0.224-  50 2.55  29 2.56  69 2.60  21 2.60  28 2.61  32 2.63  49 2.65  65 2.65
                            39 2.66  64 2.68  33 2.72  31 2.73
  43  0.297  0.115  0.321-  55 2.52  52 2.56  61 2.58  19 2.59  31 2.59  22 2.60   8 2.60  80 2.65
                            10 2.70   3 2.74  13 2.76  39 2.82
  44  0.540  0.629  0.321-  61 2.59  52 2.60  78 2.62  30 2.64  18 2.67  27 2.67  75 2.68  15 2.68
                            29 2.68  32 2.68  14 2.70  26 2.74
  45  0.296  0.116  0.041-  38 2.47  70 2.49  57 2.57  53 2.58  23 2.64  63 2.65  20 2.73  47 2.83
                            40 2.84
  46  0.549  0.625  0.045-  51 2.38  73 2.39  54 2.41  71 2.57  53 2.59  63 2.60  76 2.62  56 2.63
                            72 2.66
  47  0.294  0.382  0.040-  74 2.41  21 2.53  57 2.64  72 2.65  56 2.66  36 2.67  20 2.74  45 2.83
                            40 2.85
  48  0.626  0.948  0.133-  49 2.40  54 2.48  80 2.48  34 2.52  59 2.56  63 2.56  38 2.56  20 2.57
                            50 2.58  57 2.68  66 2.72  37 2.95
  49  0.707  0.793  0.220-  48 2.40  50 2.47  54 2.49  80 2.57  32 2.60   1 2.62  28 2.63  61 2.63
                            78 2.63  42 2.65  29 2.68  59 2.73
  50  0.865  0.704  0.130-  34 2.39  71 2.42  49 2.47  54 2.49  42 2.55  28 2.58  48 2.58  69 2.58
                            36 2.59  21 2.67  66 2.81  58 2.90
  51  0.627  0.460  0.128-  46 2.38  76 2.44  56 2.51  37 2.51  26 2.55  32 2.58  41 2.61  67 2.62
                            73 2.63  69 2.64  74 2.65  54 2.72
  52  0.298  0.875  0.318-  55 2.43  79 2.53  78 2.53  61 2.55  43 2.56  44 2.60  30 2.64   2 2.68
                             8 2.69  14 2.75  22 2.75   6 2.77
  53  0.307  0.869  0.042-  73 2.42  38 2.46  63 2.57  24 2.58  45 2.58  46 2.59  72 2.61  35 2.68
                            23 2.81
  54  0.627  0.715  0.129-  46 2.41  71 2.46  63 2.48  48 2.48  49 2.49  50 2.49  32 2.54  38 2.58
                            73 2.58  78 2.61  69 2.70  51 2.72
  55  0.226  0.027  0.227-  52 2.43  78 2.48  79 2.51  43 2.52  80 2.54  22 2.54  38 2.57  31 2.57
                            24 2.59  70 2.72  77 2.76  65 2.91
  56  0.544  0.381  0.036-  74 2.50  51 2.51  37 2.52  76 2.61  46 2.63  72 2.64  47 2.66  62 2.72
                            20 2.74
  57  0.379  0.204  0.133-  68 2.46  80 2.54  20 2.55  45 2.57  31 2.60  47 2.64  38 2.65  74 2.66
                            70 2.66  48 2.68  21 2.74  37 2.76
  58  0.137  0.705  0.133-  72 2.46  64 2.51  35 2.54  28 2.56  79 2.56  36 2.58  74 2.66  24 2.66
                            73 2.70  21 2.71  50 2.90
  59  0.705  0.050  0.220-  66 2.52  48 2.56  37 2.57  19 2.60  68 2.61  67 2.61  60 2.61   1 2.66
                            77 2.69  80 2.70  49 2.73  28 2.74
  60  0.793  0.129  0.316-  67 2.52  77 2.57  59 2.61  18 2.62   2 2.65  75 2.67   1 2.71   9 2.71
                            22 2.71  17 2.77  19 2.78   4 2.78
  61  0.539  0.873  0.317-  78 2.48  80 2.52  52 2.55  43 2.58  44 2.59  49 2.63  19 2.66   1 2.68
                            29 2.71   8 2.73  27 2.74  11 2.82
  62  0.797  0.123  0.036-  66 2.53  41 2.57  37 2.59  23 2.65  20 2.66  76 2.68  56 2.72  35 2.76
                            34 2.79
  63  0.546  0.870  0.037-  54 2.48  38 2.56  48 2.56  53 2.57  46 2.60  34 2.62  71 2.63  45 2.65
                            20 2.70
  64  0.208  0.542  0.224-  58 2.51   3 2.57  30 2.60  21 2.62  28 2.66  26 2.66  68 2.66  74 2.67
                            42 2.68  33 2.70  79 2.77  31 2.83
  65  0.951  0.298  0.222-  69 2.51  22 2.51  41 2.52  67 2.56  77 2.58  31 2.59  70 2.60  75 2.61
                            32 2.65  42 2.65  39 2.75  55 2.91
  66  0.872  0.964  0.130-  34 2.51  59 2.52  62 2.53  77 2.57  28 2.58  35 2.62  41 2.68  37 2.69
                            48 2.72  24 2.73  50 2.81
  67  0.715  0.290  0.224-  37 2.51  60 2.52  41 2.53  77 2.54  65 2.56  18 2.56  59 2.61  51 2.62
                            75 2.63  32 2.72  68 2.74  26 2.75
  68  0.458  0.292  0.221-  57 2.46  74 2.54  37 2.56  19 2.58  59 2.61  18 2.64  64 2.66  26 2.69
                             3 2.72  67 2.74  80 2.77  31 2.79
  69  0.875  0.457  0.129-  40 2.42  71 2.45  76 2.46  65 2.51  32 2.56  50 2.58  41 2.59  42 2.60
                            21 2.62  51 2.64  70 2.68  54 2.70
  70  0.128  0.206  0.129-  45 2.49  31 2.52  40 2.56  23 2.57  65 2.60  24 2.64  21 2.66  57 2.66
                            41 2.68  69 2.68  38 2.70  55 2.72
  71  0.792  0.622  0.041-  50 2.42  69 2.45  54 2.46  40 2.54  46 2.57  34 2.58  76 2.61  63 2.63
                            36 2.74
  72  0.298  0.629  0.044-  74 2.46  58 2.46  73 2.47  35 2.55  53 2.61  56 2.64  47 2.65  46 2.66
                            36 2.69
  73  0.386  0.713  0.130-  46 2.39  53 2.42  72 2.47  26 2.50  78 2.54  38 2.56  54 2.58  79 2.62
                            51 2.63  24 2.67  58 2.70  74 2.80
  74  0.382  0.451  0.127-  47 2.41  72 2.46  56 2.50  37 2.53  68 2.54  26 2.54  51 2.65  57 2.66
                            58 2.66  64 2.67  21 2.75  73 2.80
  75  0.793  0.379  0.320-  29 2.60  39 2.61  65 2.61  67 2.63  22 2.63  18 2.64  60 2.67   9 2.67
                            44 2.68  32 2.68  15 2.71   7 2.75
  76  0.791  0.377  0.041-  51 2.44  41 2.45  69 2.46  40 2.54  56 2.61  71 2.61  46 2.62  23 2.65
                            62 2.68
  77  0.955  0.053  0.221-  41 2.52  67 2.54  24 2.54  22 2.57  66 2.57  60 2.57  65 2.58   2 2.59
                            59 2.69  79 2.75  55 2.76  28 2.82
  78  0.459  0.796  0.225-  55 2.48  61 2.48  80 2.50  52 2.53  38 2.53  73 2.54  79 2.59  54 2.61
                            44 2.62  49 2.63  32 2.64  26 2.69
  79  0.215  0.797  0.225-  55 2.51  24 2.51  52 2.53   2 2.54  30 2.56  58 2.56  78 2.59  73 2.62
                            26 2.63  77 2.75  64 2.77  28 2.81
  80  0.462  0.029  0.222-  38 2.48  48 2.48  78 2.50  61 2.52  55 2.54  57 2.54  19 2.55  49 2.57
                            43 2.65  59 2.70  31 2.72  68 2.77
  81  0.957  0.546  0.472-   5 1.83  12 1.85   7 1.89
 
  LATTYP: Found a hexagonal cell.
 ALAT       =    10.6599998474
 C/A-ratio  =     2.0637898982
  
  Lattice vectors:
  
 A1 = (   5.3299999237,  -9.2318306722,   0.0000000000)
 A2 = ( -10.6599998474,   0.0000000000,   0.0000000000)
 A3 = (   0.0000000000,   0.0000000000, -22.0000000000)


Analysis of symmetry for initial positions (statically):
=====================================================================
 Subroutine PRICEL returns:
 Original cell was already a primitive cell.
 

 Routine SETGRP: Setting up the symmetry group for a 
 hexagonal supercell.


 Subroutine GETGRP returns: Found  1 space group operations
 (whereof  1 operations were pure point group operations)
 out of a pool of 24 trial point group operations.


The static configuration has the point symmetry C_1 .


Analysis of symmetry for dynamics (positions and initial velocities):
=====================================================================
 Subroutine PRICEL returns:
 Original cell was already a primitive cell.
 

 Routine SETGRP: Setting up the symmetry group for a 
 hexagonal supercell.


 Subroutine GETGRP returns: Found  1 space group operations
 (whereof  1 operations were pure point group operations)
 out of a pool of 24 trial point group operations.


The dynamic configuration has the point symmetry C_1 .


Analysis of constrained symmetry for selective dynamics:
=====================================================================
 Subroutine PRICEL returns:
 Original cell was already a primitive cell.
 

 Routine SETGRP: Setting up the symmetry group for a 
 hexagonal supercell.


 Subroutine GETGRP returns: Found  1 space group operations
 (whereof  1 operations were pure point group operations)
 out of a pool of 24 trial point group operations.


The constrained configuration has the point symmetry C_1 .


Analysis of structural, dynamic, and magnetic symmetry:
=====================================================================
 Subroutine PRICEL returns:
 Original cell was already a primitive cell.
 

 Routine SETGRP: Setting up the symmetry group for a 
 hexagonal supercell.


 Subroutine GETGRP returns: Found  1 space group operations
 (whereof  1 operations were pure point group operations)
 out of a pool of 24 trial point group operations.


The magnetic configuration has the point symmetry C_1 .


 Subroutine INISYM returns: Found  1 space group operations
 (whereof  1 operations are pure point group operations),
 and found     1 'primitive' translations

 
 
 KPOINTS: mesh auto                               

Automatic generation of k-mesh.
Space group operators:
 irot       det(A)        alpha          n_x          n_y          n_z        tau_x        tau_y        tau_z
    1     1.000000     0.000000     1.000000     0.000000     0.000000     0.000000     0.000000     0.000000
 
 Subroutine IBZKPT returns following result:
 ===========================================
 
 Found      4 irreducible k-points:
 
 Following reciprocal coordinates:
            Coordinates               Weight
  0.000000  0.000000  0.000000      1.000000
  0.500000 -0.000000  0.000000      1.000000
  0.000000  0.500000  0.000000      1.000000
  0.500000  0.500000  0.000000      1.000000
 
 Following cartesian coordinates:
            Coordinates               Weight
  0.000000  0.000000  0.000000      1.000000
  0.046904 -0.027080  0.000000      1.000000
  0.000000  0.054160  0.000000      1.000000
  0.046904  0.027080  0.000000      1.000000
 
 TETIRR: Found     12 inequivalent tetrahedra from       24
 
 Subroutine IBZKPT_HF returns following result:
 ==============================================
 
 Found      4 k-points in 1st BZ
 the following      4 k-points will be used (e.g. in the exchange kernel)
 Following reciprocal coordinates:   # in IRBZ
  0.000000  0.000000  0.000000    0.25000000   1 t-inv F
  0.500000 -0.000000  0.000000    0.25000000   2 t-inv F
  0.000000  0.500000  0.000000    0.25000000   3 t-inv F
  0.500000  0.500000  0.000000    0.25000000   4 t-inv F


--------------------------------------------------------------------------------------------------------




 Dimension of arrays:
   k-points           NKPTS =      4   k-points in BZ     NKDIM =      4   number of bands    NBANDS=    624
   number of dos      NEDOS =    301   number of ions     NIONS =     81
   non local maximal  LDIM  =      6   non local SUM 2l+1 LMDIM =     18
   total plane-waves  NPLWV = ******
   max r-space proj   IRMAX =   7657   max aug-charges    IRDMAX=  33358
   dimension x,y,z NGX =    84 NGY =   84 NGZ =  168
   dimension x,y,z NGXF=   168 NGYF=  168 NGZF=  336
   support grid    NGXF=   168 NGYF=  168 NGZF=  336
   ions per type =              32  13  10  13  12   1
   NGX,Y,Z   is equivalent  to a cutoff of  13.10, 13.10, 12.70 a.u.
   NGXF,Y,Z  is equivalent  to a cutoff of  26.20, 26.20, 25.39 a.u.

 SYSTEM =  Pt111                                   
 POSCAR =  10.66                                   

 Startparameter for this run:
   NWRITE =      2    write-flag & timer
   PREC   = accura    normal or accurate (medium, high low for compatibility)
   ISTART =      0    job   : 0-new  1-cont  2-samecut
   ICHARG =      2    charge: 1-file 2-atom 10-const
   ISPIN  =      2    spin polarized calculation?
   LNONCOLLINEAR =      F non collinear calculations
   LSORBIT =      F    spin-orbit coupling
   INIWAV =      1    electr: 0-lowe 1-rand  2-diag
   LASPH  =      F    aspherical Exc in radial PAW
   METAGGA=      F    non-selfconsistent MetaGGA calc.

 Electronic Relaxation 1
   ENCUT  =  550.0 eV  40.42 Ry    6.36 a.u.  20.38 20.38 42.07*2*pi/ulx,y,z
   ENINI  =  550.0     initial cutoff
   ENAUG  =  587.0 eV  augmentation charge cutoff
   NELM   =    200;   NELMIN=  2; NELMDL= -5     # of ELM steps 
   EDIFF  = 0.1E-04   stopping-criterion for ELM
   LREAL  =      T    real-space projection
   NLSPLINE    = F    spline interpolate recip. space projectors
   LCOMPAT=      F    compatible to vasp.4.4
   GGA_COMPAT  = T    GGA compatible to vasp.4.4-vasp.4.6
   LMAXPAW     = -100 max onsite density
   LMAXMIX     =    2 max onsite mixed and CHGCAR
   VOSKOWN=      0    Vosko Wilk Nusair interpolation
   ROPT   =   -0.00025  -0.00025  -0.00025  -0.00025
   ROPT   =   -0.00025  -0.00025
 Ionic relaxation
   EDIFFG = -.5E-01   stopping-criterion for IOM
   NSW    =   1009    number of steps for IOM
   NBLOCK =      1;   KBLOCK =   1009    inner block; outer block 
   IBRION =      5    ionic relax: 0-MD 1-quasi-New 2-CG
   NFREE  =      2    steps in history (QN), initial steepest desc. (CG)
   ISIF   =      2    stress and relaxation
   IWAVPR =     11    prediction:  0-non 1-charg 2-wave 3-comb
   ISYM   =      2    0-nonsym 1-usesym 2-fastsym
   LCORR  =      T    Harris-Foulkes like correction to forces

   POTIM  = 0.5000    time-step for ionic-motion
   TEIN   =    0.0    initial temperature
   TEBEG  =    0.0;   TEEND  =   0.0 temperature during run
   SMASS  =  -3.00    Nose mass-parameter (am)
   estimated Nose-frequenzy (Omega)   =  0.10E-29 period in steps =****** mass=  -0.260E-26a.u.
   SCALEE = 1.0000    scale energy and forces
   NPACO  =    256;   APACO  = 16.0  distance and # of slots for P.C.
   PSTRESS=    0.0 pullay stress

  Mass of Ions in am
   POMASS = 195.08 55.85 58.93 63.55 58.69  1.00
  Ionic Valenz
   ZVAL   =  10.00  8.00  9.00 11.00 10.00  1.00
  Atomic Wigner-Seitz radii
   RWIGS  =  -1.00 -1.00 -1.00 -1.00 -1.00 -1.00
  virtual crystal weights 
   VCA    =   1.00  1.00  1.00  1.00  1.00  1.00
   NELECT =     778.0000    total number of electrons
   NUPDOWN=      -1.0000    fix difference up-down

 DOS related values:
   EMIN   =  10.00;   EMAX   =-10.00  energy-range for DOS
   EFERMI =   0.00
   ISMEAR =    -5;   SIGMA  =   0.10  broadening in eV -4-tet -1-fermi 0-gaus

 Electronic relaxation 2 (details)
   IALGO  =     68    algorithm
   LDIAG  =      T    sub-space diagonalisation (order eigenvalues)
   LSUBROT=      F    optimize rotation matrix (better conditioning)
   TURBO    =      0    0=normal 1=particle mesh
   IRESTART =      0    0=no restart 2=restart with 2 vectors
   NREBOOT  =      0    no. of reboots
   NMIN     =      0    reboot dimension
   EREF     =   0.00    reference energy to select bands
   IMIX   =      4    mixing-type and parameters
     AMIX     =   0.40;   BMIX     =  1.00
     AMIX_MAG =   1.60;   BMIX_MAG =  1.00
     AMIN     =   0.10
     WC   =   100.;   INIMIX=   1;  MIXPRE=   1;  MAXMIX= -45

 Intra band minimization:
   WEIMIN = 0.0010     energy-eigenvalue tresh-hold
   EBREAK =  0.40E-08  absolut break condition
   DEPER  =   0.30     relativ break condition  

   TIME   =   0.40     timestep for ELM

  volume/ion in A,a.u.               =      26.73       180.38
  Fermi-wavevector in a.u.,A,eV,Ry     =   1.163891  2.199434 18.431011  1.354641
  Thomas-Fermi vector in A             =   2.300435
 
 Write flags
   LWAVE        =      F    write WAVECAR
   LDOWNSAMPLE  =      F    k-point downsampling of WAVECAR
   LCHARG       =      F    write CHGCAR
   LVTOT        =      F    write LOCPOT, total local potential
   LVHAR        =      F    write LOCPOT, Hartree potential only
   LELF         =      F    write electronic localiz. function (ELF)
   LORBIT       =      0    0 simple, 1 ext, 2 COOP (PROOUT), +10 PAW based schemes


 Dipole corrections
   LMONO  =      F    monopole corrections only (constant potential shift)
   LDIPOL =      F    correct potential (dipole corrections)
   IDIPOL =      0    1-x, 2-y, 3-z, 4-all directions 
   EPSILON=  1.0000000 bulk dielectric constant

 Exchange correlation treatment:
   GGA     =    --    GGA type
   LEXCH   =     8    internal setting for exchange type
   VOSKOWN=      0    Vosko Wilk Nusair interpolation
   LHFCALC =     F    Hartree Fock is set to
   LHFONE  =     F    Hartree Fock one center treatment
   AEXX    =    0.0000 exact exchange contribution

 Linear response parameters
   LEPSILON=     F    determine dielectric tensor
   LRPA    =     F    only Hartree local field effects (RPA)
   LNABLA  =     F    use nabla operator in PAW spheres
   LVEL    =     F    velocity operator in full k-point grid
   LINTERFAST=   F  fast interpolation
   KINTER  =     0    interpolate to denser k-point grid
   CSHIFT  =0.1000    complex shift for real part using Kramers Kronig
   OMEGAMAX=  -1.0    maximum frequency
   DEG_THRESHOLD= 0.2000000E-02 threshold for treating states as degnerate
   RTIME   =   -0.100 relaxation time in fs
  (WPLASMAI=    0.000 imaginary part of plasma frequency in eV, 0.658/RTIME)
   DFIELD  = 0.0000000 0.0000000 0.0000000 field for delta impulse in time
 
 Orbital magnetization related:
   ORBITALMAG=     F  switch on orbital magnetization
   LCHIMAG   =     F  perturbation theory with respect to B field
   DQ        =  0.001000  dq finite difference perturbation B field
   LLRAUG    =     F  two centre corrections for induced B field



--------------------------------------------------------------------------------------------------------


 finite differences
   using selective dynamics as specified on POSCAR
   WARNING: If single coordinates had been selected the selection of coordinates
            is made according to the corresponding   d i r e c t   coordinates!
            Don't support selection of single cartesian coordinates -- sorry ...
  !
 charge density and potential will be updated during run
 spin polarized calculation
 RMM-DIIS sequential band-by-band and
  variant of blocked Davidson during initial phase
 perform sub-space diagonalisation
    before iterative eigenvector-optimisation
 modified Broyden-mixing scheme, WC =      100.0
 initial mixing is a Kerker type mixing with AMIX =  0.4000 and BMIX =      1.0000
 Hartree-type preconditioning will be used
 using additional bands          235
 real space projection scheme for non local part
 use partial core corrections
 calculate Harris-corrections to forces 
   (improved forces if not selfconsistent)
 use gradient corrections 
 use of overlap-Matrix (Vanderbilt PP)
 Fermi weights with tetrahedron method with Bloechl corrections


--------------------------------------------------------------------------------------------------------


  energy-cutoff  :      550.00
  volume of cell :     2165.05
      direct lattice vectors                 reciprocal lattice vectors
    10.659999847  0.000000000  0.000000000     0.093808632 -0.054160439  0.000000000
     5.329999924  9.231830672  0.000000000     0.000000000  0.108320878  0.000000000
     0.000000000  0.000000000 22.000000000     0.000000000  0.000000000  0.045454545

  length of vectors
    10.659999847 10.659999847 22.000000000     0.108320878  0.108320878  0.045454545


 
 k-points in units of 2pi/SCALE and weight: mesh auto                               
   0.00000000  0.00000000  0.00000000       0.250
   0.04690432 -0.02708022  0.00000000       0.250
   0.00000000  0.05416044  0.00000000       0.250
   0.04690432  0.02708022  0.00000000       0.250
 
 k-points in reciprocal lattice and weights: mesh auto                               
   0.00000000  0.00000000  0.00000000       0.250
   0.50000000 -0.00000000  0.00000000       0.250
   0.00000000  0.50000000  0.00000000       0.250
   0.50000000  0.50000000  0.00000000       0.250
 
 position of ions in fractional coordinates (direct lattice) 
   0.78752545  0.87775927  0.31704939
   0.04277568  0.88232230  0.31466392
   0.27879171  0.38074858  0.31921444
   0.87400223  0.96284838  0.42185827
   0.12536034  0.46061864  0.42798820
   0.12437521  0.96189410  0.42018776
   0.87245621  0.45764830  0.42628053
   0.37413988  0.96024715  0.41952840
   0.87351093  0.21088318  0.41898955
   0.12644472  0.20915168  0.42052305
   0.62352826  0.96112631  0.42214203
   0.87125064  0.71522846  0.42674442
   0.37489491  0.20906255  0.42327792
   0.37533112  0.71228433  0.42245890
   0.62489538  0.46175994  0.42080574
   0.12510844  0.71215113  0.42368588
   0.62458771  0.21064556  0.42061679
   0.54800322  0.37516776  0.31641809
   0.53456898  0.12433737  0.31456337
   0.54860226  0.12207837  0.04171946
   0.12037701  0.45967589  0.12832010
   0.04345608  0.13651473  0.31336174
   0.04184264  0.13051489  0.03430237
   0.13087669  0.95764103  0.13245935
   0.37459031  0.46140347  0.42459915
   0.45540065  0.54554799  0.21872307
   0.61989449  0.71276538  0.42167808
   0.95614158  0.78842047  0.22084640
   0.79568405  0.62172404  0.31898944
   0.29162078  0.63091686  0.31741481
   0.20235984  0.27964998  0.22551659
   0.70643683  0.54943248  0.22114503
   0.04066640  0.63047310  0.32474070
   0.79601056  0.86182010  0.04358326
   0.05654378  0.86511100  0.03922008
   0.04354811  0.63172365  0.03890931
   0.62768151  0.22351632  0.12936912
   0.38251648  0.95408414  0.13073287
   0.03561046  0.38343637  0.32417139
   0.02789537  0.38111357  0.03922688
   0.87238548  0.21524336  0.12909491
   0.95527756  0.54418484  0.22403566
   0.29688855  0.11531665  0.32064910
   0.54033940  0.62941754  0.32125292
   0.29593874  0.11566849  0.04109769
   0.54915757  0.62535345  0.04512996
   0.29444361  0.38188257  0.03954700
   0.62577798  0.94799811  0.13283874
   0.70748515  0.79281596  0.22036809
   0.86523064  0.70443471  0.12965162
   0.62674088  0.45978399  0.12791088
   0.29792925  0.87497754  0.31771484
   0.30656831  0.86859519  0.04153612
   0.62656079  0.71505450  0.12903147
   0.22575984  0.02733779  0.22740628
   0.54425403  0.38139876  0.03593963
   0.37883082  0.20414358  0.13341050
   0.13702030  0.70469682  0.13275664
   0.70482705  0.05023543  0.22046504
   0.79285105  0.12918718  0.31631957
   0.53864575  0.87282218  0.31654495
   0.79690904  0.12300803  0.03589815
   0.54639677  0.86991640  0.03703501
   0.20809871  0.54175130  0.22390652
   0.95105344  0.29779776  0.22150480
   0.87203635  0.96412677  0.12966428
   0.71523002  0.28986533  0.22355772
   0.45755010  0.29197484  0.22093710
   0.87549525  0.45703326  0.12894021
   0.12808024  0.20618715  0.12934578
   0.79201094  0.62176511  0.04149761
   0.29752238  0.62870438  0.04356032
   0.38614974  0.71252577  0.12966825
   0.38234618  0.45146388  0.12688447
   0.79304245  0.37929375  0.32007730
   0.79142063  0.37689392  0.04093851
   0.95526837  0.05324379  0.22137973
   0.45885151  0.79620654  0.22475217
   0.21541524  0.79740519  0.22454549
   0.46248255  0.02929515  0.22249906
   0.95714051  0.54600471  0.47214857
 
 position of ions in cartesian coordinates  (Angst):
  13.07347803  8.10332492  6.97508648
   5.15876659  8.14545011  6.92260629
   5.00130956  3.51500645  7.02271760
  14.44884539  8.88885317  9.28088198
   3.79143856  4.25235328  9.41574042
   6.45273520  8.88004347  9.24413081
  11.73964847  4.22493161  9.37817158
   9.10644833  8.86483912  9.22962483
  10.43563372  1.94683785  9.21777005
   2.46267913  1.93085288  9.25150704
  11.76961434  8.87295537  9.28712477
  13.09969938  6.60286804  9.38837728
   5.11068309  1.93003004  9.31211424
   7.79750510  6.57568828  9.29409571
   9.12256507  4.26288958  9.25772621
   5.12942137  6.57445864  9.32108944
   7.78084575  1.94464415  9.25356949
   7.84135840  3.46348526  6.96119789
   6.36122344  1.14786155  6.92039413
   6.49877769  1.12700682  0.91782815
   3.73329140  4.24365001  2.82304227
   1.19086527  1.26028089  6.89395831
   1.14168689  1.20489139  0.75465211
   6.49937211  8.84077982  2.91410569
   6.45241317  4.25959873  9.34118129
   7.76234163  5.03640662  4.81190749
  10.40711458  6.58012932  9.27691784
  14.39475022  7.27856432  4.85862070
  11.79578094  5.73965109  7.01776777
   6.47146429  5.82451760  6.98312575
   3.64769018  2.58168125  4.96136494
  10.45909162  5.07226764  4.86519068
   3.79392546  5.82042094  7.14429540
  13.07897347  7.95617723  0.95883175
   5.21379828  7.98655826  0.86284167
   3.83130979  5.83196573  0.85600479
   7.88242681  2.06346482  2.84612068
   9.16289403  8.80794326  2.87612304
   2.42332329  3.53981963  7.13177055
   2.32869997  3.51837592  0.86299137
  10.44687620  1.98709023  2.84008810
  13.08376379  5.02382226  4.92878442
   3.77946969  1.06458383  7.05428012
   9.11481329  5.81067612  7.06756430
   3.77121995  1.06783187  0.90414915
   9.18715339  5.77315714  0.99285907
   5.17420286  3.52547522  0.87003394
  11.72362308  8.75175804  2.92245229
  11.76750054  7.31914268  4.84809799
  12.97799537  6.50322193  2.85233561
   9.13170631  4.24464793  2.81403934
   7.83955593  8.07764447  6.98972641
   7.89763048  8.01872375  0.91379463
  10.49037833  6.60126203  2.83869239
   2.55231029  0.25237783  5.00293824
   7.83460323  3.52100880  0.79067188
   5.12642169  1.88461893  2.93503107
   5.21667036  6.50564171  2.92064609
   7.78121108  0.46376500  4.85023091
   9.14035973  1.19263414  6.95903056
  10.39410576  8.05774653  6.96398893
   9.15068307  1.13558928  0.78975929
  10.46124387  8.03092093  0.81477030
   5.10586658  5.00135623  4.92594335
  11.72549163  2.74921854  4.87310567
  14.43470298  8.90065509  2.85261421
   9.16933405  2.67598764  4.91826991
   6.43370988  2.69546233  4.86061610
  11.76876646  4.21925362  2.83668457
   2.46431279  1.90348482  2.84560726
  11.75684446  5.74003023  0.91294740
   6.52258279  5.80409234  0.95832694
   7.91411848  6.57791728  2.85270146
   6.48211261  4.16783809  2.79145838
  10.47546810  3.50157570  7.04170059
  10.44538833  3.47942085  0.90064720
  10.46695011  0.49153765  4.87035397
   9.13513783  7.35044397  4.94454785
   6.54649605  7.36150971  4.94000068
   5.08620711  0.27044791  4.89497924
  13.11332279  5.04062300 10.38726858
 


--------------------------------------------------------------------------------------------------------


 k-point  1 :   0.0000 0.0000 0.0000  plane waves:   63475
 k-point  2 :   0.5000-0.0000 0.0000  plane waves:   63428
 k-point  3 :   0.0000 0.5000 0.0000  plane waves:   63428
 k-point  4 :   0.5000 0.5000 0.0000  plane waves:   63428

 maximum and minimum number of plane-waves per node :     63475    63428

 maximum number of plane-waves:     63475
 maximum index in each direction: 
   IXMAX=   20   IYMAX=   20   IZMAX=   42
   IXMIN=  -20   IYMIN=  -20   IZMIN=  -42


 serial   3D FFT for wavefunctions
 parallel 3D FFT for charge:
    minimum data exchange during FFTs selected (reduces bandwidth)


 total amount of memory used by VASP MPI-rank0   369857. kBytes
=======================================================================

   base      :      30000. kBytes
   nonlr-proj:      96554. kBytes
   fftplans  :      12162. kBytes
   grid      :     120476. kBytes
   one-center:       2519. kBytes
   wavefun   :     108146. kBytes
 
     INWAV:  cpu time    0.0000: real time    0.0005
 Broyden mixing: mesh for mixing (old mesh)
   NGX = 41   NGY = 41   NGZ = 85
  (NGX  =168   NGY  =168   NGZ  =336)
  gives a total of 142885 points

 initial charge density was supplied:
 charge density of overlapping atoms calculated
 number of electron     778.0000000 magnetization     231.0000000
 keeping initial charge density in first step


--------------------------------------------------------------------------------------------------------


 Maximum index for non-local projection operator         7405
 Maximum index for augmentation-charges         1446 (set IRDMAX)


--------------------------------------------------------------------------------------------------------


 First call to EWALD:  gamma=   0.137
 Maximum number of real-space cells 4x 4x 2
 Maximum number of reciprocal cells 2x 2x 4

    FEWALD:  cpu time    0.0044: real time    0.0044


--------------------------------------- Iteration      1(   1)  ---------------------------------------


    POTLOK:  cpu time    0.4498: real time    0.4558
    SETDIJ:  cpu time    0.0313: real time    0.0314
     EDDAV:  cpu time   59.7318: real time   60.0187
 BZINTS: Fermi energy: 17.498498;778.000000 electrons
         Band energy:7817.781544;  BLOECHL correction: -0.018314
       DOS:  cpu time    0.0441: real time    0.1035
    --------------------------------------------
      LOOP:  cpu time   60.2570: real time   60.6094

 eigenvalue-minimisations  :  9984
 total energy-change (2. order) : 0.7573635E+04  (-0.3345389E+05)
 number of electron     778.0000000 magnetization     231.0000000
 augmentation part      778.0000000 magnetization     231.0000000

 Free energy of the ion-electron system (eV)
  ---------------------------------------------------
  alpha Z        PSCENC =      2197.15539535
  Ewald energy   TEWEN  =    222858.45361457
  -Hartree energ DENC   =   -295001.19904145
  -exchange      EXHF   =         0.00000000
  -V(xc)+E(xc)   XCENC  =      1384.69745964
  PAW double counting   =     64136.80006862   -66038.70876209
  entropy T*S    EENTRO =         0.00000000
  eigenvalues    EBANDS =      7817.78154411
  atomic energy  EATOM  =     70218.65458108
  Solvation  Ediel_sol  =         0.00000000
  ---------------------------------------------------
  free energy    TOTEN  =      7573.63485982 eV

  energy without entropy =     7573.63485982  energy(sigma->0) =     7573.63485982


--------------------------------------------------------------------------------------------------------




--------------------------------------- Iteration      1(   2)  ---------------------------------------


     EDDAV:  cpu time   60.9034: real time   61.0616
 BZINTS: Fermi energy:  5.735130;778.000000 electrons
         Band energy: 879.038448;  BLOECHL correction: -0.113393
       DOS:  cpu time    0.0221: real time    0.0232
    --------------------------------------------
      LOOP:  cpu time   60.9255: real time   61.0849

 eigenvalue-minimisations  : 10176
 total energy-change (2. order) :-0.6938743E+04  (-0.6152057E+04)
 number of electron     778.0000000 magnetization     231.0000000
 augmentation part      778.0000000 magnetization     231.0000000

 Free energy of the ion-electron system (eV)
  ---------------------------------------------------
  alpha Z        PSCENC =      2197.15539535
  Ewald energy   TEWEN  =    222858.45361457
  -Hartree energ DENC   =   -295001.19904145
  -exchange      EXHF   =         0.00000000
  -V(xc)+E(xc)   XCENC  =      1384.69745964
  PAW double counting   =     64136.80006862   -66038.70876209
  entropy T*S    EENTRO =         0.00000000
  eigenvalues    EBANDS =       879.03844806
  atomic energy  EATOM  =     70218.65458108
  Solvation  Ediel_sol  =         0.00000000
  ---------------------------------------------------
  free energy    TOTEN  =       634.89176378 eV

  energy without entropy =      634.89176378  energy(sigma->0) =      634.89176378


--------------------------------------------------------------------------------------------------------




--------------------------------------- Iteration      1(   3)  ---------------------------------------


     EDDAV:  cpu time   60.3284: real time   60.5512
 BZINTS: Fermi energy:  3.435341;778.000000 electrons
         Band energy:-185.255129;  BLOECHL correction: -0.039351
       DOS:  cpu time    0.0233: real time    0.0245
    --------------------------------------------
      LOOP:  cpu time   60.3517: real time   60.5757

 eigenvalue-minimisations  : 10032
 total energy-change (2. order) :-0.1064294E+04  (-0.8899860E+03)
 number of electron     778.0000000 magnetization     231.0000000
 augmentation part      778.0000000 magnetization     231.0000000

 Free energy of the ion-electron system (eV)
  ---------------------------------------------------
  alpha Z        PSCENC =      2197.15539535
  Ewald energy   TEWEN  =    222858.45361457
  -Hartree energ DENC   =   -295001.19904145
  -exchange      EXHF   =         0.00000000
  -V(xc)+E(xc)   XCENC  =      1384.69745964
  PAW double counting   =     64136.80006862   -66038.70876209
  entropy T*S    EENTRO =         0.00000000
  eigenvalues    EBANDS =      -185.25512939
  atomic energy  EATOM  =     70218.65458108
  Solvation  Ediel_sol  =         0.00000000
  ---------------------------------------------------
  free energy    TOTEN  =      -429.40181367 eV

  energy without entropy =     -429.40181367  energy(sigma->0) =     -429.40181367


--------------------------------------------------------------------------------------------------------




--------------------------------------- Iteration      1(   4)  ---------------------------------------


     EDDAV:  cpu time   70.4295: real time   70.6477
 BZINTS: Fermi energy:  3.303948;778.000000 electrons
         Band energy:-251.052545;  BLOECHL correction: -0.012557
       DOS:  cpu time    0.0470: real time    0.0798
    --------------------------------------------
      LOOP:  cpu time   70.4766: real time   70.7276

 eigenvalue-minimisations  : 12192
 total energy-change (2. order) :-0.6579742E+02  (-0.6319443E+02)
 number of electron     778.0000000 magnetization     231.0000000
 augmentation part      778.0000000 magnetization     231.0000000

 Free energy of the ion-electron system (eV)
  ---------------------------------------------------
  alpha Z        PSCENC =      2197.15539535
  Ewald energy   TEWEN  =    222858.45361457
  -Hartree energ DENC   =   -295001.19904145
  -exchange      EXHF   =         0.00000000
  -V(xc)+E(xc)   XCENC  =      1384.69745964
  PAW double counting   =     64136.80006862   -66038.70876209
  entropy T*S    EENTRO =         0.00000000
  eigenvalues    EBANDS =      -251.05254501
  atomic energy  EATOM  =     70218.65458108
  Solvation  Ediel_sol  =         0.00000000
  ---------------------------------------------------
  free energy    TOTEN  =      -495.19922929 eV

  energy without entropy =     -495.19922929  energy(sigma->0) =     -495.19922929


--------------------------------------------------------------------------------------------------------




--------------------------------------- Iteration      1(   5)  ---------------------------------------


     EDDAV:  cpu time   70.9161: real time   71.0978
 BZINTS: Fermi energy:  3.299560;778.000000 electrons
         Band energy:-253.261156;  BLOECHL correction: -0.011781
       DOS:  cpu time    0.0257: real time    0.0264
    CHARGE:  cpu time    2.6756: real time    2.6820
    MIXING:  cpu time    0.0100: real time    0.0102
    --------------------------------------------
      LOOP:  cpu time   73.6273: real time   73.8165

 eigenvalue-minimisations  : 12336
 total energy-change (2. order) :-0.2208611E+01  (-0.2203386E+01)
 number of electron     778.0000020 magnetization     216.5385514
 augmentation part      335.0482100 magnetization     184.0614624

 Broyden mixing:
  rms(total) = 0.11744E+02    rms(broyden)= 0.11744E+02
  rms(prec ) = 0.12060E+02
  weight for this iteration     100.00

 Free energy of the ion-electron system (eV)
  ---------------------------------------------------
  alpha Z        PSCENC =      2197.15539535
  Ewald energy   TEWEN  =    222858.45361457
  -Hartree energ DENC   =   -295001.19904145
  -exchange      EXHF   =         0.00000000
  -V(xc)+E(xc)   XCENC  =      1384.69745964
  PAW double counting   =     64136.80006862   -66038.70876209
  entropy T*S    EENTRO =         0.00000000
  eigenvalues    EBANDS =      -253.26115556
  atomic energy  EATOM  =     70218.65458108
  Solvation  Ediel_sol  =         0.00000000
  ---------------------------------------------------
  free energy    TOTEN  =      -497.40783984 eV

  energy without entropy =     -497.40783984  energy(sigma->0) =     -497.40783984


--------------------------------------------------------------------------------------------------------




--------------------------------------- Iteration      1(   6)  ---------------------------------------


    POTLOK:  cpu time    0.4049: real time    0.4069
    SETDIJ:  cpu time    0.0316: real time    0.0317
    EDDIAG:  cpu time   10.0781: real time   10.1027
  RMM-DIIS:  cpu time   37.8233: real time   37.9165
    ORTHCH:  cpu time    1.6634: real time    1.6675
 BZINTS: Fermi energy:  1.547815;778.000000 electrons
         Band energy:***********;  BLOECHL correction: -0.039703
       DOS:  cpu time    0.0278: real time    0.0278
    CHARGE:  cpu time    2.6718: real time    2.6782
    MIXING:  cpu time    0.0136: real time    0.0158
    --------------------------------------------
      LOOP:  cpu time   52.7145: real time   52.8471

 eigenvalue-minimisations  : 10030
 total energy-change (2. order) :-0.1625190E+03  (-0.8387367E+02)
 number of electron     778.0000025 magnetization     212.4327405
 augmentation part      406.4404320 magnetization     179.7649113

 Broyden mixing:
  rms(total) = 0.19675E+02    rms(broyden)= 0.19675E+02
  rms(prec ) = 0.25481E+02
  weight for this iteration     100.00

 eigenvalues of (default mixing * dielectric matrix)
  average eigenvalue GAMMA=   0.2254
  0.2254

 Free energy of the ion-electron system (eV)
  ---------------------------------------------------
  alpha Z        PSCENC =      2197.15539535
  Ewald energy   TEWEN  =    222858.45361457
  -Hartree energ DENC   =   -293390.60260445
  -exchange      EXHF   =         0.00000000
  -V(xc)+E(xc)   XCENC  =      1338.71721506
  PAW double counting   =     68947.33169909   -70639.38812398
  entropy T*S    EENTRO =         0.00000000
  eigenvalues    EBANDS =     -2190.24859374
  atomic energy  EATOM  =     70218.65458108
  Solvation  Ediel_sol  =         0.00000000
  ---------------------------------------------------
  free energy    TOTEN  =      -659.92681703 eV

  energy without entropy =     -659.92681703  energy(sigma->0) =     -659.92681703


--------------------------------------------------------------------------------------------------------




--------------------------------------- Iteration      1(   7)  ---------------------------------------


    POTLOK:  cpu time    0.4069: real time    0.4107
    SETDIJ:  cpu time    0.0317: real time    0.0318
    EDDIAG:  cpu time   10.0083: real time   10.0366
  RMM-DIIS:  cpu time   37.7427: real time   37.8605
    ORTHCH:  cpu time    1.6881: real time    1.6964
 BZINTS: Fermi energy:  3.009414;778.000000 electrons
         Band energy:***********;  BLOECHL correction: -0.009140
       DOS:  cpu time    0.0257: real time    0.0257
    CHARGE:  cpu time    2.6691: real time    2.6779
    MIXING:  cpu time    0.0101: real time    0.0103
    --------------------------------------------
      LOOP:  cpu time   52.5825: real time   52.7500

 eigenvalue-minimisations  :  9998
 total energy-change (2. order) : 0.1203797E+03  (-0.1466767E+02)
 number of electron     778.0000029 magnetization     207.8273372
 augmentation part      366.1110734 magnetization     165.2572403

 Broyden mixing:
  rms(total) = 0.15680E+02    rms(broyden)= 0.15680E+02
  rms(prec ) = 0.21152E+02
  weight for this iteration     100.00

 eigenvalues of (default mixing * dielectric matrix)
  average eigenvalue GAMMA=   0.2668
  0.3668  0.1668

 Free energy of the ion-electron system (eV)
  ---------------------------------------------------
  alpha Z        PSCENC =      2197.15539535
  Ewald energy   TEWEN  =    222858.45361457
  -Hartree energ DENC   =   -294079.46989241
  -exchange      EXHF   =         0.00000000
  -V(xc)+E(xc)   XCENC  =      1359.10462522
  PAW double counting   =     69998.17368833   -71851.05357456
  entropy T*S    EENTRO =         0.00000000
  eigenvalues    EBANDS =     -1240.56558313
  atomic energy  EATOM  =     70218.65458108
  Solvation  Ediel_sol  =         0.00000000
  ---------------------------------------------------
  free energy    TOTEN  =      -539.54714555 eV

  energy without entropy =     -539.54714555  energy(sigma->0) =     -539.54714555


--------------------------------------------------------------------------------------------------------




--------------------------------------- Iteration      1(   8)  ---------------------------------------


    POTLOK:  cpu time    0.4079: real time    0.4130
    SETDIJ:  cpu time    0.0313: real time    0.0313
    EDDIAG:  cpu time   10.0459: real time   10.0707
  RMM-DIIS:  cpu time   37.7293: real time   37.8201
    ORTHCH:  cpu time    1.6685: real time    1.6744
 BZINTS: Fermi energy:  2.620683;778.000000 electrons
         Band energy:-851.973297;  BLOECHL correction: -0.005365
       DOS:  cpu time    0.0260: real time    0.0261
    CHARGE:  cpu time    2.6572: real time    2.6637
    MIXING:  cpu time    0.0110: real time    0.0112
    --------------------------------------------
      LOOP:  cpu time   52.5770: real time   52.7104

 eigenvalue-minimisations  : 10006
[...]
      9.114813  5.810676  7.067564            0           0           0  
      3.771220  1.067832  0.904149            0           0           0  
      9.187153  5.773157  0.992859            0           0           0  
      5.174203  3.525475  0.870034            0           0           0  
     11.723623  8.751758  2.922452            0           0           0  
     11.767501  7.319143  4.848098            0           0           0  
     12.977995  6.503222  2.852336            0           0           0  
      9.131706  4.244648  2.814039            0           0           0  
      7.839556  8.077644  6.989726            0           0           0  
      7.897630  8.018724  0.913795            0           0           0  
     10.490378  6.601262  2.838692            0           0           0  
      2.552310  0.252378  5.002938            0           0           0  
      7.834603  3.521009  0.790672            0           0           0  
      5.126422  1.884619  2.935031            0           0           0  
      5.216670  6.505642  2.920646            0           0           0  
      7.781211  0.463765  4.850231            0           0           0  
      9.140360  1.192634  6.959031            0           0           0  
     10.394106  8.057747  6.963989            0           0           0  
      9.150683  1.135589  0.789759            0           0           0  
     10.461244  8.030921  0.814770            0           0           0  
      5.105867  5.001356  4.925943            0           0           0  
     11.725492  2.749219  4.873106            0           0           0  
     14.434703  8.900655  2.852614            0           0           0  
      9.169334  2.675988  4.918270            0           0           0  
      6.433710  2.695462  4.860616            0           0           0  
     11.768766  4.219254  2.836685            0           0           0  
      2.464313  1.903485  2.845607            0           0           0  
     11.756844  5.740030  0.912947            0           0           0  
      6.522583  5.804092  0.958327            0           0           0  
      7.914118  6.577917  2.852701            0           0           0  
      6.482113  4.167838  2.791458            0           0           0  
     10.475468  3.501576  7.041701            0           0           0  
     10.445388  3.479421  0.900647            0           0           0  
     10.466950  0.491538  4.870354            0           0           0  
      9.135138  7.350444  4.944548            0           0           0  
      6.546496  7.361510  4.940001            0           0           0  
      5.086207  0.270448  4.894979            0           0           0  
     13.113323  5.040623 10.387269    -0.134822    0.010626    0.990813  
 
   2 f  =   18.149041 THz   114.033788 2PiTHz  605.386828 cm-1    75.058428 meV
             X         Y         Z           dx          dy          dz
     13.073478  8.103325  6.975086            0           0           0  
      5.158767  8.145450  6.922606            0           0           0  
      5.001310  3.515006  7.022718            0           0           0  
     14.448845  8.888853  9.280882            0           0           0  
      3.791439  4.252353  9.415740            0           0           0  
      6.452735  8.880043  9.244131            0           0           0  
     11.739648  4.224932  9.378172            0           0           0  
      9.106448  8.864839  9.229625            0           0           0  
     10.435634  1.946838  9.217770            0           0           0  
      2.462679  1.930853  9.251507            0           0           0  
     11.769614  8.872955  9.287125            0           0           0  
     13.099699  6.602868  9.388377            0           0           0  
      5.110683  1.930030  9.312114            0           0           0  
      7.797505  6.575688  9.294096            0           0           0  
      9.122565  4.262890  9.257726            0           0           0  
      5.129421  6.574459  9.321089            0           0           0  
      7.780846  1.944644  9.253569            0           0           0  
      7.841358  3.463485  6.961198            0           0           0  
      6.361223  1.147862  6.920394            0           0           0  
      6.498778  1.127007  0.917828            0           0           0  
      3.733291  4.243650  2.823042            0           0           0  
      1.190865  1.260281  6.893958            0           0           0  
      1.141687  1.204891  0.754652            0           0           0  
      6.499372  8.840780  2.914106            0           0           0  
      6.452413  4.259599  9.341181            0           0           0  
      7.762342  5.036407  4.811907            0           0           0  
     10.407115  6.580129  9.276918            0           0           0  
     14.394750  7.278564  4.858621            0           0           0  
     11.795781  5.739651  7.017768            0           0           0  
      6.471464  5.824518  6.983126            0           0           0  
      3.647690  2.581681  4.961365            0           0           0  
     10.459092  5.072268  4.865191            0           0           0  
      3.793925  5.820421  7.144295            0           0           0  
     13.078973  7.956177  0.958832            0           0           0  
      5.213798  7.986558  0.862842            0           0           0  
      3.831310  5.831966  0.856005            0           0           0  
      7.882427  2.063465  2.846121            0           0           0  
      9.162894  8.807943  2.876123            0           0           0  
      2.423323  3.539820  7.131771            0           0           0  
      2.328700  3.518376  0.862991            0           0           0  
     10.446876  1.987090  2.840088            0           0           0  
     13.083764  5.023822  4.928784            0           0           0  
      3.779470  1.064584  7.054280            0           0           0  
      9.114813  5.810676  7.067564            0           0           0  
      3.771220  1.067832  0.904149            0           0           0  
      9.187153  5.773157  0.992859            0           0           0  
      5.174203  3.525475  0.870034            0           0           0  
     11.723623  8.751758  2.922452            0           0           0  
     11.767501  7.319143  4.848098            0           0           0  
     12.977995  6.503222  2.852336            0           0           0  
      9.131706  4.244648  2.814039            0           0           0  
      7.839556  8.077644  6.989726            0           0           0  
      7.897630  8.018724  0.913795            0           0           0  
     10.490378  6.601262  2.838692            0           0           0  
      2.552310  0.252378  5.002938            0           0           0  
      7.834603  3.521009  0.790672            0           0           0  
      5.126422  1.884619  2.935031            0           0           0  
      5.216670  6.505642  2.920646            0           0           0  
      7.781211  0.463765  4.850231            0           0           0  
      9.140360  1.192634  6.959031            0           0           0  
     10.394106  8.057747  6.963989            0           0           0  
      9.150683  1.135589  0.789759            0           0           0  
     10.461244  8.030921  0.814770            0           0           0  
      5.105867  5.001356  4.925943            0           0           0  
     11.725492  2.749219  4.873106            0           0           0  
     14.434703  8.900655  2.852614            0           0           0  
      9.169334  2.675988  4.918270            0           0           0  
      6.433710  2.695462  4.860616            0           0           0  
     11.768766  4.219254  2.836685            0           0           0  
      2.464313  1.903485  2.845607            0           0           0  
     11.756844  5.740030  0.912947            0           0           0  
      6.522583  5.804092  0.958327            0           0           0  
      7.914118  6.577917  2.852701            0           0           0  
      6.482113  4.167838  2.791458            0           0           0  
     10.475468  3.501576  7.041701            0           0           0  
     10.445388  3.479421  0.900647            0           0           0  
     10.466950  0.491538  4.870354            0           0           0  
      9.135138  7.350444  4.944548            0           0           0  
      6.546496  7.361510  4.940001            0           0           0  
      5.086207  0.270448  4.894979            0           0           0  
     13.113323  5.040623 10.387269    -0.740014    0.663894   -0.107815  
 
   3 f  =   15.654686 THz    98.361295 2PiTHz  522.184112 cm-1    64.742602 meV
             X         Y         Z           dx          dy          dz
     13.073478  8.103325  6.975086            0           0           0  
      5.158767  8.145450  6.922606            0           0           0  
      5.001310  3.515006  7.022718            0           0           0  
     14.448845  8.888853  9.280882            0           0           0  
      3.791439  4.252353  9.415740            0           0           0  
      6.452735  8.880043  9.244131            0           0           0  
     11.739648  4.224932  9.378172            0           0           0  
      9.106448  8.864839  9.229625            0           0           0  
     10.435634  1.946838  9.217770            0           0           0  
      2.462679  1.930853  9.251507            0           0           0  
     11.769614  8.872955  9.287125            0           0           0  
     13.099699  6.602868  9.388377            0           0           0  
      5.110683  1.930030  9.312114            0           0           0  
      7.797505  6.575688  9.294096            0           0           0  
      9.122565  4.262890  9.257726            0           0           0  
      5.129421  6.574459  9.321089            0           0           0  
      7.780846  1.944644  9.253569            0           0           0  
      7.841358  3.463485  6.961198            0           0           0  
      6.361223  1.147862  6.920394            0           0           0  
      6.498778  1.127007  0.917828            0           0           0  
      3.733291  4.243650  2.823042            0           0           0  
      1.190865  1.260281  6.893958            0           0           0  
      1.141687  1.204891  0.754652            0           0           0  
      6.499372  8.840780  2.914106            0           0           0  
      6.452413  4.259599  9.341181            0           0           0  
      7.762342  5.036407  4.811907            0           0           0  
     10.407115  6.580129  9.276918            0           0           0  
     14.394750  7.278564  4.858621            0           0           0  
     11.795781  5.739651  7.017768            0           0           0  
      6.471464  5.824518  6.983126            0           0           0  
      3.647690  2.581681  4.961365            0           0           0  
     10.459092  5.072268  4.865191            0           0           0  
      3.793925  5.820421  7.144295            0           0           0  
     13.078973  7.956177  0.958832            0           0           0  
      5.213798  7.986558  0.862842            0           0           0  
      3.831310  5.831966  0.856005            0           0           0  
      7.882427  2.063465  2.846121            0           0           0  
      9.162894  8.807943  2.876123            0           0           0  
      2.423323  3.539820  7.131771            0           0           0  
      2.328700  3.518376  0.862991            0           0           0  
     10.446876  1.987090  2.840088            0           0           0  
     13.083764  5.023822  4.928784            0           0           0  
      3.779470  1.064584  7.054280            0           0           0  
      9.114813  5.810676  7.067564            0           0           0  
      3.771220  1.067832  0.904149            0           0           0  
      9.187153  5.773157  0.992859            0           0           0  
      5.174203  3.525475  0.870034            0           0           0  
     11.723623  8.751758  2.922452            0           0           0  
     11.767501  7.319143  4.848098            0           0           0  
     12.977995  6.503222  2.852336            0           0           0  
      9.131706  4.244648  2.814039            0           0           0  
      7.839556  8.077644  6.989726            0           0           0  
      7.897630  8.018724  0.913795            0           0           0  
     10.490378  6.601262  2.838692            0           0           0  
      2.552310  0.252378  5.002938            0           0           0  
      7.834603  3.521009  0.790672            0           0           0  
      5.126422  1.884619  2.935031            0           0           0  
      5.216670  6.505642  2.920646            0           0           0  
      7.781211  0.463765  4.850231            0           0           0  
      9.140360  1.192634  6.959031            0           0           0  
     10.394106  8.057747  6.963989            0           0           0  
      9.150683  1.135589  0.789759            0           0           0  
     10.461244  8.030921  0.814770            0           0           0  
      5.105867  5.001356  4.925943            0           0           0  
     11.725492  2.749219  4.873106            0           0           0  
     14.434703  8.900655  2.852614            0           0           0  
      9.169334  2.675988  4.918270            0           0           0  
      6.433710  2.695462  4.860616            0           0           0  
     11.768766  4.219254  2.836685            0           0           0  
      2.464313  1.903485  2.845607            0           0           0  
     11.756844  5.740030  0.912947            0           0           0  
      6.522583  5.804092  0.958327            0           0           0  
      7.914118  6.577917  2.852701            0           0           0  
      6.482113  4.167838  2.791458            0           0           0  
     10.475468  3.501576  7.041701            0           0           0  
     10.445388  3.479421  0.900647            0           0           0  
     10.466950  0.491538  4.870354            0           0           0  
      9.135138  7.350444  4.944548            0           0           0  
      6.546496  7.361510  4.940001            0           0           0  
      5.086207  0.270448  4.894979            0           0           0  
     13.113323  5.040623 10.387269     0.658940    0.747752    0.081644  
 
 Finite differences POTIM=  1.500000000000000E-002
  LATTYP: Found a hexagonal cell.
 ALAT       =    10.6599998474
 C/A-ratio  =     2.0637898982
  
  Lattice vectors:
  
 A1 = (   5.3299999237,  -9.2318306722,   0.0000000000)
 A2 = ( -10.6599998474,   0.0000000000,   0.0000000000)
 A3 = (   0.0000000000,   0.0000000000, -22.0000000000)


Analysis of symmetry for initial positions (statically):
=====================================================================
 Subroutine PRICEL returns:
 Original cell was already a primitive cell.
 

 Routine SETGRP: Setting up the symmetry group for a 
 hexagonal supercell.


 Subroutine GETGRP returns: Found  1 space group operations
 (whereof  1 operations were pure point group operations)
 out of a pool of 24 trial point group operations.


The static configuration has the point symmetry C_1 .


Analysis of symmetry for dynamics (positions and initial velocities):
=====================================================================
 Subroutine PRICEL returns:
 Original cell was already a primitive cell.
 

 Routine SETGRP: Setting up the symmetry group for a 
 hexagonal supercell.


 Subroutine GETGRP returns: Found  1 space group operations
 (whereof  1 operations were pure point group operations)
 out of a pool of 24 trial point group operations.


The dynamic configuration has the point symmetry C_1 .


Analysis of constrained symmetry for selective dynamics:
=====================================================================
 Subroutine PRICEL returns:
 Original cell was already a primitive cell.
 

 Routine SETGRP: Setting up the symmetry group for a 
 hexagonal supercell.


 Subroutine GETGRP returns: Found  1 space group operations
 (whereof  1 operations were pure point group operations)
 out of a pool of 24 trial point group operations.


The constrained configuration has the point symmetry C_1 .


Analysis of structural, dynamic, and magnetic symmetry:
=====================================================================
 Subroutine PRICEL returns:
 Original cell was already a primitive cell.
 

 Routine SETGRP: Setting up the symmetry group for a 
 hexagonal supercell.


 Subroutine GETGRP returns: Found  1 space group operations
 (whereof  1 operations were pure point group operations)
 out of a pool of 24 trial point group operations.


The magnetic configuration has the point symmetry C_1 .


 Subroutine INISYM returns: Found  1 space group operations
 (whereof  1 operations are pure point group operations),
 and found     1 'primitive' translations

 
 KPOINTS: mesh auto                               

Automatic generation of k-mesh.
Space group operators:
 irot       det(A)        alpha          n_x          n_y          n_z        tau_x        tau_y        tau_z
    1     1.000000     0.000000     1.000000     0.000000     0.000000     0.000000     0.000000     0.000000
 
 Subroutine IBZKPT returns following result:
 ===========================================
 
 Found      4 irreducible k-points:
 
 Following reciprocal coordinates:
            Coordinates               Weight
  0.000000  0.000000  0.000000      1.000000
  0.500000 -0.000000  0.000000      1.000000
  0.000000  0.500000  0.000000      1.000000
  0.500000  0.500000  0.000000      1.000000
 
 Following cartesian coordinates:
            Coordinates               Weight
  0.000000  0.000000  0.000000      1.000000
  0.046904 -0.027080  0.000000      1.000000
  0.000000  0.054160  0.000000      1.000000
  0.046904  0.027080  0.000000      1.000000
 
 TETIRR: Found     12 inequivalent tetrahedra from       24
     LOOP+:  cpu time  838.3511: real time  841.7883
    4ORBIT:  cpu time    0.0000: real time    0.0000
 BZINTS: Fermi energy:  1.937876;778.000000 electrons
         Band energy:-742.691416;  BLOECHL correction: -0.277214

 total amount of memory used by VASP MPI-rank0   369857. kBytes
=======================================================================

   base      :      30000. kBytes
   nonlr-proj:      96554. kBytes
   fftplans  :      12162. kBytes
   grid      :     120476. kBytes
   one-center:       2519. kBytes
   wavefun   :     108146. kBytes
 
  
  
 General timing and accounting informations for this job:
 ========================================================
  
                  Total CPU time used (sec):     8030.390
                            User time (sec):     7997.524
                          System time (sec):       32.866
                         Elapsed time (sec):     8138.985
  
                   Maximum memory used (kb):      698400.
                   Average memory used (kb):           0.
  
                          Minor page faults:      3124746
                          Major page faults:          223
                 Voluntary context switches:         7461
