 vasp.5.4.4.18Apr17-6-g9f103f2a35 (build Oct 25 2019 11:13:22) complex          
  
 executed on             LinuxIFC date 2021.10.29  12:52:54
 running on   48 total cores
 distrk:  each k-point on   48 cores,    1 groups
 distr:  one band on NCORES_PER_BAND=   4 cores,   12 groups


--------------------------------------------------------------------------------------------------------


 INCAR:
 POTCAR:    PAW_PBE Pt 04Feb2005                  
 POTCAR:    PAW_PBE Fe 06Sep2000                  
 POTCAR:    PAW_PBE Co 02Aug2007                  
 POTCAR:    PAW_PBE Cu 22Jun2005                  
 POTCAR:    PAW_PBE Ni 02Aug2007                  
 POTCAR:    PAW_PBE H 15Jun2001                   
 POTCAR:    PAW_PBE Pt 04Feb2005                  
   VRHFIN =Pt: s1d9                                                             
   LEXCH  = PE                                                                  
   EATOM  =   729.1176 eV,   53.5886 Ry                                         
                                                                                
   TITEL  = PAW_PBE Pt 04Feb2005                                                
   LULTRA =        F    use ultrasoft PP ?                                      
   IUNSCR =        1    unscreen: 0-lin 1-nonlin 2-no                           
   RPACOR =    2.330    partial core radius                                     
   POMASS =  195.080; ZVAL   =   10.000    mass and valenz                      
   RCORE  =    2.600    outmost cutoff radius                                   
   RWIGS  =    2.750; RWIGS  =    1.455    wigner-seitz radius (au A)           
   ENMAX  =  230.283; ENMIN  =  172.712 eV                                      
   ICORE  =        3    local potential                                         
   LCOR   =        T    correct aug charges                                     
   LPAW   =        T    paw PP                                                  
   EAUG   =  358.966                                                            
   DEXC   =    0.000                                                            
   RMAX   =    2.658    core radius for proj-oper                               
   RAUG   =    1.300    factor for augmentation sphere                          
   RDEP   =    2.761    radius for radial grids                                 
   RDEPT  =    2.203    core radius for aug-charge                              
                                                                                
   Atomic configuration                                                         
   16 entries                                                                   
     n  l   j            E        occ.                                          
     1  0  0.50    -78401.1885   2.0000                                         
     2  0  0.50    -13770.7750   2.0000                                         
     2  1  1.50    -11931.0468   6.0000                                         
     3  0  0.50     -3234.7234   2.0000                                         
     3  1  1.50     -2699.2216   6.0000                                         
     3  2  2.50     -2119.5714  10.0000                                         
     4  0  0.50      -695.1528   2.0000                                         
     4  1  1.50      -519.6034   6.0000                                         
     4  2  2.50      -306.6786  10.0000                                         
     4  3  3.50       -70.1041  14.0000                                         
     5  0  0.50      -101.7747   2.0000                                         
     5  1  1.50       -55.9873   6.0000                                         
     5  2  2.50        -6.1423   9.0000                                         
     6  0  0.50        -5.6573   1.0000                                         
     6  1  1.50        -6.8029   0.0000                                         
     5  3  2.50        -1.3606   0.0000                                         
   Description                                                                  
     l       E           TYP  RCUT    TYP  RCUT                                 
     2     -6.1423404     23  2.500                                             
     2     -7.5029230     23  2.500                                             
     0     -5.6573207     23  2.500                                             
     0      0.7416693     23  2.500                                             
     1     -2.7211652     23  2.600                                             
     1     20.4087390     23  2.600                                             
     3     -1.3605826     23  2.500                                             
  local pseudopotential read in
  partial core-charges read in
  partial kinetic energy density read in
  atomic valenz-charges read in
  non local Contribution for L=           2  read in
    real space projection operators read in
  non local Contribution for L=           2  read in
    real space projection operators read in
  non local Contribution for L=           0  read in
    real space projection operators read in
  non local Contribution for L=           0  read in
    real space projection operators read in
  non local Contribution for L=           1  read in
    real space projection operators read in
  non local Contribution for L=           1  read in
    real space projection operators read in
    PAW grid and wavefunctions read in
 
   number of l-projection  operators is LMAX  =           6
   number of lm-projection operators is LMMAX =          18
 
 POTCAR:    PAW_PBE Fe 06Sep2000                  
   VRHFIN =Fe:  d7 s1                                                           
   LEXCH  = PE                                                                  
   EATOM  =   594.3153 eV,   43.6809 Ry                                         
                                                                                
   TITEL  = PAW_PBE Fe 06Sep2000                                                
   LULTRA =        F    use ultrasoft PP ?                                      
   IUNSCR =        1    unscreen: 0-lin 1-nonlin 2-no                           
   RPACOR =    2.000    partial core radius                                     
   POMASS =   55.847; ZVAL   =    8.000    mass and valenz                      
   RCORE  =    2.300    outmost cutoff radius                                   
   RWIGS  =    2.460; RWIGS  =    1.302    wigner-seitz radius (au A)           
   ENMAX  =  267.882; ENMIN  =  200.911 eV                                      
   RCLOC  =    1.701    cutoff for local pot                                    
   LCOR   =        T    correct aug charges                                     
   LPAW   =        T    paw PP                                                  
   EAUG   =  511.368                                                            
   DEXC   =    0.000                                                            
   RMAX   =    2.356    core radius for proj-oper                               
   RAUG   =    1.300    factor for augmentation sphere                          
   RDEP   =    2.442    radius for radial grids                                 
   RDEPT  =    1.890    core radius for aug-charge                              
                                                                                
   Atomic configuration                                                         
    9 entries                                                                   
     n  l   j            E        occ.                                          
     1  0  0.50     -6993.8440   2.0000                                         
     2  0  0.50      -814.6047   2.0000                                         
     2  1  1.50      -693.3689   6.0000                                         
     3  0  0.50       -89.4732   2.0000                                         
     3  1  1.50       -55.6373   6.0000                                         
     3  2  2.50        -3.8151   7.0000                                         
     4  0  0.50        -4.2551   1.0000                                         
     4  1  1.50        -3.4015   0.0000                                         
     4  3  2.50        -1.3606   0.0000                                         
   Description                                                                  
     l       E           TYP  RCUT    TYP  RCUT                                 
     2     -3.8151135     23  2.300                                             
     2     -5.1756961     23  2.300                                             
     0     -4.2550963     23  2.300                                             
     0      7.2035603     23  2.300                                             
     1     -2.7211652     23  2.300                                             
     1     18.4316424     23  2.300                                             
  local pseudopotential read in
  partial core-charges read in
  partial kinetic energy density read in
  atomic valenz-charges read in
  non local Contribution for L=           2  read in
    real space projection operators read in
  non local Contribution for L=           2  read in
    real space projection operators read in
  non local Contribution for L=           0  read in
    real space projection operators read in
  non local Contribution for L=           0  read in
    real space projection operators read in
  non local Contribution for L=           1  read in
    real space projection operators read in
  non local Contribution for L=           1  read in
    real space projection operators read in
    PAW grid and wavefunctions read in
 
   number of l-projection  operators is LMAX  =           6
   number of lm-projection operators is LMMAX =          18
 
 POTCAR:    PAW_PBE Co 02Aug2007                  
   VRHFIN =Co: d8 s1                                                            
   LEXCH  = PE                                                                  
   EATOM  =   813.3670 eV,   59.7808 Ry                                         
                                                                                
   TITEL  = PAW_PBE Co 02Aug2007                                                
   LULTRA =        F    use ultrasoft PP ?                                      
   IUNSCR =        1    unscreen: 0-lin 1-nonlin 2-no                           
   RPACOR =    2.000    partial core radius                                     
   POMASS =   58.933; ZVAL   =    9.000    mass and valenz                      
   RCORE  =    2.300    outmost cutoff radius                                   
   RWIGS  =    2.460; RWIGS  =    1.302    wigner-seitz radius (au A)           
   ENMAX  =  267.968; ENMIN  =  200.976 eV                                      
   RCLOC  =    1.203    cutoff for local pot                                    
   LCOR   =        T    correct aug charges                                     
   LPAW   =        T    paw PP                                                  
   EAUG   =  477.818                                                            
   DEXC   =    0.000                                                            
   RMAX   =    2.360    core radius for proj-oper                               
   RAUG   =    1.300    factor for augmentation sphere                          
   RDEP   =    2.393    radius for radial grids                                 
   RDEPT  =    1.864    core radius for aug-charge                              
                                                                                
   Atomic configuration                                                         
    9 entries                                                                   
     n  l   j            E        occ.                                          
     1  0  0.50     -7587.6674   2.0000                                         
     2  0  0.50      -893.6084   2.0000                                         
     2  1  1.50      -764.5805   6.0000                                         
     3  0  0.50       -97.5973   2.0000                                         
     3  1  1.50       -60.9648   6.0000                                         
     3  2  2.50        -4.2382   8.0000                                         
     4  0  0.50        -4.3746   1.0000                                         
     4  1  1.50        -4.0817   0.0000                                         
     4  3  2.50        -1.3606   0.0000                                         
   Description                                                                  
     l       E           TYP  RCUT    TYP  RCUT                                 
     2     -4.2382362     23  2.300                                             
     2     -5.5988188     23  2.300                                             
     0     -4.3745797     23  2.300                                             
     0      5.7660125     23  2.300                                             
     1     -2.7211652     23  2.300                                             
     1     16.9860234     23  2.300                                             
  local pseudopotential read in
  partial core-charges read in
  partial kinetic energy density read in
  atomic valenz-charges read in
  non local Contribution for L=           2  read in
    real space projection operators read in
  non local Contribution for L=           2  read in
    real space projection operators read in
  non local Contribution for L=           0  read in
    real space projection operators read in
  non local Contribution for L=           0  read in
    real space projection operators read in
  non local Contribution for L=           1  read in
    real space projection operators read in
  non local Contribution for L=           1  read in
    real space projection operators read in
    PAW grid and wavefunctions read in
 
   number of l-projection  operators is LMAX  =           6
   number of lm-projection operators is LMMAX =          18
 
 POTCAR:    PAW_PBE Cu 22Jun2005                  
   VRHFIN =Cu: d10 p1                                                           
   LEXCH  = PE                                                                  
   EATOM  =  1390.9808 eV,  102.2342 Ry                                         
                                                                                
   TITEL  = PAW_PBE Cu 22Jun2005                                                
   LULTRA =        F    use ultrasoft PP ?                                      
   IUNSCR =        1    unscreen: 0-lin 1-nonlin 2-no                           
   RPACOR =    2.000    partial core radius                                     
   POMASS =   63.546; ZVAL   =   11.000    mass and valenz                      
   RCORE  =    2.300    outmost cutoff radius                                   
   RWIGS  =    2.200; RWIGS  =    1.164    wigner-seitz radius (au A)           
   ENMAX  =  295.446; ENMIN  =  221.585 eV                                      
   ICORE  =        3    local potential                                         
   LCOR   =        T    correct aug charges                                     
   LPAW   =        T    paw PP                                                  
   EAUG   =  586.980                                                            
   DEXC   =    0.000                                                            
   RMAX   =    2.344    core radius for proj-oper                               
   RAUG   =    1.300    factor for augmentation sphere                          
   RDEP   =    2.302    radius for radial grids                                 
   RDEPT  =    1.771    core radius for aug-charge                              
                                                                                
   Atomic configuration                                                         
    9 entries                                                                   
     n  l   j            E        occ.                                          
     1  0  0.50     -8850.2468   2.0000                                         
     2  0  0.50     -1062.3498   2.0000                                         
     2  1  1.50      -916.8226   6.0000                                         
     3  0  0.50      -114.6929   2.0000                                         
     3  1  1.50       -72.1325   6.0000                                         
     3  2  2.50        -5.0394  10.0000                                         
     4  0  0.50        -4.6097   1.0000                                         
     4  1  0.50        -4.0817   0.0000                                         
     4  3  2.50        -1.3606   0.0000                                         
   Description                                                                  
     l       E           TYP  RCUT    TYP  RCUT                                 
     2     -5.0393973     23  2.200                                             
     2     10.8846608     23  2.200                                             
     0     -4.6097109     23  2.200                                             
     0      8.2520465     23  2.200                                             
     1     -2.7211652     23  2.200                                             
     1     21.7055443     23  2.200                                             
     3      2.7211652     23  2.300                                             
  local pseudopotential read in
  partial core-charges read in
  partial kinetic energy density read in
  atomic valenz-charges read in
  non local Contribution for L=           2  read in
    real space projection operators read in
  non local Contribution for L=           2  read in
    real space projection operators read in
  non local Contribution for L=           0  read in
    real space projection operators read in
  non local Contribution for L=           0  read in
    real space projection operators read in
  non local Contribution for L=           1  read in
    real space projection operators read in
  non local Contribution for L=           1  read in
    real space projection operators read in
    PAW grid and wavefunctions read in
 
   number of l-projection  operators is LMAX  =           6
   number of lm-projection operators is LMMAX =          18
 
 POTCAR:    PAW_PBE Ni 02Aug2007                  
   VRHFIN =Ni:                                                                  
   LEXCH  = PE                                                                  
   EATOM  =  1077.6739 eV,   79.2068 Ry                                         
                                                                                
   TITEL  = PAW_PBE Ni 02Aug2007                                                
   LULTRA =        F    use ultrasoft PP ?                                      
   IUNSCR =        1    unscreen: 0-lin 1-nonlin 2-no                           
   RPACOR =    2.000    partial core radius                                     
   POMASS =   58.690; ZVAL   =   10.000    mass and valenz                      
   RCORE  =    2.300    outmost cutoff radius                                   
   RWIGS  =    2.430; RWIGS  =    1.286    wigner-seitz radius (au A)           
   ENMAX  =  269.532; ENMIN  =  202.149 eV                                      
   RCLOC  =    1.201    cutoff for local pot                                    
   LCOR   =        T    correct aug charges                                     
   LPAW   =        T    paw PP                                                  
   EAUG   =  544.565                                                            
   DEXC   =    0.000                                                            
   RMAX   =    2.357    core radius for proj-oper                               
   RAUG   =    1.300    factor for augmentation sphere                          
   RDEP   =    2.390    radius for radial grids                                 
   RDEPT  =    1.838    core radius for aug-charge                              
                                                                                
   Atomic configuration                                                         
    9 entries                                                                   
     n  l   j            E        occ.                                          
     1  0  0.50     -8206.4253   2.0000                                         
     2  0  0.50      -976.1748   2.0000                                         
     2  1  1.50      -839.0571   6.0000                                         
     3  0  0.50      -105.9991   2.0000                                         
     3  1  1.50       -66.4603   6.0000                                         
     3  2  2.50        -4.6458   9.0000                                         
     4  0  0.50        -4.4926   1.0000                                         
     4  1  1.50        -4.0817   0.0000                                         
     4  3  2.50        -1.3606   0.0000                                         
   Description                                                                  
     l       E           TYP  RCUT    TYP  RCUT                                 
     2     -4.6457903     23  2.300                                             
     2     -6.0063729     23  2.300                                             
     0     -4.4925590     23  2.300                                             
     0      5.0102601     23  2.300                                             
     1     -2.7211652     23  2.300                                             
     1     16.5183231     23  2.300                                             
  local pseudopotential read in
  partial core-charges read in
  partial kinetic energy density read in
  atomic valenz-charges read in
  non local Contribution for L=           2  read in
    real space projection operators read in
  non local Contribution for L=           2  read in
    real space projection operators read in
  non local Contribution for L=           0  read in
    real space projection operators read in
  non local Contribution for L=           0  read in
    real space projection operators read in
  non local Contribution for L=           1  read in
    real space projection operators read in
  non local Contribution for L=           1  read in
    real space projection operators read in
    PAW grid and wavefunctions read in
 
   number of l-projection  operators is LMAX  =           6
   number of lm-projection operators is LMMAX =          18
 
 POTCAR:    PAW_PBE H 15Jun2001                   
   VRHFIN =H: ultrasoft test                                                    
   LEXCH  = PE                                                                  
   EATOM  =    12.4884 eV,    0.9179 Ry                                         
                                                                                
   TITEL  = PAW_PBE H 15Jun2001                                                 
   LULTRA =        F    use ultrasoft PP ?                                      
   IUNSCR =        0    unscreen: 0-lin 1-nonlin 2-no                           
   RPACOR =    0.000    partial core radius                                     
   POMASS =    1.000; ZVAL   =    1.000    mass and valenz                      
   RCORE  =    1.100    outmost cutoff radius                                   
   RWIGS  =    0.700; RWIGS  =    0.370    wigner-seitz radius (au A)           
   ENMAX  =  250.000; ENMIN  =  200.000 eV                                      
   RCLOC  =    0.701    cutoff for local pot                                    
   LCOR   =        T    correct aug charges                                     
   LPAW   =        T    paw PP                                                  
   EAUG   =  400.000                                                            
   RMAX   =    1.123    core radius for proj-oper                               
   RAUG   =    1.200    factor for augmentation sphere                          
   RDEP   =    1.112    radius for radial grids                                 
   RDEPT  =    0.926    core radius for aug-charge                              
                                                                                
   Atomic configuration                                                         
    2 entries                                                                   
     n  l   j            E        occ.                                          
     1  0  0.50        -6.4927   1.0000                                         
     2  1  0.50        -3.4015   0.0000                                         
   Description                                                                  
     l       E           TYP  RCUT    TYP  RCUT                                 
     0     -6.4927494     23  1.100                                             
     0      6.8029130     23  1.100                                             
     1     -4.0817478     23  1.100                                             
  local pseudopotential read in
  atomic valenz-charges read in
  non local Contribution for L=           0  read in
    real space projection operators read in
  non local Contribution for L=           0  read in
    real space projection operators read in
  non local Contribution for L=           1  read in
    real space projection operators read in
    PAW grid and wavefunctions read in
 
   number of l-projection  operators is LMAX  =           3
   number of lm-projection operators is LMMAX =           5
 
 Optimization of the real space projectors (new method)

 maximal supplied QI-value         = 14.36
 optimisation between [QCUT,QGAM] = [ 11.92, 23.98] = [ 39.79,161.09] Ry 
 Optimized for a Real-space Cutoff    1.49 Angstroem

   l    n(q)    QCUT    max X(q) W(low)/X(q) W(high)/X(q)  e(spline) 
   2     10    11.920    66.195    0.79E-04    0.18E-03    0.24E-06
   2     10    11.920    64.643    0.81E-04    0.19E-03    0.24E-06
   0     11    11.920    95.520    0.28E-04    0.54E-04    0.18E-06
   0     11    11.920    63.403    0.27E-04    0.52E-04    0.17E-06
   1     10    11.920    19.961    0.18E-04    0.11E-03    0.23E-06
   1     10    11.920    13.289    0.25E-04    0.87E-04    0.19E-06
 Optimization of the real space projectors (new method)

 maximal supplied QI-value         = 16.25
 optimisation between [QCUT,QGAM] = [ 11.86, 23.89] = [ 39.41,159.82] Ry 
 Optimized for a Real-space Cutoff    1.49 Angstroem

   l    n(q)    QCUT    max X(q) W(low)/X(q) W(high)/X(q)  e(spline) 
   2     10    11.864    80.901    0.13E-03    0.23E-03    0.37E-06
   2     10    11.864    75.754    0.13E-03    0.23E-03    0.38E-06
   0     11    11.864    58.752    0.44E-04    0.11E-04    0.20E-06
   0     11    11.864    30.679    0.36E-04    0.10E-04    0.18E-06
   1     10    11.864    17.977    0.31E-04    0.45E-04    0.10E-06
   1     10    11.864    13.559    0.25E-04    0.37E-04    0.89E-07
 Optimization of the real space projectors (new method)

 maximal supplied QI-value         = 16.25
 optimisation between [QCUT,QGAM] = [ 11.86, 23.89] = [ 39.41,159.82] Ry 
 Optimized for a Real-space Cutoff    1.33 Angstroem

   l    n(q)    QCUT    max X(q) W(low)/X(q) W(high)/X(q)  e(spline) 
   2      9    11.864    65.824    0.22E-03    0.53E-03    0.26E-06
   2      9    11.864    61.429    0.22E-03    0.53E-03    0.26E-06
   0      9    11.864    56.174    0.21E-03    0.32E-04    0.15E-06
   0      9    11.864    31.263    0.19E-03    0.30E-04    0.14E-06
   1      9    11.864    19.828    0.63E-04    0.30E-03    0.16E-06
   1      9    11.864    15.139    0.49E-04    0.25E-03    0.13E-06
 Optimization of the real space projectors (new method)

 maximal supplied QI-value         = 16.25
 optimisation between [QCUT,QGAM] = [ 11.86, 23.89] = [ 39.41,159.82] Ry 
 Optimized for a Real-space Cutoff    1.49 Angstroem

   l    n(q)    QCUT    max X(q) W(low)/X(q) W(high)/X(q)  e(spline) 
   2     10    11.864     4.610    0.10E-03    0.20E-03    0.29E-06
   2     10    11.864     8.522    0.17E-03    0.33E-03    0.50E-06
   0     11    11.864    51.609    0.52E-04    0.55E-04    0.33E-06
   0     11    11.864    27.747    0.46E-04    0.52E-04    0.31E-06
   1     10    11.864    20.408    0.54E-04    0.25E-04    0.21E-06
   1     10    11.864    13.425    0.48E-04    0.22E-04    0.18E-06
 Optimization of the real space projectors (new method)

 maximal supplied QI-value         = 16.25
 optimisation between [QCUT,QGAM] = [ 11.86, 23.89] = [ 39.41,159.82] Ry 
 Optimized for a Real-space Cutoff    1.33 Angstroem

   l    n(q)    QCUT    max X(q) W(low)/X(q) W(high)/X(q)  e(spline) 
   2      9    11.864    60.317    0.21E-03    0.51E-03    0.25E-06
   2      9    11.864    55.921    0.21E-03    0.51E-03    0.26E-06
   0      9    11.864    51.690    0.22E-03    0.30E-04    0.17E-06
   0      9    11.864    30.015    0.20E-03    0.28E-04    0.15E-06
   1      9    11.864    18.849    0.76E-04    0.33E-03    0.17E-06
   1      9    11.864    14.624    0.60E-04    0.28E-03    0.15E-06
 Optimization of the real space projectors (new method)

 maximal supplied QI-value         = 34.20
 optimisation between [QCUT,QGAM] = [ 11.97, 23.94] = [ 40.13,160.53] Ry 
 Optimized for a Real-space Cutoff    1.18 Angstroem

   l    n(q)    QCUT    max X(q) W(low)/X(q) W(high)/X(q)  e(spline) 
   0      8    11.971    19.460    0.15E-03    0.31E-03    0.25E-06
   0      8    11.971    12.209    0.13E-03    0.29E-03    0.25E-06
   1      8    11.971     4.655    0.22E-03    0.24E-03    0.21E-06
  PAW_PBE Pt 04Feb2005                  :
 energy of atom  1       EATOM= -729.1176
 kinetic energy error for atom=    0.0021 (will be added to EATOM!!)
  PAW_PBE Fe 06Sep2000                  :
 energy of atom  2       EATOM= -594.3153
 kinetic energy error for atom=    0.0024 (will be added to EATOM!!)
  PAW_PBE Co 02Aug2007                  :
 energy of atom  3       EATOM= -813.3670
 kinetic energy error for atom=    0.0026 (will be added to EATOM!!)
  PAW_PBE Cu 22Jun2005                  :
 energy of atom  4       EATOM=-1390.9808
 kinetic energy error for atom=    0.0036 (will be added to EATOM!!)
  PAW_PBE Ni 02Aug2007                  :
 energy of atom  5       EATOM=-1077.6739
 kinetic energy error for atom=    0.0027 (will be added to EATOM!!)
  PAW_PBE H 15Jun2001                   :
 energy of atom  6       EATOM=  -12.4884
 kinetic energy error for atom=    0.0008 (will be added to EATOM!!)
 
 
 POSCAR: 11.26                                   
  positions in direct lattice
  velocities in cartesian coordinates
 exchange correlation table for  LEXCH =        8
   RHO(1)=    0.500       N(1)  =     2000
   RHO(2)=  100.500       N(2)  =     4000
 


--------------------------------------------------------------------------------------------------------


 ion  position               nearest neighbor table
   1  0.782  0.872  0.305-  49 2.53  59 2.60  28 2.68  61 2.76   4 2.77  19 2.79  33 2.79   2 2.80
                            11 2.80  29 2.83  12 2.86  60 2.87
   2  0.032  0.871  0.299-  79 2.51  77 2.54  28 2.76  30 2.78  33 2.78   1 2.80   4 2.82  60 2.83
                             6 2.88  22 2.96  16 2.97  52 3.10
   3  0.277  0.362  0.314-  64 2.55  31 2.66  68 2.66  39 2.71   5 2.72  43 2.75  13 2.76  25 2.77
                            19 2.81  30 2.82  33 2.86  18 2.96
   4  0.867  0.959  0.405-  60 2.64  17 2.75   9 2.77  11 2.77   1 2.77   6 2.80  12 2.82   2 2.82
                            16 2.84
   5  0.109  0.464  0.413-  39 2.61  33 2.68  16 2.72  12 2.72   3 2.72   7 2.76  10 2.80  25 2.84
                            13 3.01
   6  0.120  0.952  0.407-  52 2.65  22 2.71   4 2.80  14 2.82   9 2.82  16 2.83   8 2.84   2 2.88
                            10 2.89
   7  0.872  0.448  0.416-  39 2.61  75 2.63  29 2.74   9 2.74   5 2.76  10 2.77  15 2.78  27 2.86
                            12 2.90
   8  0.373  0.953  0.414-  52 2.54  43 2.57  61 2.71  13 2.75  27 2.78  14 2.81  10 2.82  11 2.82
                             6 2.84
   9  0.870  0.205  0.407-  75 2.61  60 2.65   7 2.74  22 2.76  17 2.77   4 2.77  15 2.79   6 2.82
                            10 2.89
  10  0.125  0.207  0.413-  39 2.64  43 2.65  22 2.72  13 2.75   7 2.77   5 2.80   8 2.82   9 2.89
                             6 2.89
  11  0.625  0.949  0.412-  81 1.77  61 2.66  12 2.72  19 2.74   4 2.77  13 2.78   1 2.80   8 2.82
                            27 2.82  17 2.84
  12  0.868  0.708  0.412-  29 2.67  33 2.69   5 2.72  11 2.72  16 2.75   4 2.82  27 2.85   1 2.86
                             7 2.90
  13  0.376  0.196  0.415-  43 2.65  19 2.74   8 2.75  10 2.75   3 2.76  11 2.78  17 2.82  25 2.83
                             5 3.01
  14  0.373  0.703  0.407-  44 2.52  52 2.63  27 2.74  15 2.79   8 2.81   6 2.82  30 2.84  25 2.84
                            16 2.89
  15  0.621  0.454  0.412-  44 2.59  75 2.60  18 2.76  27 2.77   7 2.78   9 2.79  14 2.79  17 2.80
                            25 2.86
  16  0.116  0.703  0.412-  33 2.67   5 2.72  30 2.73  12 2.75  25 2.82   6 2.83   4 2.84  14 2.89
                             2 2.97
  17  0.623  0.204  0.410-  81 1.75  60 2.69  18 2.74   4 2.75   9 2.77  19 2.77  15 2.80  13 2.82
                            25 2.83  11 2.84
  18  0.536  0.373  0.310-  67 2.53  68 2.63  26 2.68  17 2.74  15 2.76  44 2.76  25 2.77  60 2.78
                            75 2.83  30 2.87  19 2.90   3 2.96
  19  0.531  0.117  0.311-  80 2.52  68 2.54  59 2.57  43 2.68  13 2.74  11 2.74  61 2.75  17 2.77
                             1 2.79   3 2.81  60 2.89  18 2.90
  20  0.557  0.109  0.059-  37 2.52  48 2.53  57 2.55  62 2.63  34 2.71  63 2.75  56 2.89  45 3.25

  21  0.093  0.426  0.123-  47 2.48  40 2.50  36 2.53  70 2.60  42 2.61  69 2.66  31 2.74  57 2.74
                            64 2.76  50 2.79
  22  0.051  0.124  0.311-  77 2.51  65 2.54  55 2.56  43 2.69   6 2.71  10 2.72  39 2.72   9 2.76
                            52 2.76  75 2.96   2 2.96  60 2.99  31 3.31
  23  0.024  0.112  0.042-  40 2.53  41 2.56  70 2.59  62 2.65  24 2.72  45 2.74  35 2.80  76 2.81
                            53 2.86
  24  0.129  0.948  0.141-  79 2.49  35 2.53  77 2.57  55 2.58  70 2.60  53 2.61  58 2.68  73 2.68
                            23 2.72  66 2.78  38 2.80  41 2.95
  25  0.367  0.452  0.412-   3 2.77  18 2.77  30 2.79  16 2.82  17 2.83  13 2.83   5 2.84  14 2.84
                            15 2.86
  26  0.446  0.559  0.220-  73 2.48  74 2.49  51 2.53  79 2.55  30 2.60  44 2.62  18 2.68  32 2.72
                            78 2.74  67 2.97  58 3.06  68 3.13  64 3.14
  27  0.617  0.702  0.413-  44 2.61  61 2.67  14 2.74  29 2.75  15 2.77   8 2.78  11 2.82  12 2.85
                             7 2.86
  28  0.950  0.757  0.209-  58 2.57  50 2.57  66 2.61  42 2.62  33 2.63   1 2.68  49 2.69   2 2.76
                            64 2.78
  29  0.795  0.615  0.316-  42 2.55  49 2.61  32 2.64  39 2.65  12 2.67  75 2.68  33 2.72   7 2.74
                            27 2.75   1 2.83  61 2.85  44 2.86
  30  0.271  0.617  0.308-  79 2.52  26 2.60  33 2.64  64 2.68  16 2.73   2 2.78  25 2.79   3 2.82
                            14 2.84  18 2.87  44 3.02  52 3.16
  31  0.189  0.266  0.225-  70 2.50  55 2.57  57 2.59  43 2.61  39 2.62  65 2.65   3 2.66  21 2.74
                            64 2.76  42 2.84  80 2.85  68 3.01  22 3.31
  32  0.693  0.549  0.221-  69 2.52  54 2.57  49 2.58  51 2.59  44 2.62  29 2.64  78 2.67  75 2.68
                            42 2.71  26 2.72  67 2.75  65 2.79  50 3.30
  33  0.032  0.625  0.314-  28 2.63  30 2.64  64 2.67  16 2.67   5 2.68  12 2.69  42 2.72  29 2.72
                             2 2.78   1 2.79  39 2.81   3 2.86
  34  0.791  0.861  0.064-  48 2.37  50 2.40  66 2.51  36 2.70  20 2.71  62 2.82  63 2.83  35 2.86

  35  0.050  0.852  0.056-  36 2.39  24 2.53  66 2.57  58 2.66  72 2.69  23 2.80  34 2.86  53 2.90
                            62 2.93
  36  0.048  0.640  0.066-  35 2.39  47 2.52  21 2.53  58 2.57  50 2.59  34 2.70  72 2.75
  37  0.628  0.231  0.134-  67 2.48  51 2.49  74 2.50  56 2.50  20 2.52  41 2.53  59 2.53  62 2.56
                            68 2.61  66 2.82
  38  0.378  0.948  0.136-  45 2.38  80 2.45  55 2.46  53 2.47  73 2.51  63 2.51  78 2.52  54 2.58
                            48 2.62  57 2.79  24 2.80  70 2.85
  39  0.029  0.377  0.320-   7 2.61  42 2.61   5 2.61  31 2.62  10 2.64  65 2.65  29 2.65   3 2.71
                            22 2.72  75 2.73  33 2.81  43 3.01
  40  0.980  0.356  0.044-  69 2.33  76 2.41  21 2.50  23 2.53  71 2.54  70 2.64  45 3.11
  41  0.864  0.208  0.134-  77 2.39  76 2.41  69 2.49  67 2.50  37 2.53  23 2.56  65 2.57  62 2.59
                            66 2.61  70 2.67  51 2.84  24 2.95
  42  0.945  0.527  0.221-  50 2.47  29 2.55  65 2.61  21 2.61  39 2.61  28 2.62  69 2.65  32 2.71
                            64 2.71  33 2.72  49 2.75  31 2.84
  43  0.298  0.108  0.320-  55 2.52  52 2.53   8 2.57  31 2.61  80 2.62  13 2.65  10 2.65  19 2.68
                            22 2.69  61 2.71   3 2.75  39 3.01
  44  0.539  0.617  0.319-  14 2.52  15 2.59  27 2.61  32 2.62  26 2.62  78 2.65  75 2.69  18 2.76
                            61 2.82  52 2.83  29 2.86  30 3.02
  45  0.273  0.099  0.052-  38 2.38  53 2.39  70 2.41  57 2.59  63 2.73  23 2.74  40 3.11  20 3.25

  46  0.533  0.620  0.050-  51 2.36  73 2.40  54 2.41  71 2.45  72 2.60  56 2.76  53 2.78  76 2.82
                            63 2.89
  47  0.277  0.422  0.059-  74 2.25  72 2.41  21 2.48  36 2.52  56 2.59  57 2.67
  48  0.621  0.927  0.141-  49 2.29  34 2.37  80 2.44  54 2.48  63 2.51  20 2.53  38 2.62  59 2.63
                            50 2.71
  49  0.703  0.775  0.220-  48 2.29  50 2.43  54 2.51   1 2.53  32 2.58  78 2.59  29 2.61  61 2.64
                            28 2.69  42 2.75  80 2.80
  50  0.841  0.670  0.130-  71 2.37  34 2.40  49 2.43  54 2.44  42 2.47  28 2.57  69 2.58  36 2.59
                            48 2.71  21 2.79  32 3.30
  51  0.611  0.461  0.131-  46 2.36  76 2.42  37 2.49  26 2.53  56 2.54  74 2.57  69 2.58  32 2.59
                            67 2.64  73 2.79  54 2.82  41 2.84
  52  0.301  0.882  0.318-  55 2.37  79 2.38  43 2.53  78 2.53   8 2.54  61 2.61  14 2.63   6 2.65
                            22 2.76  44 2.83   2 3.10  30 3.16
  53  0.294  0.876  0.048-  45 2.39  73 2.42  38 2.47  24 2.61  63 2.70  46 2.78  72 2.80  23 2.86
                            35 2.90
  54  0.604  0.716  0.131-  46 2.41  50 2.44  71 2.46  63 2.47  73 2.47  48 2.48  49 2.51  78 2.54
                            32 2.57  38 2.58  51 2.82  69 2.98
  55  0.236  0.017  0.228-  52 2.37  38 2.46  79 2.46  80 2.51  43 2.52  78 2.53  22 2.56  31 2.57
                            24 2.58  70 2.67  77 3.03
  56  0.524  0.379  0.043-  74 2.46  37 2.50  51 2.54  76 2.59  47 2.59  72 2.66  46 2.76  20 2.89

  57  0.355  0.208  0.134-  68 2.51  20 2.55  31 2.59  45 2.59  80 2.65  47 2.67  21 2.74  38 2.79
                            74 2.84  70 2.86
  58  0.173  0.691  0.152-  79 2.43  72 2.43  64 2.43  73 2.56  36 2.57  28 2.57  35 2.66  24 2.68
                            74 2.68  26 3.06
  59  0.692  0.057  0.219-  66 2.44  37 2.53  60 2.55  19 2.57   1 2.60  68 2.60  48 2.63  80 2.85
                            77 2.89
  60  0.784  0.126  0.311-  77 2.48  67 2.49  59 2.55   4 2.64   9 2.65  17 2.69  18 2.78   2 2.83
                             1 2.87  75 2.87  19 2.89  22 2.99
  61  0.540  0.868  0.316-  78 2.43  80 2.55  52 2.61  49 2.64  11 2.66  27 2.67  43 2.71   8 2.71
                            19 2.75   1 2.76  44 2.82  29 2.85
  62  0.788  0.110  0.045-  66 2.50  37 2.56  41 2.59  76 2.62  20 2.63  23 2.65  34 2.82  35 2.93

  63  0.533  0.878  0.044-  54 2.47  48 2.51  38 2.51  53 2.70  45 2.73  20 2.75  34 2.83  46 2.89

  64  0.196  0.508  0.218-  58 2.43   3 2.55  74 2.63  33 2.67  30 2.68  42 2.71  68 2.73  31 2.76
                            21 2.76  28 2.78  26 3.14
  65  0.939  0.298  0.225-  69 2.45  75 2.53  22 2.54  77 2.55  67 2.56  41 2.57  42 2.61  70 2.62
                            39 2.65  31 2.65  32 2.79
  66  0.870  0.973  0.141-  59 2.44  77 2.46  62 2.50  34 2.51  35 2.57  41 2.61  28 2.61  24 2.78
                            37 2.82
  67  0.712  0.295  0.226-  37 2.48  60 2.49  41 2.50  18 2.53  75 2.54  65 2.56  77 2.58  51 2.64
                            32 2.75  26 2.97
  68  0.451  0.278  0.221-  74 2.41  57 2.51  19 2.54  59 2.60  37 2.61  18 2.63   3 2.66  64 2.73
                            80 2.80  31 3.01  26 3.13
  69  0.852  0.435  0.132-  40 2.33  71 2.42  65 2.45  76 2.49  41 2.49  32 2.52  51 2.58  50 2.58
                            42 2.65  21 2.66  70 2.85  54 2.98
  70  0.111  0.187  0.135-  45 2.41  31 2.50  23 2.59  24 2.60  21 2.60  65 2.62  40 2.64  41 2.67
                            55 2.67  38 2.85  69 2.85  57 2.86
  71  0.764  0.591  0.047-  50 2.37  69 2.42  46 2.45  54 2.46  40 2.54  76 2.65
  72  0.300  0.624  0.056-  47 2.41  58 2.43  73 2.46  74 2.54  46 2.60  56 2.66  35 2.69  36 2.75
                            53 2.80
  73  0.380  0.724  0.134-  46 2.40  53 2.42  72 2.46  54 2.47  26 2.48  38 2.51  78 2.53  79 2.56
                            58 2.56  24 2.68  51 2.79
  74  0.394  0.439  0.138-  47 2.25  68 2.41  56 2.46  26 2.49  37 2.50  72 2.54  51 2.57  64 2.63
                            58 2.68  57 2.84
  75  0.783  0.382  0.318-  65 2.53  67 2.54  15 2.60   9 2.61   7 2.63  32 2.68  29 2.68  44 2.69
                            39 2.73  18 2.83  60 2.87  22 2.96
  76  0.767  0.354  0.047-  41 2.41  40 2.41  51 2.42  69 2.49  56 2.59  62 2.62  71 2.65  23 2.81
                            46 2.82
  77  0.944  0.068  0.223-  41 2.39  66 2.46  60 2.48  22 2.51   2 2.54  65 2.55  24 2.57  67 2.58
                            59 2.89  55 3.03
  78  0.463  0.794  0.228-  61 2.43  38 2.52  79 2.52  55 2.53  52 2.53  73 2.53  54 2.54  80 2.57
                            49 2.59  44 2.65  32 2.67  26 2.74
  79  0.236  0.798  0.232-  52 2.38  58 2.43  55 2.46  24 2.49   2 2.51  30 2.52  78 2.52  26 2.55
                            73 2.56
  80  0.455  0.026  0.224-  48 2.44  38 2.45  55 2.51  19 2.52  61 2.55  78 2.57  43 2.62  57 2.65
                            49 2.80  68 2.80  31 2.85  59 2.85
  81  0.624  0.079  0.458-  17 1.75  11 1.77
 
  LATTYP: Found a hexagonal cell.
 ALAT       =    11.2227001190
 C/A-ratio  =     1.9603125600
  
  Lattice vectors:
  
 A1 = (   5.6113500595,  -9.7191434021,   0.0000000000)
 A2 = ( -11.2227001190,   0.0000000000,   0.0000000000)
 A3 = (   0.0000000000,   0.0000000000, -22.0000000000)


Analysis of symmetry for initial positions (statically):
=====================================================================
 Subroutine PRICEL returns:
 Original cell was already a primitive cell.
 

 Routine SETGRP: Setting up the symmetry group for a 
 hexagonal supercell.


 Subroutine GETGRP returns: Found  1 space group operations
 (whereof  1 operations were pure point group operations)
 out of a pool of 24 trial point group operations.


The static configuration has the point symmetry C_1 .


Analysis of symmetry for dynamics (positions and initial velocities):
=====================================================================
 Subroutine PRICEL returns:
 Original cell was already a primitive cell.
 

 Routine SETGRP: Setting up the symmetry group for a 
 hexagonal supercell.


 Subroutine GETGRP returns: Found  1 space group operations
 (whereof  1 operations were pure point group operations)
 out of a pool of 24 trial point group operations.


The dynamic configuration has the point symmetry C_1 .


Analysis of constrained symmetry for selective dynamics:
=====================================================================
 Subroutine PRICEL returns:
 Original cell was already a primitive cell.
 

 Routine SETGRP: Setting up the symmetry group for a 
 hexagonal supercell.


 Subroutine GETGRP returns: Found  1 space group operations
 (whereof  1 operations were pure point group operations)
 out of a pool of 24 trial point group operations.


The constrained configuration has the point symmetry C_1 .


Analysis of structural, dynamic, and magnetic symmetry:
=====================================================================
 Subroutine PRICEL returns:
 Original cell was already a primitive cell.
 

 Routine SETGRP: Setting up the symmetry group for a 
 hexagonal supercell.


 Subroutine GETGRP returns: Found  1 space group operations
 (whereof  1 operations were pure point group operations)
 out of a pool of 24 trial point group operations.


The magnetic configuration has the point symmetry C_1 .


 Subroutine INISYM returns: Found  1 space group operations
 (whereof  1 operations are pure point group operations),
 and found     1 'primitive' translations

 
 
 KPOINTS: mesh auto                               

Automatic generation of k-mesh.
Space group operators:
 irot       det(A)        alpha          n_x          n_y          n_z        tau_x        tau_y        tau_z
    1     1.000000     0.000000     1.000000     0.000000     0.000000     0.000000     0.000000     0.000000
 
 Subroutine IBZKPT returns following result:
 ===========================================
 
 Found      4 irreducible k-points:
 
 Following reciprocal coordinates:
            Coordinates               Weight
  0.000000  0.000000  0.000000      1.000000
  0.500000  0.000000  0.000000      1.000000
  0.000000  0.500000  0.000000      1.000000
  0.500000  0.500000  0.000000      1.000000
 
 Following cartesian coordinates:
            Coordinates               Weight
  0.000000  0.000000  0.000000      1.000000
  0.044553 -0.025722  0.000000      1.000000
  0.000000  0.051445  0.000000      1.000000
  0.044553  0.025722  0.000000      1.000000
 


--------------------------------------------------------------------------------------------------------




 Dimension of arrays:
   k-points           NKPTS =      4   k-points in BZ     NKDIM =      4   number of bands    NBANDS=    588
   number of dos      NEDOS =    301   number of ions     NIONS =     81
   non local maximal  LDIM  =      6   non local SUM 2l+1 LMDIM =     18
   total plane-waves  NPLWV = ******
   max r-space proj   IRMAX =   7929   max aug-charges    IRDMAX=  34542
   dimension x,y,z NGX =    90 NGY =   90 NGZ =  168
   dimension x,y,z NGXF=   180 NGYF=  180 NGZF=  336
   support grid    NGXF=   180 NGYF=  180 NGZF=  336
   ions per type =              32  13  10  13  12   1
   NGX,Y,Z   is equivalent  to a cutoff of  13.33, 13.33, 12.70 a.u.
   NGXF,Y,Z  is equivalent  to a cutoff of  26.66, 26.66, 25.39 a.u.

 SYSTEM =  Pt111                                   
 POSCAR =  11.26                                   

 Startparameter for this run:
   NWRITE =      2    write-flag & timer
   PREC   = accura    normal or accurate (medium, high low for compatibility)
   ISTART =      0    job   : 0-new  1-cont  2-samecut
   ICHARG =      2    charge: 1-file 2-atom 10-const
   ISPIN  =      2    spin polarized calculation?
   LNONCOLLINEAR =      F non collinear calculations
   LSORBIT =      F    spin-orbit coupling
   INIWAV =      1    electr: 0-lowe 1-rand  2-diag
   LASPH  =      F    aspherical Exc in radial PAW
   METAGGA=      F    non-selfconsistent MetaGGA calc.

 Electronic Relaxation 1
   ENCUT  =  550.0 eV  40.42 Ry    6.36 a.u.  21.46 21.46 42.07*2*pi/ulx,y,z
   ENINI  =  550.0     initial cutoff
   ENAUG  =  587.0 eV  augmentation charge cutoff
   NELM   =    200;   NELMIN=  2; NELMDL= -5     # of ELM steps 
   EDIFF  = 0.1E-04   stopping-criterion for ELM
   LREAL  =      T    real-space projection
   NLSPLINE    = F    spline interpolate recip. space projectors
   LCOMPAT=      F    compatible to vasp.4.4
   GGA_COMPAT  = T    GGA compatible to vasp.4.4-vasp.4.6
   LMAXPAW     = -100 max onsite density
   LMAXMIX     =    2 max onsite mixed and CHGCAR
   VOSKOWN=      0    Vosko Wilk Nusair interpolation
   ROPT   =   -0.00025  -0.00025  -0.00025  -0.00025
   ROPT   =   -0.00025  -0.00025
 Ionic relaxation
   EDIFFG = -.5E-01   stopping-criterion for IOM
   NSW    =    300    number of steps for IOM
   NBLOCK =      1;   KBLOCK =    300    inner block; outer block 
   IBRION =      2    ionic relax: 0-MD 1-quasi-New 2-CG
   NFREE  =      1    steps in history (QN), initial steepest desc. (CG)
   ISIF   =      2    stress and relaxation
   IWAVPR =     11    prediction:  0-non 1-charg 2-wave 3-comb
   ISYM   =      2    0-nonsym 1-usesym 2-fastsym
   LCORR  =      T    Harris-Foulkes like correction to forces

   POTIM  = 0.5000    time-step for ionic-motion
   TEIN   =    0.0    initial temperature
   TEBEG  =    0.0;   TEEND  =   0.0 temperature during run
   SMASS  =  -3.00    Nose mass-parameter (am)
   estimated Nose-frequenzy (Omega)   =  0.10E-29 period in steps =****** mass=  -0.288E-26a.u.
   SCALEE = 1.0000    scale energy and forces
   NPACO  =    256;   APACO  = 16.0  distance and # of slots for P.C.
   PSTRESS=    0.0 pullay stress

  Mass of Ions in am
   POMASS = 195.08 55.85 58.93 63.55 58.69  1.00
  Ionic Valenz
   ZVAL   =  10.00  8.00  9.00 11.00 10.00  1.00
  Atomic Wigner-Seitz radii
   RWIGS  =  -1.00 -1.00 -1.00 -1.00 -1.00 -1.00
  virtual crystal weights 
   VCA    =   1.00  1.00  1.00  1.00  1.00  1.00
   NELECT =     778.0000    total number of electrons
   NUPDOWN=      -1.0000    fix difference up-down

 DOS related values:
   EMIN   =  10.00;   EMAX   =-10.00  energy-range for DOS
   EFERMI =   0.00
   ISMEAR =     1;   SIGMA  =   0.10  broadening in eV -4-tet -1-fermi 0-gaus

 Electronic relaxation 2 (details)
   IALGO  =     68    algorithm
   LDIAG  =      T    sub-space diagonalisation (order eigenvalues)
   LSUBROT=      F    optimize rotation matrix (better conditioning)
   TURBO    =      0    0=normal 1=particle mesh
   IRESTART =      0    0=no restart 2=restart with 2 vectors
   NREBOOT  =      0    no. of reboots
   NMIN     =      0    reboot dimension
   EREF     =   0.00    reference energy to select bands
   IMIX   =      4    mixing-type and parameters
     AMIX     =   0.40;   BMIX     =  1.00
     AMIX_MAG =   1.60;   BMIX_MAG =  1.00
     AMIN     =   0.10
     WC   =   100.;   INIMIX=   1;  MIXPRE=   1;  MAXMIX= -45

 Intra band minimization:
   WEIMIN = 0.0010     energy-eigenvalue tresh-hold
   EBREAK =  0.43E-08  absolut break condition
   DEPER  =   0.30     relativ break condition  

   TIME   =   0.40     timestep for ELM

  volume/ion in A,a.u.               =      29.63       199.92
  Fermi-wavevector in a.u.,A,eV,Ry     =   1.124653  2.125287 17.209264  1.264845
  Thomas-Fermi vector in A             =   2.261326
 
 Write flags
   LWAVE        =      F    write WAVECAR
   LDOWNSAMPLE  =      F    k-point downsampling of WAVECAR
   LCHARG       =      F    write CHGCAR
   LVTOT        =      F    write LOCPOT, total local potential
   LVHAR        =      F    write LOCPOT, Hartree potential only
   LELF         =      F    write electronic localiz. function (ELF)
   LORBIT       =      0    0 simple, 1 ext, 2 COOP (PROOUT), +10 PAW based schemes


 Dipole corrections
   LMONO  =      F    monopole corrections only (constant potential shift)
   LDIPOL =      F    correct potential (dipole corrections)
   IDIPOL =      0    1-x, 2-y, 3-z, 4-all directions 
   EPSILON=  1.0000000 bulk dielectric constant

 Exchange correlation treatment:
   GGA     =    --    GGA type
   LEXCH   =     8    internal setting for exchange type
   VOSKOWN=      0    Vosko Wilk Nusair interpolation
   LHFCALC =     F    Hartree Fock is set to
   LHFONE  =     F    Hartree Fock one center treatment
   AEXX    =    0.0000 exact exchange contribution

 Linear response parameters
   LEPSILON=     F    determine dielectric tensor
   LRPA    =     F    only Hartree local field effects (RPA)
   LNABLA  =     F    use nabla operator in PAW spheres
   LVEL    =     F    velocity operator in full k-point grid
   LINTERFAST=   F  fast interpolation
   KINTER  =     0    interpolate to denser k-point grid
   CSHIFT  =0.1000    complex shift for real part using Kramers Kronig
   OMEGAMAX=  -1.0    maximum frequency
   DEG_THRESHOLD= 0.2000000E-02 threshold for treating states as degnerate
   RTIME   =   -0.100 relaxation time in fs
  (WPLASMAI=    0.000 imaginary part of plasma frequency in eV, 0.658/RTIME)
   DFIELD  = 0.0000000 0.0000000 0.0000000 field for delta impulse in time
 
 Orbital magnetization related:
   ORBITALMAG=     F  switch on orbital magnetization
   LCHIMAG   =     F  perturbation theory with respect to B field
   DQ        =  0.001000  dq finite difference perturbation B field
   LLRAUG    =     F  two centre corrections for induced B field



--------------------------------------------------------------------------------------------------------


 conjugate gradient relaxation of ions
   using selective dynamics as specified on POSCAR
 charge density and potential will be updated during run
 spin polarized calculation
 RMM-DIIS sequential band-by-band and
  variant of blocked Davidson during initial phase
 perform sub-space diagonalisation
    before iterative eigenvector-optimisation
 modified Broyden-mixing scheme, WC =      100.0
 initial mixing is a Kerker type mixing with AMIX =  0.4000 and BMIX =      1.0000
 Hartree-type preconditioning will be used
 using additional bands          199
 real space projection scheme for non local part
 use partial core corrections
 calculate Harris-corrections to forces 
   (improved forces if not selfconsistent)
 use gradient corrections 
 use of overlap-Matrix (Vanderbilt PP)
 Methfessel and Paxton  Order N= 1 SIGMA  =   0.10


--------------------------------------------------------------------------------------------------------


  energy-cutoff  :      550.00
  volume of cell :     2399.65
      direct lattice vectors                 reciprocal lattice vectors
    11.222700119  0.000000000  0.000000000     0.089105116 -0.051444863  0.000000000
     5.611350060  9.719143402  0.000000000     0.000000000  0.102889726  0.000000000
     0.000000000  0.000000000 22.000000000     0.000000000  0.000000000  0.045454545

  length of vectors
    11.222700119 11.222700119 22.000000000     0.102889726  0.102889726  0.045454545


 
 k-points in units of 2pi/SCALE and weight: mesh auto                               
   0.00000000  0.00000000  0.00000000       0.250
   0.04455256 -0.02572243  0.00000000       0.250
   0.00000000  0.05144486  0.00000000       0.250
   0.04455256  0.02572243  0.00000000       0.250
 
 k-points in reciprocal lattice and weights: mesh auto                               
   0.00000000  0.00000000  0.00000000       0.250
   0.50000000  0.00000000  0.00000000       0.250
   0.00000000  0.50000000  0.00000000       0.250
   0.50000000  0.50000000  0.00000000       0.250
 
 position of ions in fractional coordinates (direct lattice) 
   0.78225925  0.87175704  0.30464220
   0.03196270  0.87139048  0.29942724
   0.27717653  0.36248677  0.31428094
   0.86735678  0.95891499  0.40522226
   0.10882273  0.46428949  0.41268263
   0.11968522  0.95236219  0.40713384
   0.87202942  0.44754229  0.41577790
   0.37254923  0.95261175  0.41445530
   0.86954442  0.20494928  0.40693607
   0.12538286  0.20716051  0.41304440
   0.62535414  0.94949553  0.41158484
   0.86799312  0.70773560  0.41229902
   0.37616089  0.19581600  0.41537290
   0.37277378  0.70289883  0.40692387
   0.62126398  0.45394865  0.41167164
   0.11589289  0.70266968  0.41176900
   0.62305473  0.20387381  0.40968500
   0.53593348  0.37260781  0.31003437
   0.53136198  0.11681190  0.31144139
   0.55692262  0.10867087  0.05929620
   0.09307450  0.42598565  0.12293655
   0.05131508  0.12434998  0.31087712
   0.02354762  0.11168372  0.04155547
   0.12934290  0.94753793  0.14102189
   0.36742576  0.45244596  0.41183372
   0.44637331  0.55905996  0.22016864
   0.61698331  0.70245615  0.41282095
   0.94964130  0.75661422  0.20918095
   0.79462958  0.61457450  0.31570220
   0.27051356  0.61689059  0.30818739
   0.18916729  0.26577042  0.22500552
   0.69331571  0.54941703  0.22131212
   0.03166147  0.62521089  0.31360566
   0.79089767  0.86073985  0.06435510
   0.04977444  0.85151792  0.05631440
   0.04826920  0.64045736  0.06647525
   0.62777074  0.23120905  0.13428462
   0.37821722  0.94839968  0.13570486
   0.02902327  0.37683547  0.31960174
   0.98045914  0.35575072  0.04365247
   0.86400499  0.20769280  0.13403509
   0.94513991  0.52665350  0.22111509
   0.29779801  0.10833909  0.32005193
   0.53877510  0.61682189  0.31873878
   0.27311239  0.09854881  0.05169877
   0.53344737  0.62035913  0.04989301
   0.27709958  0.42151638  0.05873407
   0.62105549  0.92704305  0.14079463
   0.70256414  0.77474047  0.22043961
   0.84112258  0.67046951  0.13000222
   0.61054862  0.46109348  0.13099914
   0.30052439  0.88165828  0.31763852
   0.29403624  0.87607977  0.04755154
   0.60419350  0.71580297  0.13078218
   0.23607313  0.01744661  0.22801544
   0.52427450  0.37929122  0.04256148
   0.35517448  0.20764286  0.13362546
   0.17310396  0.69108932  0.15152403
   0.69239094  0.05686880  0.21913015
   0.78439325  0.12592361  0.31061752
   0.53956147  0.86803746  0.31600492
   0.78831858  0.11030536  0.04466843
   0.53349640  0.87793834  0.04447670
   0.19566736  0.50762622  0.21805632
   0.93892711  0.29758564  0.22543502
   0.86994429  0.97289395  0.14053585
   0.71226583  0.29537725  0.22570431
   0.45081333  0.27787635  0.22064287
   0.85205380  0.43519614  0.13248332
   0.11139628  0.18699688  0.13457379
   0.76443045  0.59137860  0.04711528
   0.29982353  0.62410945  0.05627082
   0.38008827  0.72390987  0.13437281
   0.39368214  0.43926066  0.13808739
   0.78319827  0.38200675  0.31780027
   0.76664133  0.35423705  0.04671393
   0.94422288  0.06776962  0.22339891
   0.46282378  0.79411299  0.22762031
   0.23638717  0.79795330  0.23161990
   0.45533617  0.02622849  0.22369377
   0.62384863  0.07907473  0.45785863
 
 position of ions in cartesian coordinates  (Angst):
  13.67079483  8.47273165  6.70212839
   5.24838479  8.46916908  6.58739932
   5.14470922  3.52306085  6.91418074
  15.11489266  9.31983227  8.91488961
   3.82657572  4.51249617  9.07901783
   6.68722894  9.25614473  8.95694458
  12.29784112  4.34972765  9.14711381
   9.52644632  9.25857017  9.11801651
  10.90867844  1.99193148  8.95259354
   2.56958443  2.01342274  9.08697675
  12.34611380  9.22828326  9.05486639
  13.71257869  6.87858376  9.07057844
   5.32033301  1.90316380  9.13820384
   8.12773967  6.83157448  8.95232518
   9.51952410  4.41199204  9.05677616
   5.24355669  6.82934736  9.05891792
   8.13636373  1.98147884  9.01307011
   8.10545352  3.62142872  6.82075625
   6.61878862  1.13531161  6.85171064
   6.85996581  1.05618773  1.30451636
   3.43490181  4.14021561  2.70460400
   1.27366506  1.20857532  6.83929664
   0.89096431  1.08547011  0.91422026
   6.76854352  9.20925697  3.10248152
   6.66234181  4.39738717  9.06034185
   8.14659498  5.43358394  4.84371012
  10.86594598  6.82727201  9.08206089
  14.90316679  7.35364214  4.60198092
  12.36648215  5.97313773  6.94544851
   6.49748158  5.99564807  6.78012262
   3.61429860  2.58306084  4.95012137
  10.86384554  5.33986286  4.86886670
   3.86360437  6.07651427  6.89932458
  13.70591998  8.36565399  1.41581219
   5.33676874  8.27602479  1.23891672
   4.13554117  6.22469690  1.46245553
   8.34267765  2.24715390  2.95426165
   9.56642101  9.21763246  2.98550702
   2.44027518  3.66251800  7.03123828
  12.99964072  3.45759222  0.96035424
  10.86190596  2.01859611  2.94877201
  13.56225892  5.11862090  4.86453198
   3.95002630  1.05296315  7.04114245
   9.50771487  5.99498036  7.01225325
   3.61805025  0.95780999  1.13737292
   9.46777205  6.02935935  1.09764617
   5.47508143  4.09677819  1.29214950
  12.17188259  9.01006439  3.09748181
  12.23200665  7.52981374  4.84967140
  13.20190561  6.51638927  2.86004892
   9.43936095  4.48143362  2.88198110
   8.31998834  8.56896330  6.98804752
   8.21587077  8.51474490  1.04613384
  10.79730350  6.95699172  2.87720796
   2.74727701  0.16956608  5.01633965
   8.01211124  3.68638574  0.93635256
   5.15117345  2.01811075  2.93976007
   5.82063796  6.71679623  3.33352866
   8.08960660  0.55271604  4.82086337
   9.50961167  1.22386966  6.83358535
  10.92619864  8.43658055  6.95210830
   9.46602504  1.07207359  0.98270539
  10.91368944  8.53280861  0.97848749
   5.04438452  4.93369204  4.79723900
  12.20715453  2.89227750  4.95957041
  15.22237238  9.45569577  3.09178877
   9.65101098  2.87081385  4.96549483
   6.61860428  2.70072011  4.85414311
  12.00438214  4.22973372  2.91463294
   2.29947203  1.81744949  2.96062332
  11.89740601  5.74769339  1.03653615
   6.86692611  6.06580922  1.23795794
   8.32772832  7.03578381  2.95620177
   6.88302189  4.26923733  3.03792250
  10.93317296  3.71277837  6.99160589
  10.59153387  3.44288072  1.02770640
  10.97700931  0.65866264  4.91477592
   9.65017844  7.71809802  5.00764693
   7.13049760  7.75542255  5.09563785
   5.25727851  0.25491847  4.92126292
   7.44498207  0.76853861 10.07288980
 


--------------------------------------------------------------------------------------------------------


 k-point  1 :   0.0000 0.0000 0.0000  plane waves:   70321
 k-point  2 :   0.5000 0.0000 0.0000  plane waves:   70264
 k-point  3 :   0.0000 0.5000 0.0000  plane waves:   70264
 k-point  4 :   0.5000 0.5000 0.0000  plane waves:   70264

 maximum and minimum number of plane-waves per node :     17611    17530

 maximum number of plane-waves:     70321
 maximum index in each direction: 
   IXMAX=   21   IYMAX=   21   IZMAX=   42
   IXMIN=  -21   IYMIN=  -21   IZMIN=  -42


 real space projection operators:
  total allocation   :      79080.75 KBytes
  max/ min on nodes  :      20227.21      19318.32


 parallel 3D FFT for wavefunctions:
    minimum data exchange during FFTs selected (reduces bandwidth)
 parallel 3D FFT for charge:
    minimum data exchange during FFTs selected (reduces bandwidth)


 total amount of memory used by VASP MPI-rank0   252373. kBytes
=======================================================================

   base      :      30000. kBytes
   nonlr-proj:      35784. kBytes
   fftplans  :      18297. kBytes
   grid      :      55120. kBytes
   one-center:        653. kBytes
   wavefun   :     112519. kBytes
 
     INWAV:  cpu time    0.0000: real time    0.0004
 Broyden mixing: mesh for mixing (old mesh)
   NGX = 43   NGY = 43   NGZ = 85
  (NGX  =180   NGY  =180   NGZ  =336)
  gives a total of 157165 points

 initial charge density was supplied:
 charge density of overlapping atoms calculated
 number of electron     778.0000000 magnetization     231.0000000
 keeping initial charge density in first step


--------------------------------------------------------------------------------------------------------


 Maximum index for non-local projection operator         2119
 Maximum index for augmentation-charges         1122 (set IRDMAX)


--------------------------------------------------------------------------------------------------------


 First call to EWALD:  gamma=   0.132
 Maximum number of real-space cells 4x 4x 2
 Maximum number of reciprocal cells 2x 2x 4

    FEWALD:  cpu time    0.0075: real time    0.0075


--------------------------------------- Iteration      1(   1)  ---------------------------------------


    POTLOK:  cpu time    0.4854: real time    0.7697
    SETDIJ:  cpu time    0.0354: real time    0.0355
     EDDAV:  cpu time   70.4132: real time   70.7515
       DOS:  cpu time    0.0025: real time    0.0040
    --------------------------------------------
      LOOP:  cpu time   70.9364: real time   71.5609

 eigenvalue-minimisations  :  9408
 total energy-change (2. order) : 0.7542683E+04  (-0.3276745E+05)
 number of electron     778.0000000 magnetization     231.0000000
 augmentation part      778.0000000 magnetization     231.0000000

 Free energy of the ion-electron system (eV)
  ---------------------------------------------------
  alpha Z        PSCENC =      1982.35054298
  Ewald energy   TEWEN  =    223307.06453726
  -Hartree energ DENC   =   -294765.52335080
  -exchange      EXHF   =         0.00000000
  -V(xc)+E(xc)   XCENC  =      1372.86398291
  PAW double counting   =     64136.80006862   -66038.70876209
  entropy T*S    EENTRO =        -0.00303913
  eigenvalues    EBANDS =      7329.18480513
  atomic energy  EATOM  =     70218.65458108
  Solvation  Ediel_sol  =         0.00000000
  ---------------------------------------------------
  free energy    TOTEN  =      7542.68336596 eV

  energy without entropy =     7542.68640509  energy(sigma->0) =     7542.68437900


--------------------------------------------------------------------------------------------------------




--------------------------------------- Iteration      1(   2)  ---------------------------------------


     EDDAV:  cpu time   70.6635: real time   70.9393
       DOS:  cpu time    0.0027: real time    0.0256
    --------------------------------------------
      LOOP:  cpu time   70.6662: real time   70.9649

 eigenvalue-minimisations  :  9420
 total energy-change (2. order) :-0.6807370E+04  (-0.6110993E+04)
 number of electron     778.0000000 magnetization     231.0000000
 augmentation part      778.0000000 magnetization     231.0000000

 Free energy of the ion-electron system (eV)
  ---------------------------------------------------
  alpha Z        PSCENC =      1982.35054298
  Ewald energy   TEWEN  =    223307.06453726
  -Hartree energ DENC   =   -294765.52335080
  -exchange      EXHF   =         0.00000000
  -V(xc)+E(xc)   XCENC  =      1372.86398291
  PAW double counting   =     64136.80006862   -66038.70876209
  entropy T*S    EENTRO =         0.00254260
  eigenvalues    EBANDS =       521.80916940
  atomic energy  EATOM  =     70218.65458108
  Solvation  Ediel_sol  =         0.00000000
  ---------------------------------------------------
  free energy    TOTEN  =       735.31331196 eV

  energy without entropy =      735.31076936  energy(sigma->0) =      735.31246442


--------------------------------------------------------------------------------------------------------




--------------------------------------- Iteration      1(   3)  ---------------------------------------


     EDDAV:  cpu time   70.5234: real time   70.7391
       DOS:  cpu time    0.0029: real time    0.0039
    --------------------------------------------
      LOOP:  cpu time   70.5263: real time   70.7430

 eigenvalue-minimisations  :  9408
 total energy-change (2. order) :-0.1111293E+04  (-0.9023830E+03)
 number of electron     778.0000000 magnetization     231.0000000
 augmentation part      778.0000000 magnetization     231.0000000

 Free energy of the ion-electron system (eV)
  ---------------------------------------------------
  alpha Z        PSCENC =      1982.35054298
  Ewald energy   TEWEN  =    223307.06453726
  -Hartree energ DENC   =   -294765.52335080
  -exchange      EXHF   =         0.00000000
  -V(xc)+E(xc)   XCENC  =      1372.86398291
  PAW double counting   =     64136.80006862   -66038.70876209
  entropy T*S    EENTRO =         0.00640021
  eigenvalues    EBANDS =      -589.48722536
  atomic energy  EATOM  =     70218.65458108
  Solvation  Ediel_sol  =         0.00000000
  ---------------------------------------------------
  free energy    TOTEN  =      -375.97922519 eV

  energy without entropy =     -375.98562540  energy(sigma->0) =     -375.98135859


--------------------------------------------------------------------------------------------------------




--------------------------------------- Iteration      1(   4)  ---------------------------------------


     EDDAV:  cpu time   84.9499: real time   85.2062
       DOS:  cpu time    0.0030: real time    0.0082
    --------------------------------------------
      LOOP:  cpu time   84.9529: real time   85.2144

 eigenvalue-minimisations  : 11964
 total energy-change (2. order) :-0.1103231E+03  (-0.1003579E+03)
 number of electron     778.0000000 magnetization     231.0000000
 augmentation part      778.0000000 magnetization     231.0000000

 Free energy of the ion-electron system (eV)
  ---------------------------------------------------
  alpha Z        PSCENC =      1982.35054298
  Ewald energy   TEWEN  =    223307.06453726
  -Hartree energ DENC   =   -294765.52335080
  -exchange      EXHF   =         0.00000000
  -V(xc)+E(xc)   XCENC  =      1372.86398291
  PAW double counting   =     64136.80006862   -66038.70876209
  entropy T*S    EENTRO =         0.01358796
  eigenvalues    EBANDS =      -699.81752178
  atomic energy  EATOM  =     70218.65458108
  Solvation  Ediel_sol  =         0.00000000
  ---------------------------------------------------
  free energy    TOTEN  =      -486.30233386 eV

  energy without entropy =     -486.31592182  energy(sigma->0) =     -486.30686318


--------------------------------------------------------------------------------------------------------




--------------------------------------- Iteration      1(   5)  ---------------------------------------


     EDDAV:  cpu time   81.1915: real time   81.4378
       DOS:  cpu time    0.0052: real time    0.1198
    CHARGE:  cpu time    4.5917: real time    4.6047
    MIXING:  cpu time    0.0116: real time    0.0116
    --------------------------------------------
      LOOP:  cpu time   85.8001: real time   86.1739

 eigenvalue-minimisations  : 11268
 total energy-change (2. order) :-0.4277643E+01  (-0.4239692E+01)
 number of electron     778.0000020 magnetization     216.6571058
 augmentation part      335.9156903 magnetization     183.5636437

 Broyden mixing:
  rms(total) = 0.11130E+02    rms(broyden)= 0.11130E+02
  rms(prec ) = 0.11519E+02
  weight for this iteration     100.00

 Free energy of the ion-electron system (eV)
  ---------------------------------------------------
  alpha Z        PSCENC =      1982.35054298
  Ewald energy   TEWEN  =    223307.06453726
  -Hartree energ DENC   =   -294765.52335080
  -exchange      EXHF   =         0.00000000
  -V(xc)+E(xc)   XCENC  =      1372.86398291
  PAW double counting   =     64136.80006862   -66038.70876209
  entropy T*S    EENTRO =         0.01316999
  eigenvalues    EBANDS =      -704.09474662
  atomic energy  EATOM  =     70218.65458108
  Solvation  Ediel_sol  =         0.00000000
  ---------------------------------------------------
  free energy    TOTEN  =      -490.57997667 eV

  energy without entropy =     -490.59314665  energy(sigma->0) =     -490.58436666


--------------------------------------------------------------------------------------------------------




--------------------------------------- Iteration      1(   6)  ---------------------------------------


    POTLOK:  cpu time    0.4632: real time    0.6884
    SETDIJ:  cpu time    0.0351: real time    0.0354
    EDDIAG:  cpu time   12.6604: real time   12.7243
  RMM-DIIS:  cpu time   43.9384: real time   44.1364
    ORTHCH:  cpu time    1.3961: real time    1.4038
       DOS:  cpu time    0.0025: real time    0.0025
    CHARGE:  cpu time    4.4549: real time    4.4902
    MIXING:  cpu time    0.0131: real time    0.0143
    --------------------------------------------
      LOOP:  cpu time   62.9638: real time   63.4954

 eigenvalue-minimisations  :  9683
 total energy-change (2. order) :-0.2563760E+03  (-0.1033115E+03)
 number of electron     778.0000023 magnetization     213.1469611
 augmentation part      407.5999506 magnetization     177.6894624

 Broyden mixing:
  rms(total) = 0.21381E+02    rms(broyden)= 0.21381E+02
  rms(prec ) = 0.28111E+02
  weight for this iteration     100.00

 eigenvalues of (default mixing * dielectric matrix)
  average eigenvalue GAMMA=   0.1875
  0.1875

 Free energy of the ion-electron system (eV)
  ---------------------------------------------------
  alpha Z        PSCENC =      1982.35054298
  Ewald energy   TEWEN  =    223307.06453726
  -Hartree energ DENC   =   -293174.18840978
  -exchange      EXHF   =         0.00000000
  -V(xc)+E(xc)   XCENC  =      1332.76402188
  PAW double counting   =     68355.45058911   -70032.29651444
  entropy T*S    EENTRO =        -0.01524772
  eigenvalues    EBANDS =     -2736.74009131
  atomic energy  EATOM  =     70218.65458108
  Solvation  Ediel_sol  =         0.00000000
  ---------------------------------------------------
  free energy    TOTEN  =      -746.95599095 eV

  energy without entropy =     -746.94074323  energy(sigma->0) =     -746.95090838


--------------------------------------------------------------------------------------------------------




--------------------------------------- Iteration      1(   7)  ---------------------------------------


    POTLOK:  cpu time    0.4632: real time    0.4748
    SETDIJ:  cpu time    0.0353: real time    0.0354
    EDDIAG:  cpu time   12.5995: real time   12.6853
  RMM-DIIS:  cpu time   42.9431: real time   43.0686
    ORTHCH:  cpu time    1.3794: real time    1.4633
       DOS:  cpu time    0.0026: real time    0.0026
    CHARGE:  cpu time    4.4516: real time    4.4720
    MIXING:  cpu time    0.0131: real time    0.0137
    --------------------------------------------
      LOOP:  cpu time   61.8878: real time   62.2158

 eigenvalue-minimisations  :  9430
 total energy-change (2. order) : 0.2799635E+03  (-0.1593695E+02)
 number of electron     778.0000022 magnetization     208.2295931
 augmentation part      375.4809173 magnetization     164.1705937

 Broyden mixing:
  rms(total) = 0.13537E+02    rms(broyden)= 0.13537E+02
  rms(prec ) = 0.17096E+02
  weight for this iteration     100.00

 eigenvalues of (default mixing * dielectric matrix)
  average eigenvalue GAMMA=   0.2644
  0.3530  0.1757

 Free energy of the ion-electron system (eV)
  ---------------------------------------------------
  alpha Z        PSCENC =      1982.35054298
  Ewald energy   TEWEN  =    223307.06453726
  -Hartree energ DENC   =   -293820.76162679
  -exchange      EXHF   =         0.00000000
  -V(xc)+E(xc)   XCENC  =      1351.03479260
  PAW double counting   =     69261.57826117   -71085.79490342
  entropy T*S    EENTRO =         0.01289920
  eigenvalues    EBANDS =     -1681.13160096
  atomic energy  EATOM  =     70218.65458108
  Solvation  Ediel_sol  =         0.00000000
  ---------------------------------------------------
  free energy    TOTEN  =      -466.99251689 eV

  energy without entropy =     -467.00541609  energy(sigma->0) =     -466.99681662


--------------------------------------------------------------------------------------------------------




--------------------------------------- Iteration      1(   8)  ---------------------------------------


    POTLOK:  cpu time    0.4597: real time    0.6601
    SETDIJ:  cpu time    0.0360: real time    0.0362
    EDDIAG:  cpu time   12.6232: real time   12.6749
  RMM-DIIS:  cpu time   42.8653: real time   43.0790
    ORTHCH:  cpu time    1.3972: real time    2.4246
       DOS:  cpu time    0.0026: real time    0.0026
    CHARGE:  cpu time    4.3877: real time    4.4072
    MIXING:  cpu time    0.0149: real time    0.0152
    --------------------------------------------
      LOOP:  cpu time   61.7867: real time   63.2997

 eigenvalue-minimisations  :  9432
 total energy-change (2. order) : 0.4514659E+01  (-0.1577117E+02)
 number of electron     778.0000023 magnetization     200.8899894
 augmentation part      376.2966472 magnetization     162.4459798

 Broyden mixing:
  rms(total) = 0.15787E+02    rms(broyden)= 0.15787E+02
  rms(prec ) = 0.18338E+02
  weight for this iteration     100.00

 eigenvalues of (default mixing * dielectric matrix)
  average eigenvalue GAMMA=   0.3220
  0.6081  0.2695  0.0882

 Free energy of the ion-electron system (eV)
  ---------------------------------------------------
  alpha Z        PSCENC =      1982.35054298
  Ewald energy   TEWEN  =    223307.06453726
  -Hartree energ DENC   =   -294007.13036944
  -exchange      EXHF   =         0.00000000
  -V(xc)+E(xc)   XCENC  =      1360.14767400
  PAW double counting   =     70423.32486524   -72330.42146492
  entropy T*S    EENTRO =         0.00159477
  eigenvalues    EBANDS =     -1416.46981881
  atomic energy  EATOM  =     70218.65458108
  Solvation  Ediel_sol  =         0.00000000
  ---------------------------------------------------
  free energy    TOTEN  =      -462.47785784 eV

  energy without entropy =     -462.47945261  energy(sigma->0) =     -462.47838943


--------------------------------------------------------------------------------------------------------




--------------------------------------- Iteration      1(   9)  ---------------------------------------


    POTLOK:  cpu time    0.4636: real time    0.4842
    SETDIJ:  cpu time    0.0363: real time    0.0364
    EDDIAG:  cpu time   12.9733: real time   13.0598
  RMM-DIIS:  cpu time   43.0320: real time   43.1712
    ORTHCH:  cpu time    1.3867: real time    1.3937
       DOS:  cpu time    0.0026: real time    0.0026
    CHARGE:  cpu time    4.4017: real time    4.4207
    MIXING:  cpu time    0.0151: real time    0.0153
    --------------------------------------------
      LOOP:  cpu time   62.3113: real time   62.5839

 eigenvalue-minimisations  :  9446
 total energy-change (2. order) : 0.6849488E+02  (-0.1682855E+02)
 number of electron     778.0000019 magnetization     193.7142935
 augmentation part      378.9227168 magnetization     144.6883777

 Broyden mixing:
  rms(total) = 0.13062E+02    rms(broyden)= 0.13062E+02
  rms(prec ) = 0.14791E+02
  weight for this iteration     100.00

 eigenvalues of (default mixing * dielectric matrix)
  average eigenvalue GAMMA=   0.3479
  0.8007  0.3648  0.1130  0.1130

 Free energy of the ion-electron system (eV)
  ---------------------------------------------------
  alpha Z        PSCENC =      1982.35054298
  Ewald energy   TEWEN  =    223307.06453726
  -Hartree energ DENC   =   -293871.47893255
  -exchange      EXHF   =         0.00000000
  -V(xc)+E(xc)   XCENC  =      1377.96797910
  PAW double counting   =     71734.95158877   -73699.84287707
  entropy T*S    EENTRO =        -0.01287492
  eigenvalues    EBANDS =     -1443.63752428
  atomic energy  EATOM  =     70218.65458108
  Solvation  Ediel_sol  =         0.00000000
  ---------------------------------------------------
  free energy    TOTEN  =      -393.98297963 eV

  energy without entropy =     -393.97010471  energy(sigma->0) =     -393.97868799


--------------------------------------------------------------------------------------------------------




--------------------------------------- Iteration      1(  10)  ---------------------------------------


    POTLOK:  cpu time    0.4507: real time    0.5263
    SETDIJ:  cpu time    0.0360: real time    0.0362
    EDDIAG:  cpu time   12.6642: real time   12.7125
  RMM-DIIS:  cpu time   43.0914: real time   43.2863
    ORTHCH:  cpu time    1.3921: real time    1.4268
       DOS:  cpu time    0.0025: real time    0.0025
    CHARGE:  cpu time    4.4176: real time    4.4330
    MIXING:  cpu time    0.0143: real time    0.0145
    --------------------------------------------
[...]
   -.866E+01 0.515E+02 -.268E+04   0.994E+01 -.514E+02 0.268E+04   -.137E+01 -.885E-01 0.196E+01   0.418E-01 -.213E-01 -.190E-02
   -.341E+02 -.644E+01 -.272E+04   0.332E+02 0.749E+01 0.272E+04   0.899E+00 -.102E+01 0.238E+01   -.355E-02 -.348E-01 -.370E-01
   0.412E+02 0.114E+02 -.270E+04   -.411E+02 -.120E+02 0.270E+04   -.192E+00 0.643E+00 0.196E+01   0.135E+00 -.593E-01 -.144E+00
   -.273E+02 -.166E+02 -.281E+04   0.273E+02 0.156E+02 0.280E+04   -.278E-01 0.102E+01 0.265E+01   0.390E-01 0.788E-02 -.167E-02
   0.274E+02 -.117E+02 -.283E+04   -.278E+02 0.119E+02 0.283E+04   0.565E+00 -.167E+00 0.309E+01   -.108E+00 -.434E-01 -.183E+00
   -.259E+02 0.462E+02 -.275E+04   0.257E+02 -.456E+02 0.275E+04   0.124E+00 -.457E+00 0.214E+01   0.604E-01 -.804E-01 0.238E-01
   0.142E+02 0.136E+01 -.276E+04   -.133E+02 -.806E+00 0.276E+04   -.882E+00 -.458E+00 0.272E+01   -.399E-02 -.901E-01 -.793E-01
   -.446E+02 0.885E+01 -.276E+04   0.449E+02 -.921E+01 0.276E+04   -.221E+00 0.383E+00 0.464E+00   -.642E-01 -.221E-02 -.751E-02
   -.359E+02 -.150E+02 -.272E+04   0.360E+02 0.144E+02 0.272E+04   -.102E+00 0.551E+00 0.219E+01   -.655E-02 0.116E-01 -.468E-02
   -.167E+02 -.516E+02 -.277E+04   0.155E+02 0.514E+02 0.276E+04   0.131E+01 0.323E+00 0.254E+01   -.673E-01 -.419E-01 -.386E-01
   0.643E+02 0.324E+02 -.271E+04   -.633E+02 -.321E+02 0.271E+04   -.104E+01 -.478E+00 0.232E+01   0.225E-01 0.143E+00 -.148E+00
   0.480E+02 -.150E+02 -.278E+04   -.474E+02 0.152E+02 0.278E+04   -.490E+00 -.287E+00 0.262E+01   -.318E-01 0.683E-01 0.119E-01
   -.985E+01 -.138E+02 -.270E+04   0.940E+01 0.130E+02 0.270E+04   0.380E+00 0.755E+00 0.201E+01   0.639E-01 0.473E-01 -.424E-01
   0.178E+02 -.231E+02 -.275E+04   -.177E+02 0.229E+02 0.275E+04   -.453E-01 0.266E+00 0.490E+00   -.132E-01 -.392E-01 0.250E-01
   0.863E+02 -.626E+02 -.140E+04   -.851E+02 0.627E+02 0.140E+04   -.111E+01 -.129E+00 0.136E+01   -.464E-01 0.589E-01 -.513E-01
   -.483E+01 -.384E+02 -.145E+04   0.389E+01 0.379E+02 0.145E+04   0.106E+01 0.476E+00 0.257E+01   -.963E-01 -.259E-01 -.292E-01
   0.995E+02 -.566E+01 0.273E+04   -.980E+02 0.423E+01 -.272E+04   -.156E+01 0.141E+01 -.293E+01   -.354E-01 0.216E-01 -.126E-01
   -.674E+02 -.688E+02 0.176E+04   0.665E+02 0.693E+02 -.176E+04   0.897E+00 -.445E+00 0.153E+01   0.176E-01 -.208E-01 0.462E-02
   -.182E+02 0.257E+02 -.141E+04   0.189E+02 -.252E+02 0.141E+04   -.972E+00 -.277E+00 0.206E+01   0.200E+00 -.161E+00 -.534E-02
   -.678E+02 0.904E+02 0.291E+04   0.683E+02 -.892E+02 -.291E+04   -.491E+00 -.142E+01 -.229E+01   0.254E-01 0.408E-02 0.538E-02
   0.745E+02 -.269E+02 0.142E+04   -.744E+02 0.264E+02 -.142E+04   -.287E+00 0.535E+00 -.771E+00   0.128E+00 -.432E-01 0.476E-01
   0.108E+02 -.158E+02 -.273E+04   -.110E+02 0.157E+02 0.272E+04   0.240E+00 0.126E-02 0.204E+01   0.724E-02 0.439E-01 -.232E-01
   0.537E+02 0.616E+02 -.489E+02   -.535E+02 -.612E+02 0.484E+02   -.389E+00 -.570E+00 0.447E+00   0.803E-02 0.114E+00 -.196E-01
   -.131E+02 0.303E+02 -.278E+04   0.127E+02 -.302E+02 0.278E+04   0.542E+00 -.182E+00 0.254E+01   -.808E-01 0.768E-01 -.527E-01
   -.230E+02 0.995E+01 0.275E+03   0.220E+02 -.117E+02 -.274E+03   0.949E+00 0.174E+01 -.641E+00   0.203E-01 -.410E-01 -.121E-01
   -.830E+02 -.116E+02 -.143E+04   0.838E+02 0.104E+02 0.142E+04   -.768E+00 0.120E+01 0.256E+01   -.103E-01 0.330E-01 -.389E-01
   0.408E+02 0.123E+02 -.137E+04   -.414E+02 -.119E+02 0.136E+04   0.620E+00 -.524E+00 0.181E+01   0.828E-01 0.124E+00 -.415E-01
   -.317E+02 -.786E+02 -.301E+02   0.310E+02 0.783E+02 0.304E+02   0.817E+00 0.363E+00 -.274E+00   -.231E-01 -.762E-01 0.190E-01
   -.353E+02 -.191E+02 -.114E+02   0.358E+02 0.197E+02 0.112E+02   -.489E+00 -.710E+00 0.338E+00   -.524E-01 0.739E-01 -.711E-01
   0.157E+01 -.223E+01 -.108E+04   -.151E+01 0.240E+01 0.108E+04   -.100E+00 -.922E-01 0.183E+00   0.232E-01 -.171E-01 -.358E-01
   -.686E+02 0.804E+02 0.217E+04   0.696E+02 -.805E+02 -.216E+04   -.896E+00 0.607E-01 -.308E+01   -.368E-01 -.216E-01 -.317E-02
   0.797E+02 0.321E+02 0.223E+04   -.799E+02 -.334E+02 -.223E+04   0.355E+00 0.135E+01 -.280E+01   0.365E-01 0.890E-03 0.431E-02
   0.114E+03 0.440E+01 0.212E+04   -.113E+03 -.338E+01 -.212E+04   -.109E+01 -.891E+00 -.203E+01   -.482E-02 -.506E-01 0.112E-01
   0.814E+02 0.916E+02 0.119E+04   -.806E+02 -.909E+02 -.119E+04   -.830E+00 -.862E+00 0.774E-01   -.176E-01 0.481E-01 -.285E-01
   -.915E+01 -.112E+03 0.121E+04   0.931E+01 0.111E+03 -.121E+04   -.188E+00 0.545E+00 -.685E+00   -.393E-01 -.292E-01 0.656E-01
   -.708E+02 -.296E+02 -.117E+04   0.708E+02 0.298E+02 0.117E+04   -.923E-01 -.180E+00 0.100E+00   0.529E-01 -.480E-01 -.362E-01
   -.254E+03 -.243E+02 0.237E+04   0.251E+03 0.239E+02 -.237E+04   0.276E+01 0.424E+00 -.418E+01   -.423E-02 0.218E-01 0.104E-01
   -.316E+02 0.737E+02 0.121E+04   0.308E+02 -.733E+02 -.121E+04   0.836E+00 -.538E+00 -.594E+00   0.274E-01 0.455E-01 -.480E-01
   -.107E+03 -.269E+02 0.258E+02   0.106E+03 0.274E+02 -.256E+02   0.355E+00 -.565E+00 -.359E+00   0.111E-01 -.239E-01 -.216E-01
   0.515E+01 -.939E+02 -.121E+04   -.524E+01 0.940E+02 0.121E+04   0.215E+00 0.113E+00 0.318E+00   -.840E-01 -.133E+00 -.539E-01
   0.418E+02 0.125E+02 -.119E+04   -.418E+02 -.130E+02 0.119E+04   0.540E-01 0.298E+00 -.548E+00   -.787E-01 0.158E+00 -.597E-01
   -.835E+02 -.156E+03 0.229E+04   0.814E+02 0.153E+03 -.229E+04   0.205E+01 0.310E+01 -.375E+01   0.627E-03 -.128E-01 0.254E-01
   0.133E+02 -.513E+02 0.264E+04   -.135E+02 0.516E+02 -.263E+04   0.324E-01 -.208E+00 -.300E+01   0.209E-01 0.407E-02 0.439E-01
   0.233E+03 0.982E+02 0.253E+04   -.232E+03 -.957E+02 -.253E+04   -.659E+00 -.243E+01 -.314E+01   0.830E-02 -.213E-01 0.654E-02
   -.111E+03 -.732E+02 0.128E+04   0.110E+03 0.723E+02 -.128E+04   0.962E+00 0.955E+00 0.593E-01   -.651E-01 -.187E-01 -.157E-02
   -.137E+03 0.114E+02 0.282E+02   0.137E+03 -.114E+02 -.283E+02   0.451E-02 0.807E-02 0.694E-01   -.685E-01 -.522E-02 -.207E-01
   -.210E+03 -.162E+02 0.145E+04   0.211E+03 0.170E+02 -.145E+04   -.354E+00 -.832E+00 0.752E-01   -.471E-01 -.336E-01 -.205E-01
   0.647E+01 -.579E+01 0.131E+04   -.629E+01 0.536E+01 -.131E+04   -.141E+00 0.472E+00 -.379E+00   -.220E-02 0.745E-01 -.253E-01
   0.909E+02 0.392E+02 -.139E+04   -.905E+02 -.389E+02 0.139E+04   -.572E+00 -.343E+00 0.289E+00   0.298E-01 0.447E-02 -.466E-01
   0.771E+02 -.441E+02 0.263E+04   -.765E+02 0.445E+02 -.263E+04   -.682E+00 -.472E+00 -.316E+01   0.319E-01 -.292E-01 0.389E-01
   -.719E+02 -.912E+01 0.138E+04   0.720E+02 0.949E+01 -.138E+04   -.799E-01 -.387E+00 -.457E+00   -.530E-01 -.212E-01 -.152E-01
   0.537E+02 -.102E+03 -.257E+02   -.530E+02 0.102E+03 0.259E+02   -.752E+00 0.384E+00 -.469E+00   0.433E-01 -.114E+00 0.139E+00
   0.131E+03 0.940E+02 0.327E+04   -.131E+03 -.925E+02 -.327E+04   -.116E-01 -.157E+01 -.477E+01   -.769E-02 0.471E-01 0.128E-01
   0.365E+02 -.212E+02 0.179E+04   -.367E+02 0.209E+02 -.179E+04   0.247E+00 0.330E+00 0.418E+00   -.387E-01 0.115E-01 0.965E-02
   0.240E+03 -.344E+02 0.132E+04   -.240E+03 0.349E+02 -.132E+04   0.477E+00 -.490E+00 0.686E+00   0.817E-01 -.154E-01 0.534E-01
   0.314E+02 0.118E+03 0.150E+03   -.320E+02 -.118E+03 -.149E+03   0.647E+00 -.503E+00 -.496E+00   -.701E-01 -.191E-01 -.940E-02
   0.130E+02 0.846E+02 -.159E+04   -.127E+02 -.845E+02 0.159E+04   -.285E+00 -.115E+00 0.463E+00   -.314E-01 -.406E-01 0.390E-01
   -.715E+02 0.286E+02 -.164E+04   0.713E+02 -.284E+02 0.163E+04   0.560E+00 -.297E+00 0.135E+01   -.247E+00 0.456E-01 -.287E-01
   0.665E+02 0.171E+03 0.319E+04   -.662E+02 -.171E+03 -.319E+04   -.341E+00 -.904E-01 -.364E+01   -.397E-03 0.340E-01 -.282E-01
   -.103E+03 -.885E+02 0.324E+04   0.102E+03 0.893E+02 -.324E+04   0.123E+01 -.744E+00 -.449E+01   -.400E-01 -.506E-01 0.225E-01
   0.111E+03 -.320E+02 0.105E+03   -.111E+03 0.319E+02 -.104E+03   0.394E+00 0.819E-01 -.120E+01   0.156E-01 -.348E-03 -.233E-01
   -.149E+03 -.231E+02 -.484E+02   0.149E+03 0.226E+02 0.489E+02   0.504E+00 0.469E+00 -.444E+00   0.130E+00 0.266E-02 -.370E-01
   0.355E+02 0.201E+03 0.156E+04   -.354E+02 -.201E+03 -.156E+04   -.898E-02 -.793E+00 -.117E+01   -.111E-01 -.327E-01 -.327E-01
   0.873E+02 -.516E+02 -.206E+02   -.869E+02 0.504E+02 0.210E+02   -.440E+00 0.129E+01 -.381E+00   -.314E-01 0.827E-01 -.833E-01
   0.550E+02 -.262E+02 0.429E+02   -.542E+02 0.260E+02 -.423E+02   -.695E+00 0.224E+00 -.426E+00   -.621E-01 0.201E-01 -.402E-01
   -.148E+03 -.417E+02 0.148E+04   0.147E+03 0.420E+02 -.148E+04   0.339E+00 -.383E+00 -.644E+00   -.153E-01 0.482E-01 -.284E-01
   -.809E+02 -.132E+02 0.153E+04   0.814E+02 0.129E+02 -.153E+04   -.568E+00 0.348E+00 -.680E+00   0.445E-01 -.292E-01 0.500E-01
   -.234E+03 -.103E+03 0.295E+04   0.233E+03 0.102E+03 -.294E+04   0.116E+01 0.938E+00 -.331E+01   -.422E-01 0.122E-01 0.208E-01
   0.145E+03 -.764E+02 0.285E+04   -.145E+03 0.766E+02 -.285E+04   0.378E+00 -.109E+00 -.794E+00   0.506E-01 -.329E-01 0.322E-01
   0.417E+02 -.257E+02 0.149E+04   -.414E+02 0.257E+02 -.149E+04   -.335E+00 0.721E-01 0.202E+00   0.395E-01 0.133E-01 0.506E-01
   0.123E+03 0.265E+02 0.137E+04   -.122E+03 -.267E+02 -.137E+04   -.964E+00 0.250E+00 -.826E+00   -.305E-02 0.355E-01 -.280E-01
   -.224E+02 -.339E+02 -.151E+04   0.223E+02 0.341E+02 0.151E+04   0.133E+00 -.261E+00 -.774E-01   0.347E-01 0.311E-01 -.335E-01
   -.271E+02 0.264E+02 0.291E+04   0.274E+02 -.257E+02 -.291E+04   -.314E+00 -.657E+00 -.168E+01   -.130E-01 0.642E-01 0.106E-01
   -.350E+02 0.166E+03 0.120E+02   0.351E+02 -.166E+03 -.114E+02   -.234E+00 0.937E-01 -.670E+00   0.108E+00 -.487E-01 0.560E-02
   -.183E+02 0.541E+02 -.848E+02   0.184E+02 -.533E+02 0.846E+02   0.752E-01 -.914E+00 -.752E-01   -.146E+00 0.822E-01 0.981E-01
   0.162E+03 0.290E+01 -.194E+03   -.162E+03 -.230E+01 0.194E+03   0.436E-01 -.700E+00 -.474E+00   0.173E+00 0.655E-01 0.136E+00
   -.484E+02 -.954E+02 0.511E+02   0.481E+02 0.951E+02 -.510E+02   0.442E+00 0.421E+00 -.819E-01   -.147E+00 -.344E-01 0.357E-01
   -.262E+01 0.816E+00 -.326E+03   0.259E+01 -.923E+00 0.328E+03   0.434E-01 0.926E-01 -.168E+01   -.171E-02 -.214E-02 0.506E-03
 -----------------------------------------------------------------------------------------------
   -.343E+01 -.120E+00 0.707E+01   -.385E-12 0.516E-12 0.887E-11   0.358E+01 0.803E-01 -.628E+01   -.151E+00 0.188E-01 -.821E+00
 
 
 POSITION                                       TOTAL-FORCE (eV/Angst)
 -----------------------------------------------------------------------------------
     13.66392      8.47453      6.71169        -0.003761     -0.004880     -0.000737
      5.24673      8.46539      6.59093        -0.012018      0.005668      0.019311
      5.14984      3.52951      6.90623         0.003189     -0.006846      0.002895
     15.18893      9.28858      8.91283        -0.010852     -0.009804     -0.003652
      3.83155      4.49504      9.08971        -0.002507     -0.014073      0.004270
      6.69330      9.21330      8.93036        -0.018549     -0.007130     -0.015401
     12.29469      4.36150      9.14650        -0.001953      0.007522      0.005596
      9.49284      9.24838      9.12037         0.007438      0.011963     -0.000138
     10.92987      1.98558      8.95186         0.004528     -0.002875      0.009411
      2.55564      2.00887      9.08664        -0.021696     -0.003154     -0.000102
     12.31038      9.20619      9.11018        -0.002650      0.021588     -0.003276
     13.72053      6.85229      9.07380        -0.007635     -0.003734      0.006907
      5.26842      1.94389      9.12858        -0.013322      0.013849      0.007575
      8.10047      6.84757      8.95954         0.007790     -0.009767     -0.008587
      9.51382      4.40289      9.05586        -0.000034     -0.002154     -0.001140
      5.25463      6.84484      9.02271        -0.011912      0.009090      0.001047
      8.15384      2.00100      9.06943        -0.007160     -0.019462      0.010550
      8.09969      3.61607      6.82226         0.002499     -0.002791      0.000516
      6.63124      1.13038      6.87214        -0.008400     -0.000010     -0.001521
      6.85997      1.05619      1.30452        -0.000409     -0.014393     -0.002286
      3.43490      4.14022      2.70460        -0.001473      0.009636      0.006129
      1.27476      1.21366      6.82814        -0.000349     -0.011304     -0.005458
      0.89096      1.08547      0.91422         0.021870      0.024963     -0.009369
      6.76854      9.20926      3.10248         0.003170      0.024405     -0.003344
      6.66639      4.42315      9.06408         0.012132     -0.023405      0.002774
      8.14659      5.43358      4.84371        -0.000289      0.055128     -0.063842
     10.86873      6.83936      9.07264         0.006292     -0.000450     -0.000110
     14.90317      7.35364      4.60198         0.010867     -0.007652     -0.006215
     12.36677      5.97479      6.93884        -0.007119      0.004755      0.003769
      6.50369      6.00049      6.78942         0.000644      0.005550     -0.000416
      3.61430      2.58306      4.95012         0.011253      0.006696     -0.023060
     10.86385      5.33986      4.86887        -0.015311     -0.006698     -0.004132
      3.86766      6.08303      6.90626        -0.001930     -0.008916     -0.000683
     13.70592      8.36565      1.41581        -0.008898     -0.008312     -0.002891
      5.33677      8.27602      1.23892        -0.001775     -0.010311     -0.047815
      4.13554      6.22470      1.46246        -0.005044      0.009166      0.013328
      8.34268      2.24715      2.95426         0.002878     -0.012701     -0.003040
      9.56642      9.21763      2.98551         0.002318     -0.005794      0.002972
      2.43701      3.65778      7.02971         0.007911      0.000760      0.003822
     12.99964      3.45759      0.96035        -0.003540      0.003396     -0.009391
     10.86191      2.01860      2.94877        -0.002536      0.010927     -0.003140
     13.56226      5.11862      4.86453         0.007394     -0.009355     -0.022777
      3.95603      1.05131      7.03778         0.016590      0.010167      0.002142
      9.51385      5.99155      7.00918         0.001476     -0.012289     -0.008762
      3.61805      0.95781      1.13737         0.004726     -0.005394     -0.018747
      9.46777      6.02936      1.09765        -0.015149     -0.015369      0.022388
      5.47508      4.09678      1.29215         0.020143     -0.011201     -0.005752
     12.17188      9.01006      3.09748         0.021207      0.016080     -0.016230
     12.23201      7.52981      4.84967        -0.009221     -0.004764     -0.001291
     13.20191      6.51639      2.86005         0.011283     -0.005297     -0.011300
      9.43936      4.48143      2.88198         0.029117      0.016736     -0.001187
      8.30902      8.56884      6.98852         0.019217     -0.012411      0.004763
      8.21587      8.51474      1.04613         0.016075     -0.022745      0.029751
     10.79730      6.95699      2.87721        -0.012712     -0.003226      0.007173
      2.74728      0.16957      5.01634         0.011339     -0.007765     -0.032075
      8.01211      3.68639      0.93635         0.020386      0.011432      0.003927
      5.15117      2.01811      2.93976         0.002740     -0.009133      0.005115
      5.82064      6.71680      3.33353        -0.004466     -0.002842      0.014906
      8.08961      0.55272      4.82086        -0.019807      0.000046      0.049366
      9.49954      1.22551      6.83998        -0.008826      0.004586     -0.003105
     10.92763      8.43958      6.95063         0.002495      0.012812      0.004529
      9.46603      1.07207      0.98271        -0.022950      0.013167     -0.010595
     10.91369      8.53281      0.97849        -0.005940     -0.014543     -0.003843
      5.04438      4.93369      4.79724         0.008610      0.035627     -0.029911
     12.20715      2.89228      4.95957        -0.013307     -0.001827     -0.008200
     15.22237      9.45570      3.09179        -0.017280      0.008228      0.004352
      9.65101      2.87081      4.96549        -0.016824     -0.009087      0.035171
      6.61860      2.70072      4.85414         0.012022     -0.053776      0.055404
     12.00438      4.22973      2.91463        -0.002901     -0.016120      0.002016
      2.29947      1.81745      2.96062         0.010844     -0.001587      0.000850
     11.89741      5.74769      1.03654        -0.010907      0.017306     -0.001967
      6.86693      6.06581      1.23796         0.028003     -0.016097      0.003487
      8.32773      7.03578      2.95620         0.005669      0.031432     -0.024390
      6.88302      4.26924      3.03792        -0.011151     -0.010623      0.014874
     10.93166      3.70929      6.99051        -0.001425      0.000350      0.005351
     10.59153      3.44288      1.02771        -0.006103      0.016690      0.006980
     10.97701      0.65866      4.91478        -0.041308     -0.001232     -0.007730
      9.65018      7.71810      5.00765        -0.002906     -0.007301     -0.020244
      7.13050      7.75542      5.09564        -0.020686      0.003568     -0.019395
      5.25728      0.25492      4.92126         0.050855      0.042913      0.073666
      7.44970      0.76675     10.07030         0.010025     -0.015603      0.020160
 -----------------------------------------------------------------------------------
    total drift:                                0.005297     -0.021014     -0.033462


--------------------------------------------------------------------------------------------------------



  FREE ENERGIE OF THE ION-ELECTRON SYSTEM (eV)
  ---------------------------------------------------
  free  energy   TOTEN  =      -501.57818008 eV

  energy  without entropy=     -501.60554240  energy(sigma->0) =     -501.58730085
 
 d Force = 0.1273012E-02[ 0.713E-03, 0.183E-02]  d Energy = 0.1215175E-02 0.578E-04
 d Force = 0.1858677E+02[ 0.186E+02, 0.186E+02]  d Ewald  = 0.1858678E+02-0.346E-05


--------------------------------------------------------------------------------------------------------


    POTLOK:  cpu time    0.4898: real time    0.4966


--------------------------------------------------------------------------------------------------------


 Conjugate gradient step on ions:
 trial-energy change:   -0.001215  1 .order   -0.001273   -0.001833   -0.000713
  (g-gl).g = 0.980E-03      g.g   = 0.118E-02  gl.gl    = 0.459E-02
 g(Force)  = 0.118E-02   g(Stress)= 0.000E+00 ortho     = 0.153E-03
 gamma     =   0.21362
 trial     =   1.51591
 opt step  =   2.48077  (harmonic =   2.48077) maximal distance =0.00544504
 next E    =  -501.578465   (d E  =  -0.00150)


--------------------------------------------------------------------------------------------------------


  
 reached required accuracy - stopping structural energy minimisation
     LOOP+:  cpu time  645.1101: real time  649.6880
    4ORBIT:  cpu time    0.0000: real time    0.0000

 total amount of memory used by VASP MPI-rank0   252373. kBytes
=======================================================================

   base      :      30000. kBytes
   nonlr-proj:      35784. kBytes
   fftplans  :      18297. kBytes
   grid      :      55120. kBytes
   one-center:        653. kBytes
   wavefun   :     112519. kBytes
 
  
  
 General timing and accounting informations for this job:
 ========================================================
  
                  Total CPU time used (sec):    12425.387
                            User time (sec):    12073.213
                          System time (sec):      352.174
                         Elapsed time (sec):    12504.068
  
                   Maximum memory used (kb):      418268.
                   Average memory used (kb):           0.
  
                          Minor page faults:     14781808
                          Major page faults:          189
                 Voluntary context switches:         9847
