 vasp.5.4.4.18Apr17-6-g9f103f2a35 (build Nov 30 2020 22:55:02) complex          
  
 executed on             LinuxIFC date 2021.10.21  21:00:48
 running on   40 total cores
 distrk:  each k-point on   40 cores,    1 groups
 distr:  one band on NCORES_PER_BAND=   4 cores,   10 groups


--------------------------------------------------------------------------------------------------------


 INCAR:
 POTCAR:    PAW_PBE Pt 04Feb2005                  
 POTCAR:    PAW_PBE H 15Jun2001                   
 POTCAR:    PAW_PBE Pt 04Feb2005                  
   VRHFIN =Pt: s1d9                                                             
   LEXCH  = PE                                                                  
   EATOM  =   729.1176 eV,   53.5886 Ry                                         
                                                                                
   TITEL  = PAW_PBE Pt 04Feb2005                                                
   LULTRA =        F    use ultrasoft PP ?                                      
   IUNSCR =        1    unscreen: 0-lin 1-nonlin 2-no                           
   RPACOR =    2.330    partial core radius                                     
   POMASS =  195.080; ZVAL   =   10.000    mass and valenz                      
   RCORE  =    2.600    outmost cutoff radius                                   
   RWIGS  =    2.750; RWIGS  =    1.455    wigner-seitz radius (au A)           
   ENMAX  =  230.283; ENMIN  =  172.712 eV                                      
   ICORE  =        3    local potential                                         
   LCOR   =        T    correct aug charges                                     
   LPAW   =        T    paw PP                                                  
   EAUG   =  358.966                                                            
   DEXC   =    0.000                                                            
   RMAX   =    2.658    core radius for proj-oper                               
   RAUG   =    1.300    factor for augmentation sphere                          
   RDEP   =    2.761    radius for radial grids                                 
   RDEPT  =    2.203    core radius for aug-charge                              
                                                                                
   Atomic configuration                                                         
   16 entries                                                                   
     n  l   j            E        occ.                                          
     1  0  0.50    -78401.1885   2.0000                                         
     2  0  0.50    -13770.7750   2.0000                                         
     2  1  1.50    -11931.0468   6.0000                                         
     3  0  0.50     -3234.7234   2.0000                                         
     3  1  1.50     -2699.2216   6.0000                                         
     3  2  2.50     -2119.5714  10.0000                                         
     4  0  0.50      -695.1528   2.0000                                         
     4  1  1.50      -519.6034   6.0000                                         
     4  2  2.50      -306.6786  10.0000                                         
     4  3  3.50       -70.1041  14.0000                                         
     5  0  0.50      -101.7747   2.0000                                         
     5  1  1.50       -55.9873   6.0000                                         
     5  2  2.50        -6.1423   9.0000                                         
     6  0  0.50        -5.6573   1.0000                                         
     6  1  1.50        -6.8029   0.0000                                         
     5  3  2.50        -1.3606   0.0000                                         
   Description                                                                  
     l       E           TYP  RCUT    TYP  RCUT                                 
     2     -6.1423404     23  2.500                                             
     2     -7.5029230     23  2.500                                             
     0     -5.6573207     23  2.500                                             
     0      0.7416693     23  2.500                                             
     1     -2.7211652     23  2.600                                             
     1     20.4087390     23  2.600                                             
     3     -1.3605826     23  2.500                                             
  local pseudopotential read in
  partial core-charges read in
  partial kinetic energy density read in
  atomic valenz-charges read in
  non local Contribution for L=           2  read in
    real space projection operators read in
  non local Contribution for L=           2  read in
    real space projection operators read in
  non local Contribution for L=           0  read in
    real space projection operators read in
  non local Contribution for L=           0  read in
    real space projection operators read in
  non local Contribution for L=           1  read in
    real space projection operators read in
  non local Contribution for L=           1  read in
    real space projection operators read in
    PAW grid and wavefunctions read in
 
   number of l-projection  operators is LMAX  =           6
   number of lm-projection operators is LMMAX =          18
 
 POTCAR:    PAW_PBE H 15Jun2001                   
   VRHFIN =H: ultrasoft test                                                    
   LEXCH  = PE                                                                  
   EATOM  =    12.4884 eV,    0.9179 Ry                                         
                                                                                
   TITEL  = PAW_PBE H 15Jun2001                                                 
   LULTRA =        F    use ultrasoft PP ?                                      
   IUNSCR =        0    unscreen: 0-lin 1-nonlin 2-no                           
   RPACOR =    0.000    partial core radius                                     
   POMASS =    1.000; ZVAL   =    1.000    mass and valenz                      
   RCORE  =    1.100    outmost cutoff radius                                   
   RWIGS  =    0.700; RWIGS  =    0.370    wigner-seitz radius (au A)           
   ENMAX  =  250.000; ENMIN  =  200.000 eV                                      
   RCLOC  =    0.701    cutoff for local pot                                    
   LCOR   =        T    correct aug charges                                     
   LPAW   =        T    paw PP                                                  
   EAUG   =  400.000                                                            
   RMAX   =    1.123    core radius for proj-oper                               
   RAUG   =    1.200    factor for augmentation sphere                          
   RDEP   =    1.112    radius for radial grids                                 
   RDEPT  =    0.926    core radius for aug-charge                              
                                                                                
   Atomic configuration                                                         
    2 entries                                                                   
     n  l   j            E        occ.                                          
     1  0  0.50        -6.4927   1.0000                                         
     2  1  0.50        -3.4015   0.0000                                         
   Description                                                                  
     l       E           TYP  RCUT    TYP  RCUT                                 
     0     -6.4927494     23  1.100                                             
     0      6.8029130     23  1.100                                             
     1     -4.0817478     23  1.100                                             
  local pseudopotential read in
  atomic valenz-charges read in
  non local Contribution for L=           0  read in
    real space projection operators read in
  non local Contribution for L=           0  read in
    real space projection operators read in
  non local Contribution for L=           1  read in
    real space projection operators read in
    PAW grid and wavefunctions read in
 
   number of l-projection  operators is LMAX  =           3
   number of lm-projection operators is LMMAX =           5
 
 Optimization of the real space projectors (new method)

 maximal supplied QI-value         = 14.36
 optimisation between [QCUT,QGAM] = [ 11.92, 23.98] = [ 39.79,161.09] Ry 
 Optimized for a Real-space Cutoff    1.49 Angstroem

   l    n(q)    QCUT    max X(q) W(low)/X(q) W(high)/X(q)  e(spline) 
   2     10    11.920    66.195    0.79E-04    0.18E-03    0.24E-06
   2     10    11.920    64.643    0.81E-04    0.19E-03    0.24E-06
   0     11    11.920    95.520    0.28E-04    0.54E-04    0.18E-06
   0     11    11.920    63.403    0.27E-04    0.52E-04    0.17E-06
   1     10    11.920    19.961    0.18E-04    0.11E-03    0.23E-06
   1     10    11.920    13.289    0.25E-04    0.87E-04    0.19E-06
 Optimization of the real space projectors (new method)

 maximal supplied QI-value         = 34.20
 optimisation between [QCUT,QGAM] = [ 11.97, 23.94] = [ 40.13,160.53] Ry 
 Optimized for a Real-space Cutoff    1.18 Angstroem

   l    n(q)    QCUT    max X(q) W(low)/X(q) W(high)/X(q)  e(spline) 
   0      8    11.971    19.460    0.15E-03    0.31E-03    0.25E-06
   0      8    11.971    12.209    0.13E-03    0.29E-03    0.25E-06
   1      8    11.971     4.655    0.22E-03    0.24E-03    0.21E-06
  PAW_PBE Pt 04Feb2005                  :
 energy of atom  1       EATOM= -729.1176
 kinetic energy error for atom=    0.0021 (will be added to EATOM!!)
  PAW_PBE H 15Jun2001                   :
 energy of atom  2       EATOM=  -12.4884
 kinetic energy error for atom=    0.0008 (will be added to EATOM!!)
 
 
 POSCAR: Pt111                                   
  positions in direct lattice
  velocities in cartesian coordinates
  No initial velocities read in
 exchange correlation table for  LEXCH =        8
   RHO(1)=    0.500       N(1)  =     2000
   RHO(2)=  100.500       N(2)  =     4000
 


--------------------------------------------------------------------------------------------------------


 ion  position               nearest neighbor table
   1  0.783  0.870  0.326-  20 2.73  71 2.73  55 2.73  27 2.78  35 2.79  34 2.79  43 2.79  56 2.80
                            73 2.80   3 2.81  72 2.81   2 2.81
   2  0.033  0.871  0.327-  65 2.73  55 2.73  68 2.74  27 2.78  39 2.78  29 2.79  72 2.79   3 2.81
                            47 2.81  23 2.81   1 2.81  57 2.82
   3  0.034  0.620  0.327-  76 2.73  12 2.73  55 2.73  35 2.78  28 2.78  39 2.78   9 2.80  57 2.80
                             2 2.81   1 2.81  56 2.81  15 2.82
   4  0.788  0.867  0.024-  21 2.78  78 2.78  19 2.78  44 2.80   6 2.80  74 2.81  75 2.81  58 2.82
                             5 2.82
   5  0.039  0.866  0.024-  70 2.78  49 2.78  59 2.78  78 2.79  24 2.80   6 2.81  74 2.81   4 2.82
                            48 2.82
   6  0.037  0.617  0.024-  70 2.78  46 2.78  21 2.78  10 2.79   4 2.80   5 2.81  59 2.81  58 2.81
                            18 2.81
   7  0.620  0.202  0.126-  71 2.72  79 2.73  80 2.74  42 2.78  44 2.78  74 2.79  22 2.80  53 2.80
                            11 2.81  78 2.81  61 2.81  19 2.82
   8  0.370  0.952  0.126-  69 2.73  66 2.73  26 2.74  16 2.78  24 2.78  75 2.79  25 2.80  49 2.80
                            19 2.80  54 2.81  53 2.81  60 2.81
   9  0.035  0.370  0.327-  12 2.73  77 2.73  62 2.74  28 2.77  33 2.78  30 2.78   3 2.80  47 2.81
                            63 2.81  13 2.81  15 2.81  56 2.81
  10  0.038  0.368  0.024-  54 2.78  46 2.78  45 2.79   6 2.79  18 2.80  58 2.80  48 2.80  16 2.80
                            64 2.82
  11  0.870  0.202  0.127-  65 2.72  77 2.73  79 2.74  64 2.77  74 2.78  48 2.78  45 2.80  49 2.81
                             7 2.81  54 2.81  78 2.81  22 2.82
  12  0.951  0.536  0.227-   9 2.73  21 2.73   3 2.73  56 2.73  45 2.73  46 2.74  77 2.80  55 2.80
                            20 2.80  67 2.81  76 2.81  62 2.82
  13  0.285  0.119  0.327-  62 2.73  26 2.73  69 2.74  36 2.78  33 2.78  31 2.78  73 2.80  43 2.80
                            47 2.81   9 2.81  23 2.81  15 2.81
  14  0.534  0.619  0.327-  51 2.73  66 2.73  67 2.74  38 2.78  52 2.78  37 2.79  41 2.80  57 2.80
                            73 2.80  56 2.81  23 2.81  63 2.81
  15  0.285  0.370  0.327-  76 2.73  62 2.73  80 2.74  36 2.77  50 2.78  28 2.78  57 2.80  41 2.80
                            43 2.81   9 2.81  13 2.81   3 2.82
  16  0.288  0.118  0.024-   8 2.78  53 2.78  54 2.79  18 2.79  48 2.80  10 2.80  24 2.81  44 2.81
                            75 2.81
  17  0.537  0.617  0.023-  25 2.78  22 2.78  60 2.80  42 2.80  58 2.80  75 2.80  64 2.80  59 2.81
                            24 2.81
  18  0.288  0.367  0.024-  53 2.77  61 2.78  42 2.79  16 2.79  46 2.79  10 2.80  59 2.81  44 2.81
                             6 2.81
  19  0.620  0.951  0.126-  71 2.73  20 2.73  69 2.74  44 2.77  75 2.78   4 2.78  21 2.80  53 2.80
                             8 2.80  25 2.81  78 2.81   7 2.82
  20  0.700  0.786  0.226-   1 2.73  19 2.73  25 2.73  56 2.73  73 2.74  21 2.74  69 2.79  67 2.80
                            66 2.80  12 2.80  55 2.81  71 2.81
  21  0.869  0.701  0.127-  12 2.73  55 2.73  20 2.74   4 2.78  58 2.78   6 2.78  19 2.80  45 2.80
                            46 2.81  25 2.81  70 2.81  78 2.81
  22  0.619  0.452  0.126-  79 2.73  67 2.73  51 2.74  42 2.78  17 2.78  64 2.79   7 2.80  25 2.80
                            61 2.80  60 2.80  45 2.81  11 2.82
  23  0.283  0.870  0.327-  26 2.73  68 2.73  66 2.74  29 2.78  31 2.79  37 2.79  47 2.80  57 2.80
                            73 2.80   2 2.81  14 2.81  13 2.81
  24  0.288  0.868  0.023-   8 2.78  60 2.78  49 2.79  75 2.80   5 2.80  48 2.80  16 2.81  17 2.81
                            59 2.82
  25  0.618  0.702  0.126-  67 2.73  20 2.73  66 2.75  75 2.77  17 2.78  58 2.79   8 2.80  60 2.80
                            22 2.80  45 2.81  21 2.81  19 2.81
  26  0.203  0.036  0.227-  54 2.72  23 2.73  49 2.73  47 2.73  13 2.73   8 2.74  66 2.80  69 2.80
                            65 2.81  68 2.81  77 2.81  62 2.81
  27  0.865  0.953  0.429-   1 2.78   2 2.78  72 2.78  40 2.79  35 2.79  39 2.80  34 2.80  32 2.81
                            29 2.83
  28  0.117  0.453  0.429-   9 2.77   3 2.78  15 2.78  36 2.80  35 2.80  33 2.81  30 2.81  39 2.81
                            50 2.82
  29  0.117  0.954  0.429-  23 2.78  47 2.78   2 2.79  32 2.79  33 2.80  39 2.80  37 2.80  31 2.81
                            27 2.83
  30  0.867  0.453  0.429-  56 2.78  63 2.78   9 2.78  38 2.80  35 2.80  52 2.80  33 2.81  28 2.81
                            32 2.82
  31  0.368  0.953  0.430-  13 2.78  73 2.78  23 2.79  34 2.79  52 2.80  37 2.81  29 2.81  33 2.81
                            36 2.82
  32  0.867  0.202  0.429-  72 2.77  63 2.78  47 2.78  29 2.79  40 2.80  38 2.81  27 2.81  33 2.81
                            30 2.82
  33  0.117  0.203  0.429-   9 2.78  47 2.78  13 2.78  29 2.80  28 2.81  30 2.81  32 2.81  31 2.81
                            36 2.81
  34  0.616  0.952  0.430-  73 2.78  43 2.78  31 2.79   1 2.79  52 2.80  27 2.80  36 2.81  35 2.81
                            40 2.81
  35  0.867  0.703  0.429-   3 2.78  56 2.78   1 2.79  27 2.79  39 2.80  30 2.80  28 2.80  34 2.81
                            52 2.82
  36  0.367  0.204  0.430-  15 2.77  13 2.78  43 2.79  40 2.80  28 2.80  50 2.80  34 2.81  33 2.81
                            31 2.82
  37  0.366  0.703  0.430-  81 1.75  57 2.78  23 2.79  14 2.79  50 2.80  39 2.80  29 2.80  31 2.81
                            52 2.81  38 2.82
  38  0.618  0.453  0.430-  81 1.75  14 2.78  41 2.78  63 2.79  30 2.80  50 2.80  52 2.80  32 2.81
                            40 2.81  37 2.82
  39  0.116  0.705  0.430-   3 2.78  57 2.78   2 2.78  37 2.80  35 2.80  27 2.80  29 2.80  28 2.81
                            50 2.83
  40  0.618  0.202  0.429-  43 2.78  41 2.78  72 2.79  27 2.79  36 2.80  32 2.80  50 2.80  38 2.81
                            34 2.81
  41  0.535  0.369  0.327-  80 2.73  51 2.73  79 2.74  40 2.78  38 2.78  50 2.78  14 2.80  72 2.80
                            63 2.80  15 2.80  43 2.81  57 2.82
  42  0.536  0.368  0.024-   7 2.78  22 2.78  18 2.79  61 2.79  59 2.80  17 2.80  44 2.81  64 2.81
                            74 2.83
  43  0.535  0.119  0.327-  80 2.73  69 2.73  71 2.74  40 2.78  34 2.78  36 2.79   1 2.79  13 2.80
                            72 2.80  15 2.81  73 2.81  41 2.81
  44  0.539  0.117  0.024-  19 2.77   7 2.78  53 2.79   4 2.80  42 2.81  74 2.81  16 2.81  18 2.81
                            75 2.81
  45  0.869  0.452  0.127-  77 2.72  12 2.73  67 2.74  58 2.77  64 2.78  10 2.79  11 2.80  21 2.80
                            25 2.81  22 2.81  54 2.81  46 2.81
  46  0.120  0.452  0.127-  62 2.73  76 2.73  12 2.74  10 2.78   6 2.78  18 2.79  54 2.80  70 2.80
                            61 2.80  21 2.81  45 2.81  53 2.82
  47  0.035  0.120  0.326-  77 2.73  26 2.73  65 2.73  32 2.78  33 2.78  29 2.78  23 2.80  63 2.80
                             2 2.81   9 2.81  13 2.81  72 2.81
  48  0.038  0.118  0.024-  49 2.77  11 2.78  54 2.78  16 2.80  10 2.80  24 2.80  64 2.81  74 2.81
                             5 2.82
  49  0.120  0.952  0.127-  68 2.73  26 2.73  65 2.74  48 2.77   5 2.78  24 2.79  60 2.80   8 2.80
                            11 2.81  78 2.81  54 2.81  70 2.82
  50  0.369  0.453  0.430-  15 2.78  57 2.78  41 2.78  37 2.80  38 2.80  36 2.80  40 2.80  28 2.82
                            39 2.83
  51  0.451  0.536  0.227-  61 2.73  14 2.73  41 2.73  60 2.73  57 2.74  22 2.74  66 2.80  76 2.80
                            67 2.80  80 2.80  68 2.80  79 2.81
  52  0.616  0.703  0.430-  81 1.76  14 2.78  73 2.79  56 2.79  34 2.80  38 2.80  31 2.80  30 2.80
                            37 2.81  35 2.82
  53  0.371  0.201  0.127-  69 2.72  80 2.73  62 2.74  18 2.77  16 2.78  44 2.79  19 2.80   7 2.80
                            61 2.80  54 2.80   8 2.81  46 2.82
  54  0.121  0.202  0.127-  26 2.72  62 2.73  77 2.73  10 2.78  48 2.78  16 2.79  46 2.80  53 2.80
                             8 2.81  11 2.81  45 2.81  49 2.81
  55  0.951  0.786  0.227-  78 2.73  21 2.73   2 2.73   1 2.73   3 2.73  70 2.74  71 2.80  12 2.80
                            20 2.81  76 2.81  68 2.81  65 2.81
  56  0.784  0.620  0.327-  12 2.73  20 2.73  67 2.74  30 2.78  35 2.78  52 2.79  63 2.80   1 2.80
                            73 2.80  14 2.81   9 2.81   3 2.81
  57  0.284  0.620  0.327-  76 2.73  68 2.73  51 2.74  37 2.78  50 2.78  39 2.78  23 2.80  14 2.80
                            15 2.80   3 2.80   2 2.82  41 2.82
  58  0.787  0.616  0.024-  45 2.77  21 2.78  25 2.79  10 2.80  17 2.80  64 2.80  75 2.80   6 2.81
                             4 2.82
  59  0.287  0.618  0.024-  60 2.77  61 2.78   5 2.78  70 2.79  42 2.80   6 2.81  17 2.81  18 2.81
                            24 2.82
  60  0.369  0.702  0.126-  66 2.73  51 2.73  68 2.75  59 2.77  24 2.78  49 2.80  25 2.80  17 2.80
                            22 2.80  61 2.81  70 2.81   8 2.81
  61  0.369  0.452  0.127-  80 2.73  51 2.73  76 2.74  18 2.78  59 2.78  42 2.79  46 2.80  22 2.80
                            53 2.80  70 2.80  60 2.81   7 2.81
  62  0.203  0.286  0.227-  15 2.73  13 2.73  46 2.73  54 2.73   9 2.74  53 2.74  80 2.80  76 2.80
                            69 2.80  26 2.81  77 2.81  12 2.82
  63  0.785  0.370  0.326-  79 2.73  67 2.73  77 2.73  32 2.78  30 2.78  38 2.79  56 2.80  41 2.80
                            47 2.80   9 2.81  14 2.81  72 2.81
  64  0.787  0.367  0.024-  11 2.77  45 2.78  22 2.79  74 2.80  58 2.80  17 2.80  48 2.81  42 2.81
                            10 2.82
  65  0.952  0.036  0.226-  11 2.72   2 2.73  78 2.73  47 2.73  72 2.74  49 2.74  68 2.80  79 2.80
                            71 2.81  26 2.81  77 2.81  55 2.81
  66  0.451  0.786  0.227-  60 2.73  73 2.73   8 2.73  14 2.73  23 2.74  25 2.75  51 2.80  26 2.80
                            68 2.80  67 2.80  20 2.80  69 2.81
  67  0.701  0.536  0.226-  25 2.73  22 2.73  63 2.73  56 2.74  45 2.74  14 2.74  79 2.80  20 2.80
                            66 2.80  51 2.80  12 2.81  77 2.81
  68  0.201  0.786  0.227-  70 2.73  49 2.73  23 2.73  57 2.73   2 2.74  60 2.75  66 2.80  65 2.80
                            76 2.80  51 2.80  26 2.81  55 2.81
  69  0.452  0.035  0.227-  53 2.72  43 2.73   8 2.73  73 2.73  19 2.74  13 2.74  20 2.79  26 2.80
                            71 2.80  62 2.80  80 2.81  66 2.81
  70  0.119  0.702  0.127-  68 2.73  76 2.73  55 2.74   5 2.78   6 2.78  59 2.79  78 2.80  46 2.80
                            61 2.80  60 2.81  21 2.81  49 2.82
  71  0.702  0.036  0.226-   7 2.72  19 2.73  72 2.73   1 2.73  78 2.74  43 2.74  55 2.80  80 2.80
                            69 2.80  65 2.81  79 2.81  20 2.81
  72  0.784  0.119  0.326-  71 2.73  79 2.73  65 2.74  32 2.77  27 2.78   2 2.79  40 2.79  41 2.80
                            43 2.80   1 2.81  47 2.81  63 2.81
  73  0.533  0.869  0.327-  66 2.73  69 2.73  20 2.74  34 2.78  31 2.78  52 2.79  13 2.80  14 2.80
                            23 2.80   1 2.80  56 2.80  43 2.81
  74  0.789  0.117  0.024-  78 2.77  11 2.78   7 2.79  64 2.80  44 2.81   4 2.81  48 2.81   5 2.81
                            42 2.83
  75  0.538  0.867  0.023-  25 2.77  19 2.78   8 2.79  24 2.80  17 2.80  58 2.80   4 2.81  44 2.81
                            16 2.81
  76  0.201  0.536  0.227-  15 2.73  57 2.73  46 2.73  70 2.73   3 2.73  61 2.74  51 2.80  62 2.80
                            68 2.80  55 2.81  12 2.81  80 2.82
  77  0.952  0.286  0.227-  45 2.72  47 2.73  11 2.73   9 2.73  54 2.73  63 2.73  12 2.80  79 2.81
                            65 2.81  26 2.81  62 2.81  67 2.81
  78  0.870  0.951  0.126-  55 2.73  65 2.73  71 2.74  74 2.77   4 2.78   5 2.79  70 2.80  49 2.81
                             7 2.81  19 2.81  21 2.81  11 2.81
  79  0.702  0.286  0.226-  22 2.73  63 2.73   7 2.73  72 2.73  11 2.74  41 2.74  67 2.80  80 2.80
                            65 2.80  77 2.81  51 2.81  71 2.81
  80  0.453  0.286  0.227-  61 2.73  41 2.73  53 2.73  43 2.73  15 2.74   7 2.74  62 2.80  71 2.80
                            79 2.80  51 2.80  69 2.81  76 2.82
  81  0.533  0.619  0.460-  38 1.75  37 1.75  52 1.76
 
  LATTYP: Found a hexagonal cell.
 ALAT       =    11.2227001190
 C/A-ratio  =     1.9603125600
  
  Lattice vectors:
  
 A1 = (   5.6113500595,  -9.7191434021,   0.0000000000)
 A2 = ( -11.2227001190,   0.0000000000,   0.0000000000)
 A3 = (   0.0000000000,   0.0000000000, -22.0000000000)


Analysis of symmetry for initial positions (statically):
=====================================================================
 Subroutine PRICEL returns:
 Original cell was already a primitive cell.
 

 Routine SETGRP: Setting up the symmetry group for a 
 hexagonal supercell.


 Subroutine GETGRP returns: Found  1 space group operations
 (whereof  1 operations were pure point group operations)
 out of a pool of 24 trial point group operations.


The static configuration has the point symmetry C_1 .


Analysis of symmetry for dynamics (positions and initial velocities):
=====================================================================
 Subroutine PRICEL returns:
 Original cell was already a primitive cell.
 

 Routine SETGRP: Setting up the symmetry group for a 
 hexagonal supercell.


 Subroutine GETGRP returns: Found  1 space group operations
 (whereof  1 operations were pure point group operations)
 out of a pool of 24 trial point group operations.


The dynamic configuration has the point symmetry C_1 .


Analysis of structural, dynamic, and magnetic symmetry:
=====================================================================
 Subroutine PRICEL returns:
 Original cell was already a primitive cell.
 

 Routine SETGRP: Setting up the symmetry group for a 
 hexagonal supercell.


 Subroutine GETGRP returns: Found  1 space group operations
 (whereof  1 operations were pure point group operations)
 out of a pool of 24 trial point group operations.


The magnetic configuration has the point symmetry C_1 .


 Subroutine INISYM returns: Found  1 space group operations
 (whereof  1 operations are pure point group operations),
 and found     1 'primitive' translations

 
 
 KPOINTS: mesh auto                               

Automatic generation of k-mesh.
Space group operators:
 irot       det(A)        alpha          n_x          n_y          n_z        tau_x        tau_y        tau_z
    1     1.000000     0.000000     1.000000     0.000000     0.000000     0.000000     0.000000     0.000000
 
 Subroutine IBZKPT returns following result:
 ===========================================
 
 Found      4 irreducible k-points:
 
 Following reciprocal coordinates:
            Coordinates               Weight
  0.000000  0.000000  0.000000      1.000000
  0.500000  0.000000  0.000000      1.000000
  0.000000  0.500000  0.000000      1.000000
  0.500000  0.500000  0.000000      1.000000
 
 Following cartesian coordinates:
            Coordinates               Weight
  0.000000  0.000000  0.000000      1.000000
  0.044553 -0.025722  0.000000      1.000000
  0.000000  0.051445  0.000000      1.000000
  0.044553  0.025722  0.000000      1.000000
 


--------------------------------------------------------------------------------------------------------




 Dimension of arrays:
   k-points           NKPTS =      4   k-points in BZ     NKDIM =      4   number of bands    NBANDS=    530
   number of dos      NEDOS =    301   number of ions     NIONS =     81
   non local maximal  LDIM  =      6   non local SUM 2l+1 LMDIM =     18
   total plane-waves  NPLWV = ******
   max r-space proj   IRMAX =   7929   max aug-charges    IRDMAX=  34542
   dimension x,y,z NGX =    90 NGY =   90 NGZ =  168
   dimension x,y,z NGXF=   180 NGYF=  180 NGZF=  336
   support grid    NGXF=   180 NGYF=  180 NGZF=  336
   ions per type =              80   1
   NGX,Y,Z   is equivalent  to a cutoff of  13.33, 13.33, 12.70 a.u.
   NGXF,Y,Z  is equivalent  to a cutoff of  26.66, 26.66, 25.39 a.u.

 SYSTEM =  Pt111                                   
 POSCAR =  Pt111                                   

 Startparameter for this run:
   NWRITE =      2    write-flag & timer
   PREC   = accura    normal or accurate (medium, high low for compatibility)
   ISTART =      0    job   : 0-new  1-cont  2-samecut
   ICHARG =      2    charge: 1-file 2-atom 10-const
   ISPIN  =      2    spin polarized calculation?
   LNONCOLLINEAR =      F non collinear calculations
   LSORBIT =      F    spin-orbit coupling
   INIWAV =      1    electr: 0-lowe 1-rand  2-diag
   LASPH  =      F    aspherical Exc in radial PAW
   METAGGA=      F    non-selfconsistent MetaGGA calc.

 Electronic Relaxation 1
   ENCUT  =  550.0 eV  40.42 Ry    6.36 a.u.  21.46 21.46 42.07*2*pi/ulx,y,z
   ENINI  =  550.0     initial cutoff
   ENAUG  =  400.0 eV  augmentation charge cutoff
   NELM   =    200;   NELMIN=  2; NELMDL= -5     # of ELM steps 
   EDIFF  = 0.1E-04   stopping-criterion for ELM
   LREAL  =      T    real-space projection
   NLSPLINE    = F    spline interpolate recip. space projectors
   LCOMPAT=      F    compatible to vasp.4.4
   GGA_COMPAT  = T    GGA compatible to vasp.4.4-vasp.4.6
   LMAXPAW     = -100 max onsite density
   LMAXMIX     =    2 max onsite mixed and CHGCAR
   VOSKOWN=      0    Vosko Wilk Nusair interpolation
   ROPT   =   -0.00025  -0.00025
 Ionic relaxation
   EDIFFG = -.5E-01   stopping-criterion for IOM
   NSW    =    300    number of steps for IOM
   NBLOCK =      1;   KBLOCK =    300    inner block; outer block 
   IBRION =      2    ionic relax: 0-MD 1-quasi-New 2-CG
   NFREE  =      1    steps in history (QN), initial steepest desc. (CG)
   ISIF   =      2    stress and relaxation
   IWAVPR =     11    prediction:  0-non 1-charg 2-wave 3-comb
   ISYM   =      2    0-nonsym 1-usesym 2-fastsym
   LCORR  =      T    Harris-Foulkes like correction to forces

   POTIM  = 0.5000    time-step for ionic-motion
   TEIN   =    0.0    initial temperature
   TEBEG  =    0.0;   TEEND  =   0.0 temperature during run
   SMASS  =  -3.00    Nose mass-parameter (am)
   estimated Nose-frequenzy (Omega)   =  0.10E-29 period in steps =****** mass=  -0.288E-26a.u.
   SCALEE = 1.0000    scale energy and forces
   NPACO  =    256;   APACO  = 16.0  distance and # of slots for P.C.
   PSTRESS=    0.0 pullay stress

  Mass of Ions in am
   POMASS = 195.08  1.00
  Ionic Valenz
   ZVAL   =  10.00  1.00
  Atomic Wigner-Seitz radii
   RWIGS  =  -1.00 -1.00
  virtual crystal weights 
   VCA    =   1.00  1.00
   NELECT =     801.0000    total number of electrons
   NUPDOWN=      -1.0000    fix difference up-down

 DOS related values:
   EMIN   =  10.00;   EMAX   =-10.00  energy-range for DOS
   EFERMI =   0.00
   ISMEAR =     1;   SIGMA  =   0.10  broadening in eV -4-tet -1-fermi 0-gaus

 Electronic relaxation 2 (details)
   IALGO  =     68    algorithm
   LDIAG  =      T    sub-space diagonalisation (order eigenvalues)
   LSUBROT=      F    optimize rotation matrix (better conditioning)
   TURBO    =      0    0=normal 1=particle mesh
   IRESTART =      0    0=no restart 2=restart with 2 vectors
   NREBOOT  =      0    no. of reboots
   NMIN     =      0    reboot dimension
   EREF     =   0.00    reference energy to select bands
   IMIX   =      4    mixing-type and parameters
     AMIX     =   0.40;   BMIX     =  1.00
     AMIX_MAG =   1.60;   BMIX_MAG =  1.00
     AMIN     =   0.10
     WC   =   100.;   INIMIX=   1;  MIXPRE=   1;  MAXMIX= -45

 Intra band minimization:
   WEIMIN = 0.0010     energy-eigenvalue tresh-hold
   EBREAK =  0.47E-08  absolut break condition
   DEPER  =   0.30     relativ break condition  

   TIME   =   0.40     timestep for ELM

  volume/ion in A,a.u.               =      29.63       199.92
  Fermi-wavevector in a.u.,A,eV,Ry     =   1.135629  2.146027 17.546785  1.289652
  Thomas-Fermi vector in A             =   2.272333
 
 Write flags
   LWAVE        =      F    write WAVECAR
   LDOWNSAMPLE  =      F    k-point downsampling of WAVECAR
   LCHARG       =      F    write CHGCAR
   LVTOT        =      F    write LOCPOT, total local potential
   LVHAR        =      F    write LOCPOT, Hartree potential only
   LELF         =      F    write electronic localiz. function (ELF)
   LORBIT       =      0    0 simple, 1 ext, 2 COOP (PROOUT), +10 PAW based schemes


 Dipole corrections
   LMONO  =      F    monopole corrections only (constant potential shift)
   LDIPOL =      F    correct potential (dipole corrections)
   IDIPOL =      0    1-x, 2-y, 3-z, 4-all directions 
   EPSILON=  1.0000000 bulk dielectric constant

 Exchange correlation treatment:
   GGA     =    --    GGA type
   LEXCH   =     8    internal setting for exchange type
   VOSKOWN=      0    Vosko Wilk Nusair interpolation
   LHFCALC =     F    Hartree Fock is set to
   LHFONE  =     F    Hartree Fock one center treatment
   AEXX    =    0.0000 exact exchange contribution

 Linear response parameters
   LEPSILON=     F    determine dielectric tensor
   LRPA    =     F    only Hartree local field effects (RPA)
   LNABLA  =     F    use nabla operator in PAW spheres
   LVEL    =     F    velocity operator in full k-point grid
   LINTERFAST=   F  fast interpolation
   KINTER  =     0    interpolate to denser k-point grid
   CSHIFT  =0.1000    complex shift for real part using Kramers Kronig
   OMEGAMAX=  -1.0    maximum frequency
   DEG_THRESHOLD= 0.2000000E-02 threshold for treating states as degnerate
   RTIME   =   -0.100 relaxation time in fs
  (WPLASMAI=    0.000 imaginary part of plasma frequency in eV, 0.658/RTIME)
   DFIELD  = 0.0000000 0.0000000 0.0000000 field for delta impulse in time
 
 Orbital magnetization related:
   ORBITALMAG=     F  switch on orbital magnetization
   LCHIMAG   =     F  perturbation theory with respect to B field
   DQ        =  0.001000  dq finite difference perturbation B field
   LLRAUG    =     F  two centre corrections for induced B field



--------------------------------------------------------------------------------------------------------


 conjugate gradient relaxation of ions
 charge density and potential will be updated during run
 spin polarized calculation
 RMM-DIIS sequential band-by-band and
  variant of blocked Davidson during initial phase
 perform sub-space diagonalisation
    before iterative eigenvector-optimisation
 modified Broyden-mixing scheme, WC =      100.0
 initial mixing is a Kerker type mixing with AMIX =  0.4000 and BMIX =      1.0000
 Hartree-type preconditioning will be used
 using additional bands          129
 real space projection scheme for non local part
 use partial core corrections
 calculate Harris-corrections to forces 
   (improved forces if not selfconsistent)
 use gradient corrections 
 use of overlap-Matrix (Vanderbilt PP)
 Methfessel and Paxton  Order N= 1 SIGMA  =   0.10


--------------------------------------------------------------------------------------------------------


  energy-cutoff  :      550.00
  volume of cell :     2399.65
      direct lattice vectors                 reciprocal lattice vectors
    11.222700119  0.000000000  0.000000000     0.089105116 -0.051444863  0.000000000
     5.611350060  9.719143402  0.000000000     0.000000000  0.102889726  0.000000000
     0.000000000  0.000000000 22.000000000     0.000000000  0.000000000  0.045454545

  length of vectors
    11.222700119 11.222700119 22.000000000     0.102889726  0.102889726  0.045454545


 
 k-points in units of 2pi/SCALE and weight: mesh auto                               
   0.00000000  0.00000000  0.00000000       0.250
   0.04455256 -0.02572243  0.00000000       0.250
   0.00000000  0.05144486  0.00000000       0.250
   0.04455256  0.02572243  0.00000000       0.250
 
 k-points in reciprocal lattice and weights: mesh auto                               
   0.00000000  0.00000000  0.00000000       0.250
   0.50000000  0.00000000  0.00000000       0.250
   0.00000000  0.50000000  0.00000000       0.250
   0.50000000  0.50000000  0.00000000       0.250
 
 position of ions in fractional coordinates (direct lattice) 
   0.78285249  0.86958112  0.32632110
   0.03272566  0.87077083  0.32655064
   0.03386912  0.62016396  0.32689126
   0.78770805  0.86721782  0.02369474
   0.03934512  0.86613806  0.02391227
   0.03714436  0.61725294  0.02418593
   0.62022090  0.20185919  0.12643548
   0.37006139  0.95152562  0.12648463
   0.03482814  0.36988505  0.32684378
   0.03801677  0.36805671  0.02432800
   0.87040561  0.20185206  0.12663649
   0.95091950  0.53621608  0.22693567
   0.28502747  0.11936912  0.32701242
   0.53358368  0.61943576  0.32694926
   0.28526899  0.36987403  0.32708023
   0.28780267  0.11807465  0.02401998
   0.53736070  0.61703677  0.02312277
   0.28819562  0.36685469  0.02440054
   0.61984917  0.95118953  0.12625532
   0.70049224  0.78562217  0.22644714
   0.86877765  0.70141017  0.12653819
   0.61862102  0.45201552  0.12646090
   0.28335818  0.86977773  0.32688577
   0.28793943  0.86801527  0.02347027
   0.61849418  0.70151320  0.12621454
   0.20250078  0.03565404  0.22678662
   0.86534653  0.95290497  0.42913125
   0.11741032  0.45324796  0.42938171
   0.11680753  0.95393801  0.42944464
   0.86687128  0.45344987  0.42939761
   0.36755745  0.95263365  0.42976576
   0.86728002  0.20222271  0.42879000
   0.11711821  0.20318283  0.42938175
   0.61593340  0.95229331  0.42951156
   0.86738546  0.70307730  0.42942952
   0.36740001  0.20388047  0.42959408
   0.36596442  0.70345638  0.43000530
   0.61794634  0.45283616  0.42961729
   0.11618302  0.70459067  0.42960481
   0.61761683  0.20223839  0.42932927
   0.53547107  0.36916394  0.32677809
   0.53630284  0.36800595  0.02381377
   0.53468942  0.11891174  0.32665727
   0.53878451  0.11660877  0.02375904
   0.86919974  0.45178938  0.12665798
   0.11967918  0.45191878  0.12732364
   0.03460856  0.11987569  0.32642056
   0.03842758  0.11809966  0.02425102
   0.12032559  0.95177815  0.12659525
   0.36856369  0.45304269  0.42962551
   0.45098294  0.53623860  0.22687244
   0.61646134  0.70285863  0.42979542
   0.37096328  0.20126851  0.12691347
   0.12070997  0.20223601  0.12715904
   0.95050311  0.78609686  0.22655288
   0.78353054  0.61970191  0.32676770
   0.28374931  0.62012828  0.32714466
   0.78727945  0.61647671  0.02362530
   0.28702703  0.61754617  0.02398694
   0.36897233  0.70185508  0.12640073
   0.36908939  0.45183140  0.12708179
   0.20324402  0.28576853  0.22720979
   0.78478962  0.36956703  0.32647683
   0.78704340  0.36690387  0.02397947
   0.95192023  0.03616888  0.22627349
   0.45073617  0.78550421  0.22662200
   0.70058490  0.53619773  0.22648699
   0.20094012  0.78606011  0.22678767
   0.45230632  0.03531359  0.22658454
   0.11904825  0.70151079  0.12698740
   0.70180678  0.03576327  0.22611924
   0.78438568  0.11921387  0.32617624
   0.53328076  0.86909905  0.32664587
   0.78885100  0.11683920  0.02396434
   0.53776417  0.86652142  0.02337092
   0.20142634  0.53624396  0.22729539
   0.95232412  0.28637455  0.22666136
   0.87038089  0.95121854  0.12629720
   0.70211037  0.28623016  0.22641872
   0.45273497  0.28567567  0.22686156
   0.53300000  0.61900000  0.46000000
 
 position of ions in cartesian coordinates  (Angst):
  13.66524277  8.45158357  7.17906429
   5.25347023  8.46314661  7.18411401
   3.86006006  6.02746246  7.19160780
  13.70647401  8.42861437  0.52128432
   5.30176235  8.41811997  0.52606995
   3.88048232  5.99916984  0.53209056
   8.09325571  1.96189843  2.78158065
   9.49243131  9.24801393  2.78266196
   2.46642024  3.59496586  7.19056327
   2.49194587  3.57719596  0.53521602
  10.90096369  1.96182915  2.78600268
  13.68078057  5.21156098  4.99258479
   3.86859968  1.16016557  7.19427334
   9.46412054  6.02038497  7.19288374
   5.27698102  3.59485870  7.19576507
   3.89248117  1.14758441  0.52843966
   9.49304735  5.99706884  0.50870087
   5.29288315  3.56551338  0.53681181
  12.29383884  9.24474748  2.77761706
  12.26981536  7.63557451  4.98183717
  13.68588906  6.81710599  2.78384011
   9.47901557  4.39320369  2.78213972
   8.06067118  8.45349449  7.19148696
   8.10219538  8.43636490  0.51634604
  10.87761082  6.81810735  2.77671989
   2.47267281  0.34652669  4.98930564
  15.05860795  9.26142002  9.44088741
   3.86099380  4.40518197  9.44639767
   6.66377604  9.27146032  9.44778202
  12.27310233  4.40714427  9.44674746
   9.47054796  9.25878303  9.45484669
  10.86796597  1.96543150  9.43337995
   2.45451248  1.97476306  9.44639856
  12.25608696  9.25547520  9.44925424
  13.67961972  6.83330912  9.44744943
   5.26726482  1.98154355  9.45106985
   8.05444891  6.83699340  9.46011671
   9.47604863  4.40117958  9.45158043
   5.25759215  6.84801780  9.45130578
   8.06615889  1.96558391  9.44524397
   8.08093939  3.58795731  7.18911796
   8.08377616  3.57670262  0.52390294
   6.66791445  1.15572027  7.18645985
   6.70094963  1.13333732  0.52269881
  12.28991640  4.39100581  2.78647565
   3.87899800  4.39226343  2.80112002
   1.06106598  1.16508905  7.18125228
   1.09395970  1.14782750  0.53352236
   6.69113843  9.25046830  2.78509554
   6.67846086  4.40318689  9.45176114
   8.07026877  5.21177984  4.99119366
  10.86234654  6.83118383  9.45549918
   5.29259770  1.95615748  2.79209629
   2.48950887  1.96556077  2.79749892
  15.07827604  7.64018808  4.98416337
  12.27069268  6.02297171  7.18888934
   6.66419029  6.02711572  7.19718260
  12.29466776  5.99162556  0.51975659
   6.68648604  6.00201977  0.52771278
   8.07922037  6.82143020  2.78081604
   6.67756371  4.39141414  2.79579936
   3.88449389  2.77742530  4.99861545
  10.88122859  3.59187500  7.18249034
  10.89157816  3.56599132  0.52754845
  10.88607151  0.35153050  4.97801684
   9.46621590  7.63442803  4.98568407
  10.87124741  5.21138258  4.98271380
   6.66594914  7.63983089  4.98932866
   5.27425516  0.34321789  4.98485990
   5.27246537  6.81808393  2.79372283
   8.07684730  0.34758833  4.97462333
   9.47187599  1.15865667  7.17587733
  10.86166904  8.44689826  7.18620906
   9.50866384  1.13557694  0.52721542
  10.89752105  8.42184593  0.51416023
   5.26959998  5.21183196  5.00049850
  12.29459589  2.78331534  4.98655001
  15.10564395  9.24502942  2.77853829
   9.48571174  2.78191196  4.98121194
   6.68393501  2.77652281  4.99095430
   9.45512485  6.01614977 10.12000000
 


--------------------------------------------------------------------------------------------------------


 k-point  1 :   0.0000 0.0000 0.0000  plane waves:   70321
 k-point  2 :   0.5000 0.0000 0.0000  plane waves:   70264
 k-point  3 :   0.0000 0.5000 0.0000  plane waves:   70264
 k-point  4 :   0.5000 0.5000 0.0000  plane waves:   70264

 maximum and minimum number of plane-waves per node :     17611    17530

 maximum number of plane-waves:     70321
 maximum index in each direction: 
   IXMAX=   21   IYMAX=   21   IZMAX=   42
   IXMIN=  -21   IYMIN=  -21   IZMIN=  -42


 real space projection operators:
  total allocation   :      86166.95 KBytes
  max/ min on nodes  :      22019.80      21070.05


 parallel 3D FFT for wavefunctions:
    minimum data exchange during FFTs selected (reduces bandwidth)
 parallel 3D FFT for charge:
    minimum data exchange during FFTs selected (reduces bandwidth)


 total amount of memory used by VASP MPI-rank0   262828. kBytes
=======================================================================

   base      :      30000. kBytes
   nonlr-proj:      37990. kBytes
   fftplans  :      20287. kBytes
   grid      :      52194. kBytes
   one-center:        653. kBytes
   wavefun   :     121704. kBytes
 
     INWAV:  cpu time    0.0000: real time    0.0000
 Broyden mixing: mesh for mixing (old mesh)
   NGX = 43   NGY = 43   NGZ = 85
  (NGX  =180   NGY  =180   NGZ  =336)
  gives a total of 157165 points

 initial charge density was supplied:
 charge density of overlapping atoms calculated
 number of electron     801.0000000 magnetization      81.0000000
 keeping initial charge density in first step


--------------------------------------------------------------------------------------------------------


 Maximum index for non-local projection operator         2105
 Maximum index for augmentation-charges         1781 (set IRDMAX)


--------------------------------------------------------------------------------------------------------


 First call to EWALD:  gamma=   0.132
 Maximum number of real-space cells 4x 4x 2
 Maximum number of reciprocal cells 2x 2x 4

    FEWALD:  cpu time    0.0041: real time    0.0041


--------------------------------------- Iteration      1(   1)  ---------------------------------------


    POTLOK:  cpu time    0.4870: real time    0.4913
    SETDIJ:  cpu time    0.0389: real time    0.0392
     EDDAV:  cpu time   67.9376: real time   68.1863
       DOS:  cpu time    0.0020: real time    0.0021
    --------------------------------------------
      LOOP:  cpu time   68.4656: real time   68.7190

 eigenvalue-minimisations  :  8480
 total energy-change (2. order) : 0.5508989E+04  (-0.3887665E+05)
 number of electron     801.0000000 magnetization      81.0000000
 augmentation part      801.0000000 magnetization      81.0000000

 Free energy of the ion-electron system (eV)
  ---------------------------------------------------
  alpha Z        PSCENC =      2539.23836485
  Ewald energy   TEWEN  =    180560.66003750
  -Hartree energ DENC   =   -244621.23439696
  -exchange      EXHF   =         0.00000000
  -V(xc)+E(xc)   XCENC  =       290.70372882
  PAW double counting   =     55685.49641431   -53423.17961727
  entropy T*S    EENTRO =        -0.00211670
  eigenvalues    EBANDS =      6135.57488829
  atomic energy  EATOM  =     58341.73154849
  Solvation  Ediel_sol  =         0.00000000
  ---------------------------------------------------
  free energy    TOTEN  =      5508.98885134 eV

  energy without entropy =     5508.99096804  energy(sigma->0) =     5508.98955690


--------------------------------------------------------------------------------------------------------




--------------------------------------- Iteration      1(   2)  ---------------------------------------


     EDDAV:  cpu time   74.3145: real time   74.5252
       DOS:  cpu time    0.0020: real time    0.0020
    --------------------------------------------
      LOOP:  cpu time   74.3165: real time   74.5272

 eigenvalue-minimisations  :  9520
 total energy-change (2. order) :-0.5696177E+04  (-0.5217448E+04)
 number of electron     801.0000000 magnetization      81.0000000
 augmentation part      801.0000000 magnetization      81.0000000

 Free energy of the ion-electron system (eV)
  ---------------------------------------------------
  alpha Z        PSCENC =      2539.23836485
  Ewald energy   TEWEN  =    180560.66003750
  -Hartree energ DENC   =   -244621.23439696
  -exchange      EXHF   =         0.00000000
  -V(xc)+E(xc)   XCENC  =       290.70372882
  PAW double counting   =     55685.49641431   -53423.17961727
  entropy T*S    EENTRO =         0.00075041
  eigenvalues    EBANDS =       439.39479714
  atomic energy  EATOM  =     58341.73154849
  Solvation  Ediel_sol  =         0.00000000
  ---------------------------------------------------
  free energy    TOTEN  =      -187.18837270 eV

  energy without entropy =     -187.18912311  energy(sigma->0) =     -187.18862284


--------------------------------------------------------------------------------------------------------




--------------------------------------- Iteration      1(   3)  ---------------------------------------


     EDDAV:  cpu time   74.5192: real time   74.7092
       DOS:  cpu time    0.0020: real time    0.0020
    --------------------------------------------
      LOOP:  cpu time   74.5213: real time   74.7112

 eigenvalue-minimisations  :  9590
 total energy-change (2. order) :-0.2987390E+03  (-0.2748825E+03)
 number of electron     801.0000000 magnetization      81.0000000
 augmentation part      801.0000000 magnetization      81.0000000

 Free energy of the ion-electron system (eV)
  ---------------------------------------------------
  alpha Z        PSCENC =      2539.23836485
  Ewald energy   TEWEN  =    180560.66003750
  -Hartree energ DENC   =   -244621.23439696
  -exchange      EXHF   =         0.00000000
  -V(xc)+E(xc)   XCENC  =       290.70372882
  PAW double counting   =     55685.49641431   -53423.17961727
  entropy T*S    EENTRO =         0.10571696
  eigenvalues    EBANDS =       140.55084053
  atomic energy  EATOM  =     58341.73154849
  Solvation  Ediel_sol  =         0.00000000
  ---------------------------------------------------
  free energy    TOTEN  =      -485.92736277 eV

  energy without entropy =     -486.03307973  energy(sigma->0) =     -485.96260175


--------------------------------------------------------------------------------------------------------




--------------------------------------- Iteration      1(   4)  ---------------------------------------


     EDDAV:  cpu time   77.2575: real time   77.4543
       DOS:  cpu time    0.0021: real time    0.0021
    --------------------------------------------
      LOOP:  cpu time   77.2596: real time   77.4565

 eigenvalue-minimisations  : 10040
 total energy-change (2. order) :-0.7935863E+01  (-0.7851560E+01)
 number of electron     801.0000000 magnetization      81.0000000
 augmentation part      801.0000000 magnetization      81.0000000

 Free energy of the ion-electron system (eV)
  ---------------------------------------------------
  alpha Z        PSCENC =      2539.23836485
  Ewald energy   TEWEN  =    180560.66003750
  -Hartree energ DENC   =   -244621.23439696
  -exchange      EXHF   =         0.00000000
  -V(xc)+E(xc)   XCENC  =       290.70372882
  PAW double counting   =     55685.49641431   -53423.17961727
  entropy T*S    EENTRO =         0.10250859
  eigenvalues    EBANDS =       132.61818596
  atomic energy  EATOM  =     58341.73154849
  Solvation  Ediel_sol  =         0.00000000
  ---------------------------------------------------
  free energy    TOTEN  =      -493.86322571 eV

  energy without entropy =     -493.96573429  energy(sigma->0) =     -493.89739523


--------------------------------------------------------------------------------------------------------




--------------------------------------- Iteration      1(   5)  ---------------------------------------


     EDDAV:  cpu time   75.9000: real time   76.0939
       DOS:  cpu time    0.0021: real time    0.0021
    CHARGE:  cpu time    5.1090: real time    5.1224
    MIXING:  cpu time    0.0104: real time    0.0113
    --------------------------------------------
      LOOP:  cpu time   81.0215: real time   81.2297

 eigenvalue-minimisations  :  9820
 total energy-change (2. order) :-0.2617924E+00  (-0.2611352E+00)
 number of electron     801.0000006 magnetization      75.7542637
 augmentation part      233.1216258 magnetization      55.0734690

 Broyden mixing:
  rms(total) = 0.10413E+02    rms(broyden)= 0.10413E+02
  rms(prec ) = 0.10541E+02
  weight for this iteration     100.00

 Free energy of the ion-electron system (eV)
  ---------------------------------------------------
  alpha Z        PSCENC =      2539.23836485
  Ewald energy   TEWEN  =    180560.66003750
  -Hartree energ DENC   =   -244621.23439696
  -exchange      EXHF   =         0.00000000
  -V(xc)+E(xc)   XCENC  =       290.70372882
  PAW double counting   =     55685.49641431   -53423.17961727
  entropy T*S    EENTRO =         0.10273174
  eigenvalues    EBANDS =       132.35617036
  atomic energy  EATOM  =     58341.73154849
  Solvation  Ediel_sol  =         0.00000000
  ---------------------------------------------------
  free energy    TOTEN  =      -494.12501815 eV

  energy without entropy =     -494.22774989  energy(sigma->0) =     -494.15926206


--------------------------------------------------------------------------------------------------------




--------------------------------------- Iteration      1(   6)  ---------------------------------------


    POTLOK:  cpu time    0.4733: real time    0.4744
    SETDIJ:  cpu time    0.0381: real time    0.0382
    EDDIAG:  cpu time   12.0367: real time   12.0676
  RMM-DIIS:  cpu time   43.0262: real time   43.1427
    ORTHCH:  cpu time    1.1808: real time    1.1836
       DOS:  cpu time    0.0020: real time    0.0020
    CHARGE:  cpu time    5.0333: real time    5.0452
    MIXING:  cpu time    0.0109: real time    0.0111
    --------------------------------------------
      LOOP:  cpu time   61.8013: real time   61.9650

 eigenvalue-minimisations  :  8525
 total energy-change (2. order) : 0.1611852E+02  (-0.8105986E+01)
 number of electron     801.0000003 magnetization      71.7538255
 augmentation part      245.9831523 magnetization      52.0890500

 Broyden mixing:
  rms(total) = 0.81023E+01    rms(broyden)= 0.81023E+01
  rms(prec ) = 0.88893E+01
  weight for this iteration     100.00

 eigenvalues of (default mixing * dielectric matrix)
  average eigenvalue GAMMA=   0.8451
  0.8451

 Free energy of the ion-electron system (eV)
  ---------------------------------------------------
  alpha Z        PSCENC =      2539.23836485
  Ewald energy   TEWEN  =    180560.66003750
  -Hartree energ DENC   =   -243646.86131246
  -exchange      EXHF   =         0.00000000
  -V(xc)+E(xc)   XCENC  =       273.21124885
  PAW double counting   =     62143.60650766   -60002.20025527
  entropy T*S    EENTRO =        -0.04593067
  eigenvalues    EBANDS =      -687.34670882
  atomic energy  EATOM  =     58341.73154849
  Solvation  Ediel_sol  =         0.00000000
  ---------------------------------------------------
  free energy    TOTEN  =      -478.00649986 eV

  energy without entropy =     -477.96056919  energy(sigma->0) =     -477.99118964


--------------------------------------------------------------------------------------------------------




--------------------------------------- Iteration      1(   7)  ---------------------------------------


    POTLOK:  cpu time    0.4678: real time    0.4689
    SETDIJ:  cpu time    0.0378: real time    0.0379
    EDDIAG:  cpu time   12.0324: real time   12.0612
  RMM-DIIS:  cpu time   42.3671: real time   42.4673
    ORTHCH:  cpu time    1.1812: real time    1.1840
       DOS:  cpu time    0.0021: real time    0.0021
    CHARGE:  cpu time    5.1472: real time    5.1595
    MIXING:  cpu time    0.0113: real time    0.0113
    --------------------------------------------
      LOOP:  cpu time   61.2468: real time   61.3921

 eigenvalue-minimisations  :  8511
 total energy-change (2. order) :-0.1096105E+03  (-0.1341033E+02)
 number of electron     801.0000011 magnetization      63.8963734
 augmentation part      239.7351069 magnetization      53.8240676

 Broyden mixing:
  rms(total) = 0.96889E+01    rms(broyden)= 0.96889E+01
  rms(prec ) = 0.12356E+02
  weight for this iteration     100.00

 eigenvalues of (default mixing * dielectric matrix)
  average eigenvalue GAMMA=   0.8077
  1.3271  0.2883

 Free energy of the ion-electron system (eV)
  ---------------------------------------------------
  alpha Z        PSCENC =      2539.23836485
  Ewald energy   TEWEN  =    180560.66003750
  -Hartree energ DENC   =   -244620.35739604
  -exchange      EXHF   =         0.00000000
  -V(xc)+E(xc)   XCENC  =       266.61944451
  PAW double counting   =     65610.44979348   -63506.90868983
  entropy T*S    EENTRO =        -0.03208712
  eigenvalues    EBANDS =       220.98199324
  atomic energy  EATOM  =     58341.73154849
  Solvation  Ediel_sol  =         0.00000000
  ---------------------------------------------------
  free energy    TOTEN  =      -587.61699092 eV

  energy without entropy =     -587.58490380  energy(sigma->0) =     -587.60629521


--------------------------------------------------------------------------------------------------------




--------------------------------------- Iteration      1(   8)  ---------------------------------------


    POTLOK:  cpu time    0.4712: real time    0.4723
    SETDIJ:  cpu time    0.0379: real time    0.0380
    EDDIAG:  cpu time   12.0369: real time   12.0659
  RMM-DIIS:  cpu time   42.7807: real time   42.8894
    ORTHCH:  cpu time    1.1792: real time    1.1823
       DOS:  cpu time    0.0020: real time    0.0020
    CHARGE:  cpu time    5.1010: real time    5.1139
    MIXING:  cpu time    0.0118: real time    0.0118
    --------------------------------------------
      LOOP:  cpu time   61.6207: real time   61.7757

 eigenvalue-minimisations  :  8523
 total energy-change (2. order) : 0.1133795E+03  (-0.6310666E+01)
 number of electron     801.0000008 magnetization      60.8802360
 augmentation part      249.9239884 magnetization      47.7118343

 Broyden mixing:
  rms(total) = 0.50944E+01    rms(broyden)= 0.50944E+01
  rms(prec ) = 0.64723E+01
  weight for this iteration     100.00

 eigenvalues of (default mixing * dielectric matrix)
  average eigenvalue GAMMA=   0.9092
  1.9304  0.5420  0.2551

 Free energy of the ion-electron system (eV)
  ---------------------------------------------------
  alpha Z        PSCENC =      2539.23836485
  Ewald energy   TEWEN  =    180560.66003750
  -Hartree energ DENC   =   -243801.49159975
  -exchange      EXHF   =         0.00000000
  -V(xc)+E(xc)   XCENC  =       266.70098132
  PAW double counting   =     70548.04016168   -68511.36249166
  entropy T*S    EENTRO =         0.02941154
  eigenvalues    EBANDS =      -417.78395349
  atomic energy  EATOM  =     58341.73154849
  Solvation  Ediel_sol  =         0.00000000
  ---------------------------------------------------
  free energy    TOTEN  =      -474.23753951 eV

  energy without entropy =     -474.26695106  energy(sigma->0) =     -474.24734336


--------------------------------------------------------------------------------------------------------




--------------------------------------- Iteration      1(   9)  ---------------------------------------


    POTLOK:  cpu time    0.4680: real time    0.4691
    SETDIJ:  cpu time    0.0382: real time    0.0383
    EDDIAG:  cpu time   12.0291: real time   12.0599
  RMM-DIIS:  cpu time   42.4722: real time   42.5804
    ORTHCH:  cpu time    1.1968: real time    1.1998
       DOS:  cpu time    0.0020: real time    0.0020
    CHARGE:  cpu time    5.1186: real time    5.1316
    MIXING:  cpu time    0.0120: real time    0.0120
    --------------------------------------------
      LOOP:  cpu time   61.3369: real time   61.4931

 eigenvalue-minimisations  :  8516
 total energy-change (2. order) :-0.5030210E+02  (-0.5724430E+01)
 number of electron     801.0000004 magnetization      58.2837121
 augmentation part      247.5136161 magnetization      43.7901930

 Broyden mixing:
  rms(total) = 0.71294E+01    rms(broyden)= 0.71294E+01
  rms(prec ) = 0.11350E+02
  weight for this iteration     100.00

 eigenvalues of (default mixing * dielectric matrix)
  average eigenvalue GAMMA=   0.7954
  2.1828  0.5953  0.2518  0.1517

 Free energy of the ion-electron system (eV)
  ---------------------------------------------------
  alpha Z        PSCENC =      2539.23836485
  Ewald energy   TEWEN  =    180560.66003750
  -Hartree energ DENC   =   -243732.08183582
  -exchange      EXHF   =         0.00000000
  -V(xc)+E(xc)   XCENC  =       268.43926682
  PAW double counting   =     71547.91270074   -69517.90229880
  entropy T*S    EENTRO =         0.01515642
  eigenvalues    EBANDS =      -532.55257824
  atomic energy  EATOM  =     58341.73154849
  Solvation  Ediel_sol  =         0.00000000
  ---------------------------------------------------
  free energy    TOTEN  =      -524.53963804 eV

  energy without entropy =     -524.55479446  energy(sigma->0) =     -524.54469018


--------------------------------------------------------------------------------------------------------




--------------------------------------- Iteration      1(  10)  ---------------------------------------


    POTLOK:  cpu time    0.4698: real time    0.4711
    SETDIJ:  cpu time    0.0381: real time    0.0382
    EDDIAG:  cpu time   12.0277: real time   12.0584
  RMM-DIIS:  cpu time   42.6294: real time   42.7469
    ORTHCH:  cpu time    1.1816: real time    1.1844
       DOS:  cpu time    0.0020: real time    0.0020
    CHARGE:  cpu time    5.0301: real time    5.0426
    MIXING:  cpu time    0.0125: real time    0.0125
    --------------------------------------------
      LOOP:  cpu time   61.3912: real time   61.5562

 eigenvalue-minimisations  :  8525
 total energy-change (2. order) : 0.5478579E+02  (-0.2136063E+01)
 number of electron     801.0000007 magnetization      54.9507713
 augmentation part      249.5178204 magnetization      41.9134237

 Broyden mixing:
  rms(total) = 0.47563E+01    rms(broyden)= 0.47562E+01
  rms(prec ) = 0.60828E+01
  weight for this iteration     100.00

 eigenvalues of (default mixing * dielectric matrix)
  average eigenvalue GAMMA=   0.7188
  2.3164  0.6093  0.3238  0.2235  0.1209

 Free energy of the ion-electron system (eV)
  ---------------------------------------------------
  alpha Z        PSCENC =      2539.23836485
  Ewald energy   TEWEN  =    180560.66003750
  -Hartree energ DENC   =   -243770.45499912
  -exchange      EXHF   =         0.00000000
  -V(xc)+E(xc)   XCENC  =       268.99235898
  PAW double counting   =     72312.83162706   -70289.35649487
  entropy T*S    EENTRO =        -0.02981704
  eigenvalues    EBANDS =      -433.36647622
  atomic energy  EATOM  =     58341.73154849
  Solvation  Ediel_sol  =         0.00000000
  ---------------------------------------------------
  free energy    TOTEN  =      -469.75385036 eV

  energy without entropy =     -469.72403332  energy(sigma->0) =     -469.74391135


--------------------------------------------------------------------------------------------------------




--------------------------------------- Iteration      1(  11)  ---------------------------------------


    POTLOK:  cpu time    0.4709: real time    0.4720
    SETDIJ:  cpu time    0.0379: real time    0.0380
    EDDIAG:  cpu time   12.0247: real time   12.0534
  RMM-DIIS:  cpu time   42.8441: real time   42.9454
    ORTHCH:  cpu time    1.1828: real time    1.1856
       DOS:  cpu time    0.0027: real time    0.0027
    CHARGE:  cpu time    5.0413: real time    5.0533
    MIXING:  cpu time    0.0128: real time    0.0129
    --------------------------------------------
      LOOP:  cpu time   61.6171: real time   61.7632

 eigenvalue-minimisations  :  8526
 total energy-change (2. order) : 0.1550799E+02  (-0.9488453E+00)
 number of electron     801.0000004 magnetization      53.3917776
 augmentation part      249.2569145 magnetization      38.1403820

 Broyden mixing:
  rms(total) = 0.30035E+01    rms(broyden)= 0.30035E+01
  rms(prec ) = 0.45750E+01
  weight for this iteration     100.00

 eigenvalues of (default mixing * dielectric matrix)
  average eigenvalue GAMMA=   0.6886
  2.1177  0.6736  0.6736  0.2807  0.2807  0.1053

 Free energy of the ion-electron system (eV)
  ---------------------------------------------------
  alpha Z        PSCENC =      2539.23836485
  Ewald energy   TEWEN  =    180560.66003750
  -Hartree energ DENC   =   -243828.97748563
  -exchange      EXHF   =         0.00000000
  -V(xc)+E(xc)   XCENC  =       269.51472654
  PAW double counting   =     72938.29421916   -70918.17487156
  entropy T*S    EENTRO =        -0.16740776
  eigenvalues    EBANDS =      -356.36498887
  atomic energy  EATOM  =     58341.73154849
  Solvation  Ediel_sol  =         0.00000000
  ---------------------------------------------------
  free energy    TOTEN  =      -454.24585727 eV

  energy without entropy =     -454.07844951  energy(sigma->0) =     -454.19005468


--------------------------------------------------------------------------------------------------------




--------------------------------------- Iteration      1(  12)  ---------------------------------------


    POTLOK:  cpu time    0.4711: real time    0.4722
    SETDIJ:  cpu time    0.0381: real time    0.0382
    EDDIAG:  cpu time   12.0248: real time   12.0535
  RMM-DIIS:  cpu time   42.6596: real time   42.7630
    ORTHCH:  cpu time    1.1868: real time    1.1896
       DOS:  cpu time    0.0021: real time    0.0021
    CHARGE:  cpu time    5.0598: real time    5.0718
    MIXING:  cpu time    0.0133: real time    0.0133
    --------------------------------------------
      LOOP:  cpu time   61.4556: real time   61.6038

 eigenvalue-minimisations  :  8536
 total energy-change (2. order) : 0.7263307E+00  (-0.5571215E+00)
 number of electron     801.0000007 magnetization      51.4634268
 augmentation part      248.4532104 magnetization      33.8104713

 Broyden mixing:
  rms(total) = 0.18548E+01    rms(broyden)= 0.18548E+01
  rms(prec ) = 0.23839E+01
  weight for this iteration     100.00

 eigenvalues of (default mixing * dielectric matrix)
  average eigenvalue GAMMA=   0.6760
  1.9833  0.8822  0.8822  0.3441  0.2677  0.2677  0.1051

 Free energy of the ion-electron system (eV)
  ---------------------------------------------------
  alpha Z        PSCENC =      2539.23836485
  Ewald energy   TEWEN  =    180560.66003750
  -Hartree energ DENC   =   -243876.17349222
  -exchange      EXHF   =         0.00000000
  -V(xc)+E(xc)   XCENC  =       269.10127061
  PAW double counting   =     72423.53987997   -70393.52566127
  entropy T*S    EENTRO =        -0.00600425
  eigenvalues    EBANDS =      -318.08547031
  atomic energy  EATOM  =     58341.73154849
  Solvation  Ediel_sol  =         0.00000000
  ---------------------------------------------------
  free energy    TOTEN  =      -453.51952662 eV

  energy without entropy =     -453.51352237  energy(sigma->0) =     -453.51752520


--------------------------------------------------------------------------------------------------------




--------------------------------------- Iteration      1(  13)  ---------------------------------------


    POTLOK:  cpu time    0.4723: real time    0.4735
    SETDIJ:  cpu time    0.0381: real time    0.0382
    EDDIAG:  cpu time   12.0286: real time   12.0574
  RMM-DIIS:  cpu time   42.7369: real time   42.8472
    ORTHCH:  cpu time    1.1850: real time    1.1880
       DOS:  cpu time    0.0020: real time    0.0021
    CHARGE:  cpu time    5.0551: real time    5.0678
    MIXING:  cpu time    0.0140: real time    0.0140
    --------------------------------------------
      LOOP:  cpu time   61.5321: real time   61.6881

 eigenvalue-minimisations  :  8529
 total energy-change (2. order) :-0.2618964E+01  (-0.3892363E+00)
 number of electron     801.0000005 magnetization      48.8787118
 augmentation part      248.2035153 magnetization      31.1833614

 Broyden mixing:
  rms(total) = 0.17433E+01    rms(broyden)= 0.17433E+01
  rms(prec ) = 0.23320E+01
  weight for this iteration     100.00

 eigenvalues of (default mixing * dielectric matrix)
  average eigenvalue GAMMA=   0.6822
  1.9709  1.0458  1.0458  0.3942  0.3942  0.2509  0.2509  0.1052

 Free energy of the ion-electron system (eV)
  ---------------------------------------------------
  alpha Z        PSCENC =      2539.23836485
  Ewald energy   TEWEN  =    180560.66003750
  -Hartree energ DENC   =   -243908.19610099
  -exchange      EXHF   =         0.00000000
  -V(xc)+E(xc)   XCENC  =       267.76514172
  PAW double counting   =     72177.92629514   -70144.51530508
  entropy T*S    EENTRO =        -0.00026286
  eigenvalues    EBANDS =      -290.74820979
  atomic energy  EATOM  =     58341.73154849
  Solvation  Ediel_sol  =         0.00000000
  ---------------------------------------------------
  free energy    TOTEN  =      -456.13849101 eV

  energy without entropy =     -456.13822814  energy(sigma->0) =     -456.13840339


--------------------------------------------------------------------------------------------------------




--------------------------------------- Iteration      1(  14)  ---------------------------------------


    POTLOK:  cpu time    0.4723: real time    0.4734
    SETDIJ:  cpu time    0.0378: real time    0.0380
    EDDIAG:  cpu time   12.0541: real time   12.0849
  RMM-DIIS:  cpu time   43.0070: real time   43.1167
    ORTHCH:  cpu time    1.1797: real time    1.1826
       DOS:  cpu time    0.0021: real time    0.0021
    CHARGE:  cpu time    5.1221: real time    5.1351
    MIXING:  cpu time    0.0142: real time    0.0142
    --------------------------------------------
      LOOP:  cpu time   61.8893: real time   62.0470

 eigenvalue-minimisations  :  8524
 total energy-change (2. order) :-0.2555332E+01  (-0.1540005E+00)
 number of electron     801.0000005 magnetization      47.0749099
 augmentation part      248.2332307 magnetization      28.8724287

 Broyden mixing:
  rms(total) = 0.10599E+01    rms(broyden)= 0.10599E+01
  rms(prec ) = 0.12204E+01
  weight for this iteration     100.00

 eigenvalues of (default mixing * dielectric matrix)
  average eigenvalue GAMMA=   0.6864
  2.0091  1.1686  1.1686  0.4498  0.4498  0.3175  0.2547  0.2547  0.1051

 Free energy of the ion-electron system (eV)
  ---------------------------------------------------
  alpha Z        PSCENC =      2539.23836485
  Ewald energy   TEWEN  =    180560.66003750
  -Hartree energ DENC   =   -243920.74628939
  -exchange      EXHF   =         0.00000000
  -V(xc)+E(xc)   XCENC  =       265.46444754
  PAW double counting   =     72369.46375352   -70339.40566057
  entropy T*S    EENTRO =         0.12817643
  eigenvalues    EBANDS =      -275.22820133
  atomic energy  EATOM  =     58341.73154849
  Solvation  Ediel_sol  =         0.00000000
  ---------------------------------------------------
  free energy    TOTEN  =      -458.69382295 eV

  energy without entropy =     -458.82199938  energy(sigma->0) =     -458.73654842


--------------------------------------------------------------------------------------------------------




--------------------------------------- Iteration      1(  15)  ---------------------------------------


    POTLOK:  cpu time    0.4725: real time    0.4738
    SETDIJ:  cpu time    0.0382: real time    0.0383
    EDDIAG:  cpu time   12.0551: real time   12.0857
  RMM-DIIS:  cpu time   42.9216: real time   43.0305
    ORTHCH:  cpu time    1.1839: real time    1.1869
       DOS:  cpu time    0.0021: real time    0.0021
    CHARGE:  cpu time    5.1181: real time    5.1311
    MIXING:  cpu time    0.0147: real time    0.0148
    --------------------------------------------
      LOOP:  cpu time   61.8063: real time   61.9632

 eigenvalue-minimisations  :  8518
 total energy-change (2. order) :-0.2500630E+01  (-0.1289751E+00)
 number of electron     801.0000006 magnetization      43.4233712
 augmentation part      248.2561540 magnetization      25.6798601

 Broyden mixing:
  rms(total) = 0.81494E+00    rms(broyden)= 0.81494E+00
  rms(prec ) = 0.95627E+00
  weight for this iteration     100.00

 eigenvalues of (default mixing * dielectric matrix)
  average eigenvalue GAMMA=   0.7436
  1.8127  1.5911  1.5911  0.5967  0.5967  0.3967  0.1051  0.2601  0.2601  0.2257

 Free energy of the ion-electron system (eV)
  ---------------------------------------------------
  alpha Z        PSCENC =      2539.23836485
  Ewald energy   TEWEN  =    180560.66003750
  -Hartree energ DENC   =   -243923.22748883
  -exchange      EXHF   =         0.00000000
  -V(xc)+E(xc)   XCENC  =       263.77876237
  PAW double counting   =     72433.64422742   -70404.88211626
  entropy T*S    EENTRO =         0.16281598
  eigenvalues    EBANDS =      -272.30060467
  atomic energy  EATOM  =     58341.73154849
  Solvation  Ediel_sol  =         0.00000000
  ---------------------------------------------------
  free energy    TOTEN  =      -461.19445314 eV

  energy without entropy =     -461.35726912  energy(sigma->0) =     -461.24872513


--------------------------------------------------------------------------------------------------------




--------------------------------------- Iteration      1(  16)  ---------------------------------------


    POTLOK:  cpu time    0.4730: real time    0.4743
    SETDIJ:  cpu time    0.0380: real time    0.0381
    EDDIAG:  cpu time   12.0590: real time   12.0895
  RMM-DIIS:  cpu time   43.0576: real time   43.1669
    ORTHCH:  cpu time    1.1854: real time    1.1884
       DOS:  cpu time    0.0021: real time    0.0021
    CHARGE:  cpu time    5.1060: real time    5.1189
    MIXING:  cpu time    0.0148: real time    0.0148
    --------------------------------------------
      LOOP:  cpu time   61.9359: real time   62.0930

 eigenvalue-minimisations  :  8520
 total energy-change (2. order) :-0.4184226E+01  (-0.2913581E+00)
 number of electron     801.0000005 magnetization      42.1035421
 augmentation part      248.1665843 magnetization      25.1973111

 Broyden mixing:
  rms(total) = 0.69440E+00    rms(broyden)= 0.69440E+00
  rms(prec ) = 0.89001E+00
  weight for this iteration     100.00

 eigenvalues of (default mixing * dielectric matrix)
  average eigenvalue GAMMA=   0.7527
  2.0746  2.0746  0.9708  0.9708  0.5212  0.5212  0.1051  0.3039  0.2588  0.2588
  0.2200

 Free energy of the ion-electron system (eV)
  ---------------------------------------------------
  alpha Z        PSCENC =      2539.23836485
  Ewald energy   TEWEN  =    180560.66003750
  -Hartree energ DENC   =   -243921.78587699
  -exchange      EXHF   =         0.00000000
  -V(xc)+E(xc)   XCENC  =       261.55732908
  PAW double counting   =     72336.33924004   -70306.40388035
  entropy T*S    EENTRO =         0.19143547
  eigenvalues    EBANDS =      -276.90687688
  atomic energy  EATOM  =     58341.73154849
  Solvation  Ediel_sol  =         0.00000000
  ---------------------------------------------------
  free energy    TOTEN  =      -465.37867879 eV

  energy without entropy =     -465.57011426  energy(sigma->0) =     -465.44249061


--------------------------------------------------------------------------------------------------------




--------------------------------------- Iteration      1(  17)  ---------------------------------------


    POTLOK:  cpu time    0.4728: real time    0.4740
    SETDIJ:  cpu time    0.0383: real time    0.0383
    EDDIAG:  cpu time   12.0692: real time   12.0998
  RMM-DIIS:  cpu time   42.9604: real time   43.0698
    ORTHCH:  cpu time    1.1811: real time    1.1840
       DOS:  cpu time    0.0022: real time    0.0022
    CHARGE:  cpu time    5.0435: real time    5.0563
    MIXING:  cpu time    0.0153: real time    0.0153
    --------------------------------------------
      LOOP:  cpu time   61.7828: real time   61.9398

 eigenvalue-minimisations  :  8512
 total energy-change (2. order) :-0.8982337E+00  (-0.4894287E-01)
 number of electron     801.0000006 magnetization      41.4050190
 augmentation part      248.0674027 magnetization      24.5354380

 Broyden mixing:
  rms(total) = 0.53470E+00    rms(broyden)= 0.53470E+00
  rms(prec ) = 0.64613E+00
  weight for this iteration     100.00

 eigenvalues of (default mixing * dielectric matrix)
  average eigenvalue GAMMA=   0.7263
  2.1165  2.1165  0.9847  0.9847  0.5101  0.5101  0.3322  0.3322  0.1051  0.2535
  0.2535  0.2171

 Free energy of the ion-electron system (eV)
  ---------------------------------------------------
  alpha Z        PSCENC =      2539.23836485
  Ewald energy   TEWEN  =    180560.66003750
  -Hartree energ DENC   =   -243921.54741619
  -exchange      EXHF   =         0.00000000
  -V(xc)+E(xc)   XCENC  =       260.90237424
  PAW double counting   =     72322.37823094   -70291.83347910
  entropy T*S    EENTRO =         0.20388946
  eigenvalues    EBANDS =      -278.01046269
  atomic energy  EATOM  =     58341.73154849
  Solvation  Ediel_sol  =         0.00000000
  ---------------------------------------------------
  free energy    TOTEN  =      -466.27691251 eV

  energy without entropy =     -466.48080197  energy(sigma->0) =     -466.34487566


--------------------------------------------------------------------------------------------------------




--------------------------------------- Iteration      1(  18)  ---------------------------------------


    POTLOK:  cpu time    0.4645: real time    0.4657
    SETDIJ:  cpu time    0.0384: real time    0.0384
    EDDIAG:  cpu time   12.0629: real time   12.0935
  RMM-DIIS:  cpu time   42.9886: real time   43.0982
    ORTHCH:  cpu time    1.1817: real time    1.1846
       DOS:  cpu time    0.0020: real time    0.0020
    CHARGE:  cpu time    5.0917: real time    5.1047
    MIXING:  cpu time    0.0168: real time    0.0168
    --------------------------------------------
      LOOP:  cpu time   61.8466: real time   62.0041

 eigenvalue-minimisations  :  8521
 total energy-change (2. order) :-0.4542714E+00  (-0.1187656E-01)
 number of electron     801.0000006 magnetization      39.5147997
 augmentation part      248.0462107 magnetization      22.6985167

 Broyden mixing:
  rms(total) = 0.47118E+00    rms(broyden)= 0.47118E+00
  rms(prec ) = 0.55835E+00
  weight for this iteration     100.00

 eigenvalues of (default mixing * dielectric matrix)
  average eigenvalue GAMMA=   0.7587
  2.2517  2.2517  0.9523  0.9523  0.7237  0.7237  0.4943  0.3920  0.1051  0.2577
  0.2577  0.2823  0.2178

 Free energy of the ion-electron system (eV)
  ---------------------------------------------------
  alpha Z        PSCENC =      2539.23836485
  Ewald energy   TEWEN  =    180560.66003750
  -Hartree energ DENC   =   -243920.14919867
  -exchange      EXHF   =         0.00000000
  -V(xc)+E(xc)   XCENC  =       260.48887367
  PAW double counting   =     72337.90032285   -70307.42874608
  entropy T*S    EENTRO =         0.20166535
  eigenvalues    EBANDS =      -279.37405187
  atomic energy  EATOM  =     58341.73154849
  Solvation  Ediel_sol  =         0.00000000
  ---------------------------------------------------
  free energy    TOTEN  =      -466.73118389 eV

  energy without entropy =     -466.93284924  energy(sigma->0) =     -466.79840567


--------------------------------------------------------------------------------------------------------




--------------------------------------- Iteration      1(  19)  ---------------------------------------


    POTLOK:  cpu time    0.4584: real time    0.4596
    SETDIJ:  cpu time    0.0380: real time    0.0381
    EDDIAG:  cpu time   12.0986: real time   12.1295
  RMM-DIIS:  cpu time   42.8404: real time   42.9498
    ORTHCH:  cpu time    1.1837: real time    1.1867
       DOS:  cpu time    0.0021: real time    0.0021
    CHARGE:  cpu time    5.1140: real time    5.1270
    MIXING:  cpu time    0.0165: real time    0.0165
    --------------------------------------------
      LOOP:  cpu time   61.7516: real time   61.9092

 eigenvalue-minimisations  :  8501
 total energy-change (2. order) :-0.1092633E+01  (-0.3776427E-01)
 number of electron     801.0000006 magnetization      36.9118093
 augmentation part      248.0356938 magnetization      20.4837424

 Broyden mixing:
  rms(total) = 0.40160E+00    rms(broyden)= 0.40160E+00
  rms(prec ) = 0.48113E+00
  weight for this iteration     100.00

 eigenvalues of (default mixing * dielectric matrix)
  average eigenvalue GAMMA=   0.8323
  3.3882  1.9887  1.1611  1.1611  0.7780  0.7780  0.4825  0.4825  0.1051  0.3438
  0.2576  0.2576  0.2173  0.2510

 Free energy of the ion-electron system (eV)
  ---------------------------------------------------
  alpha Z        PSCENC =      2539.23836485
  Ewald energy   TEWEN  =    180560.66003750
  -Hartree energ DENC   =   -243912.74125341
  -exchange      EXHF   =         0.00000000
  -V(xc)+E(xc)   XCENC  =       259.47186998
  PAW double counting   =     72370.42870466   -70340.32334686
  entropy T*S    EENTRO =         0.18830929
  eigenvalues    EBANDS =      -286.47805120
  atomic energy  EATOM  =     58341.73154849
  Solvation  Ediel_sol  =         0.00000000
  ---------------------------------------------------
  free energy    TOTEN  =      -467.82381668 eV

  energy without entropy =     -468.01212597  energy(sigma->0) =     -467.88658644


--------------------------------------------------------------------------------------------------------




--------------------------------------- Iteration      1(  20)  ---------------------------------------


    POTLOK:  cpu time    0.4584: real time    0.4595
    SETDIJ:  cpu time    0.0382: real time    0.0383
    EDDIAG:  cpu time   12.0766: real time   12.1075
  RMM-DIIS:  cpu time   42.9903: real time   43.0990
    ORTHCH:  cpu time    1.1814: real time    1.1842
       DOS:  cpu time    0.0020: real time    0.0020
    CHARGE:  cpu time    5.1200: real time    5.1321
    MIXING:  cpu time    0.0167: real time    0.0167
    --------------------------------------------
      LOOP:  cpu time   61.8837: real time   62.0394

 eigenvalue-minimisations  :  8499
 total energy-change (2. order) :-0.7707222E+00  (-0.4244184E-01)
 number of electron     801.0000006 magnetization      35.3878751
 augmentation part      248.0129909 magnetization      19.4889021

 Broyden mixing:
  rms(total) = 0.28329E+00    rms(broyden)= 0.28329E+00
  rms(prec ) = 0.32061E+00
  weight for this iteration     100.00

 eigenvalues of (default mixing * dielectric matrix)
  average eigenvalue GAMMA=   0.8507
  3.8321  2.0465  1.3045  1.3045  0.7438  0.7438  0.5192  0.5192  0.1051  0.3597
  0.3137  0.2561  0.2561  0.2167  0.2400

[...]
   0.618E+00 0.410E+00 -.131E+04   -.608E+00 -.443E+00 0.131E+04   -.134E-01 -.147E-01 0.711E+00   -.389E-02 0.400E-01 0.133E-01
   -.405E+00 0.414E+00 -.131E+04   0.429E+00 -.400E+00 0.131E+04   0.218E-01 -.106E-01 0.725E+00   -.359E-01 -.921E-02 0.237E-01
   0.144E+00 -.363E+00 -.131E+04   -.168E+00 0.304E+00 0.131E+04   0.357E-02 -.107E-01 0.757E+00   0.219E-01 0.727E-01 0.269E-01
   0.802E+00 0.246E+00 0.260E+04   -.784E+00 -.303E+00 -.260E+04   -.153E-01 0.399E-01 -.145E+01   -.257E-01 0.223E-01 0.103E-01
   -.635E+00 0.106E+01 0.260E+04   0.677E+00 -.106E+01 -.260E+04   -.171E-01 -.195E-01 -.145E+01   -.155E-01 0.519E-02 -.697E-02
   0.261E+00 0.133E+01 0.260E+04   -.239E+00 -.134E+01 -.260E+04   -.281E-01 -.173E-01 -.140E+01   -.398E-02 0.302E-01 -.252E-01
   -.614E+00 -.863E+00 0.132E+04   0.611E+00 0.909E+00 -.132E+04   0.349E-01 0.289E-01 -.751E+00   -.152E-01 -.623E-01 -.596E-01
   -.623E-01 -.953E+00 0.132E+04   0.138E-01 0.939E+00 -.132E+04   -.422E-02 0.352E-01 -.719E+00   0.515E-01 -.129E-01 -.670E-01
   0.538E-01 0.273E+00 -.131E+04   -.132E+00 -.255E+00 0.131E+04   0.333E-01 -.288E-01 0.724E+00   0.477E-01 0.319E-02 0.233E-01
   -.590E+00 -.203E+00 0.260E+04   0.584E+00 0.178E+00 -.260E+04   -.655E-03 0.357E-01 -.145E+01   0.130E-01 -.226E-02 -.443E-01
   0.670E+00 -.749E+00 0.132E+04   -.591E+00 0.781E+00 -.132E+04   -.411E-01 0.225E-01 -.739E+00   -.569E-01 -.471E-01 -.707E-01
   0.987E-01 0.662E+00 0.539E+01   -.120E+00 -.730E+00 -.538E+01   0.167E-01 -.149E-01 0.304E-01   0.253E-01 0.589E-01 -.326E-01
   -.964E-01 -.596E-02 -.131E+04   0.361E-01 0.157E-01 0.131E+04   0.313E-02 0.315E-01 0.727E+00   0.586E-01 -.396E-01 0.169E-01
   0.148E-01 -.264E+00 -.133E+04   0.822E-02 0.222E+00 0.133E+04   0.627E-02 -.421E-02 0.924E+00   -.267E-01 0.448E-01 0.444E-01
   0.811E-01 0.266E+00 -.131E+04   -.883E-01 -.228E+00 0.131E+04   -.319E-01 -.250E-01 0.718E+00   0.377E-01 -.178E-01 0.233E-01
   0.155E+00 -.603E+00 0.260E+04   -.177E+00 0.636E+00 -.260E+04   -.326E-01 0.139E-01 -.145E+01   0.415E-01 -.334E-01 -.201E-01
   -.891E-01 -.213E+00 0.260E+04   0.796E-01 0.179E+00 -.260E+04   0.489E-02 0.126E-01 -.144E+01   0.528E-02 0.255E-01 -.243E-01
   0.993E-01 0.513E+00 0.260E+04   -.136E+00 -.482E+00 -.260E+04   0.101E-01 -.117E-01 -.145E+01   0.214E-01 -.264E-01 -.282E-01
   0.531E+00 0.969E+00 0.132E+04   -.547E+00 -.944E+00 -.132E+04   -.467E-02 -.419E-01 -.746E+00   0.173E-01 -.208E-02 -.542E-01
   -.287E+00 -.118E+00 0.203E+01   0.233E+00 0.231E-01 -.196E+01   0.469E-01 0.159E-01 -.766E-03   0.277E-01 0.857E-01 -.499E-01
   0.113E+01 0.702E-01 0.132E+04   -.109E+01 -.171E+00 -.132E+04   -.452E-01 0.205E-01 -.746E+00   -.161E-01 0.888E-01 -.578E-01
   0.723E-01 0.300E+00 0.132E+04   -.443E-01 -.303E+00 -.132E+04   -.575E-02 0.399E-03 -.717E+00   -.264E-01 -.268E-02 -.919E-01
   -.164E+01 0.270E+01 -.132E+04   0.165E+01 -.282E+01 0.132E+04   -.215E-01 0.105E+00 0.621E+00   -.635E-02 -.223E-02 0.334E-01
   -.950E+00 0.254E+00 0.260E+04   0.913E+00 -.262E+00 -.260E+04   0.466E-02 0.278E-01 -.145E+01   0.251E-01 -.111E-01 -.165E-01
   -.514E+00 -.154E+00 0.132E+04   0.502E+00 0.863E-01 -.132E+04   0.672E-02 0.260E-02 -.708E+00   0.135E-01 0.708E-01 -.885E-01
   -.550E+00 -.437E-01 0.539E+01   0.521E+00 0.963E-01 -.539E+01   0.470E-02 0.133E-01 0.399E-01   0.322E-01 -.397E-01 -.324E-01
   0.622E+00 -.263E+00 -.259E+04   -.580E+00 0.275E+00 0.259E+04   -.158E-01 -.272E-02 0.140E+01   -.301E-01 -.124E-01 0.220E-01
   0.325E+00 0.296E+00 -.259E+04   -.356E+00 -.281E+00 0.259E+04   -.103E-01 -.432E-01 0.130E+01   0.394E-01 0.281E-01 0.573E-01
   0.115E+01 -.200E+01 -.259E+04   -.114E+01 0.203E+01 0.259E+04   0.326E-01 0.133E-01 0.140E+01   -.281E-01 -.345E-01 0.389E-01
   0.621E+01 -.378E+01 -.259E+04   -.581E+01 0.352E+01 0.259E+04   -.419E+00 0.249E+00 0.153E+01   0.192E-02 0.278E-01 0.694E-01
   -.982E+00 0.730E+01 -.259E+04   0.927E+00 -.682E+01 0.259E+04   0.429E-01 -.493E+00 0.154E+01   0.284E-01 -.121E-01 0.319E-01
   -.362E+00 0.254E+01 -.259E+04   0.413E+00 -.247E+01 0.259E+04   -.175E-02 -.230E-01 0.140E+01   -.470E-01 -.548E-01 0.573E-01
   -.335E-01 0.344E+00 -.259E+04   -.120E-01 -.310E+00 0.259E+04   0.187E-01 -.631E-02 0.130E+01   0.227E-01 -.369E-01 0.642E-01
   -.113E+01 -.147E+01 -.259E+04   0.111E+01 0.146E+01 0.259E+04   -.339E-02 -.129E-01 0.141E+01   0.228E-01 0.119E-01 0.154E-01
   -.245E+01 -.633E+00 -.259E+04   0.240E+01 0.569E+00 0.259E+04   0.498E-01 -.100E-01 0.140E+01   0.170E-01 0.698E-01 0.359E-01
   -.118E+00 0.302E+00 -.259E+04   0.963E-01 -.291E+00 0.259E+04   -.101E-01 0.227E-01 0.130E+01   0.448E-01 -.347E-01 0.377E-01
   0.795E+01 -.461E+01 -.258E+04   -.845E+01 0.491E+01 0.258E+04   0.540E+00 -.340E+00 0.808E+00   -.234E-01 0.216E-01 0.335E-01
   -.182E+00 0.938E+01 -.258E+04   0.213E+00 -.999E+01 0.258E+04   0.153E-01 0.645E+00 0.817E+00   -.391E-01 -.113E-01 0.515E-01
   0.215E+01 -.848E+00 -.259E+04   -.215E+01 0.805E+00 0.259E+04   0.212E-01 0.151E-01 0.139E+01   -.994E-02 0.327E-01 0.307E-01
   0.439E+00 0.263E+01 -.259E+04   -.428E+00 -.257E+01 0.259E+04   0.175E-01 -.211E-01 0.140E+01   -.227E-01 -.495E-01 0.286E-01
   -.152E+01 -.228E+01 -.132E+04   0.166E+01 0.239E+01 0.132E+04   -.774E-01 -.894E-01 0.618E+00   -.425E-01 -.425E-01 0.366E-01
   0.752E+00 -.171E+01 0.260E+04   -.719E+00 0.168E+01 -.260E+04   -.440E-01 0.617E-01 -.145E+01   -.719E-03 -.222E-01 -.205E-01
   -.804E-01 0.956E-01 -.131E+04   0.665E-01 -.523E-01 0.131E+04   -.425E-02 -.439E-02 0.766E+00   0.232E-01 -.450E-01 0.163E-01
   0.178E+01 -.915E+00 0.260E+04   -.176E+01 0.934E+00 -.260E+04   -.513E-01 0.231E-01 -.139E+01   0.798E-02 -.354E-01 0.486E-02
   -.907E+00 0.259E+00 0.132E+04   0.893E+00 -.280E+00 -.132E+04   0.274E-01 -.165E-01 -.720E+00   -.758E-02 0.348E-01 -.846E-01
   -.614E-01 0.113E+01 0.132E+04   0.377E-01 -.116E+01 -.132E+04   0.115E-04 0.136E-01 -.695E+00   0.248E-01 0.688E-02 -.653E-01
   0.519E-01 -.190E+00 -.131E+04   -.432E-01 0.257E+00 0.131E+04   0.102E-01 0.115E-02 0.754E+00   -.210E-01 -.700E-01 0.226E-01
   -.120E+01 -.105E+01 0.260E+04   0.119E+01 0.105E+01 -.260E+04   0.585E-02 0.416E-01 -.139E+01   -.296E-02 -.272E-01 -.302E-01
   -.440E+00 0.103E+01 0.132E+04   0.455E+00 -.972E+00 -.132E+04   -.133E-02 -.463E-01 -.750E+00   -.164E-01 -.303E-01 -.582E-01
   -.656E+01 -.312E+01 -.259E+04   0.615E+01 0.291E+01 0.259E+04   0.438E+00 0.220E+00 0.154E+01   0.123E-02 -.208E-02 0.373E-01
   -.110E+01 -.452E+00 -.697E+00   0.110E+01 0.432E+00 0.733E+00   0.306E-01 0.127E-01 0.212E-01   -.271E-01 0.586E-02 -.376E-01
   -.802E+01 -.532E+01 -.258E+04   0.857E+01 0.557E+01 0.258E+04   -.572E+00 -.321E+00 0.862E+00   0.119E-01 0.596E-01 0.379E-01
   0.114E+01 -.566E+00 0.132E+04   -.120E+01 0.632E+00 -.132E+04   0.700E-02 -.639E-02 -.689E+00   0.447E-01 -.554E-01 -.605E-01
   -.131E+01 -.698E+00 0.132E+04   0.130E+01 0.745E+00 -.132E+04   -.938E-02 0.429E-02 -.690E+00   0.350E-01 -.407E-01 -.734E-01
   0.743E-01 -.677E+00 0.337E+01   -.549E-01 0.612E+00 -.333E+01   0.462E-02 0.180E-01 -.225E-01   -.225E-01 0.721E-01 -.234E-01
   0.289E+01 -.316E+00 -.132E+04   -.303E+01 0.275E+00 0.132E+04   0.119E+00 -.332E-01 0.620E+00   0.232E-01 0.911E-01 0.311E-01
   -.301E+01 -.150E+00 -.132E+04   0.314E+01 0.178E+00 0.132E+04   -.105E+00 -.405E-01 0.615E+00   -.251E-01 0.246E-01 0.408E-01
   0.725E+00 0.513E+00 0.260E+04   -.699E+00 -.555E+00 -.260E+04   -.166E-01 -.110E-01 -.145E+01   -.161E-01 0.560E-01 -.245E-01
   -.590E+00 0.384E+00 0.260E+04   0.576E+00 -.394E+00 -.260E+04   -.626E-02 0.936E-02 -.145E+01   0.161E-01 0.114E-01 -.260E-01
   0.386E+00 -.107E+00 0.132E+04   -.400E+00 0.807E-01 -.132E+04   0.141E-02 0.537E-02 -.715E+00   0.769E-02 0.275E-01 -.787E-01
   0.916E+00 0.252E+00 0.132E+04   -.899E+00 -.218E+00 -.132E+04   -.368E-01 -.110E-01 -.717E+00   0.886E-02 -.232E-01 -.646E-01
   0.848E-01 -.200E+00 0.741E+01   -.143E+00 0.237E+00 -.728E+01   0.124E-02 -.484E-02 -.101E+00   0.577E-01 -.322E-01 -.196E-01
   0.138E+01 -.236E+01 -.132E+04   -.144E+01 0.245E+01 0.132E+04   0.962E-01 -.834E-01 0.618E+00   -.401E-01 -.218E-01 0.353E-01
   0.144E+00 -.826E+00 0.260E+04   -.106E+00 0.813E+00 -.260E+04   -.250E-01 0.649E-02 -.145E+01   -.302E-01 0.383E-02 -.377E-01
   0.595E+00 0.573E+00 0.343E+01   -.531E+00 -.507E+00 -.338E+01   -.155E-01 -.203E-01 -.183E-01   -.698E-01 -.620E-01 -.351E-01
   0.616E-01 0.122E+01 -.999E+00   -.764E-01 -.122E+01 0.105E+01   -.312E-02 -.406E-01 0.237E-01   0.168E-01 0.437E-01 -.510E-01
   0.929E+00 -.455E+00 -.484E+00   -.890E+00 0.389E+00 0.540E+00   -.217E-01 0.124E-01 0.277E-01   -.117E-01 0.492E-01 -.604E-01
   0.125E+00 -.160E+00 0.198E+01   -.738E-01 0.131E+00 -.193E+01   -.329E-01 0.170E-01 -.930E-02   -.302E-01 0.196E-01 -.234E-01
   0.467E+00 -.813E-02 0.547E+01   -.522E+00 0.371E-01 -.546E+01   0.727E-03 0.187E-01 0.325E-01   0.465E-01 -.195E-01 -.366E-01
   -.110E+01 0.215E+00 0.132E+04   0.109E+01 -.269E+00 -.132E+04   0.340E-01 0.140E-01 -.744E+00   -.929E-02 0.466E-01 -.507E-01
   -.667E+00 0.564E+00 0.319E+01   0.674E+00 -.525E+00 -.314E+01   0.270E-01 -.141E-01 -.141E-01   -.687E-02 -.412E-01 -.392E-01
   0.140E+00 -.639E+00 -.131E+04   -.810E-01 0.696E+00 0.131E+04   0.228E-03 0.107E-01 0.712E+00   -.612E-01 -.622E-01 0.175E-01
   0.142E+01 0.265E+01 -.132E+04   -.147E+01 -.281E+01 0.132E+04   0.290E-01 0.106E+00 0.606E+00   0.382E-01 0.455E-01 0.261E-01
   -.219E+00 -.785E+00 0.260E+04   0.256E+00 0.827E+00 -.260E+04   -.142E-02 0.553E-03 -.144E+01   -.361E-01 -.238E-01 -.314E-02
   0.128E+01 0.555E+00 0.260E+04   -.127E+01 -.562E+00 -.260E+04   -.453E-01 -.228E-02 -.145E+01   0.233E-01 0.761E-02 0.193E-02
   0.527E-01 0.647E+00 0.556E+01   -.676E-01 -.671E+00 -.558E+01   -.200E-01 -.157E-01 0.331E-01   0.102E-01 0.152E-01 -.114E-01
   -.514E+00 -.624E+00 0.530E+01   0.522E+00 0.655E+00 -.529E+01   0.223E-01 -.816E-02 0.346E-01   0.150E-02 -.281E-01 -.419E-01
   -.913E-01 -.258E-01 0.132E+04   0.139E+00 0.277E-01 -.132E+04   0.394E-02 -.620E-03 -.705E+00   -.492E-01 -.126E-02 -.301E-01
   0.356E-01 -.370E-02 0.215E+01   0.209E-01 0.989E-01 -.208E+01   0.389E-03 -.447E-01 -.832E-03   -.571E-01 -.670E-01 -.478E-01
   0.338E+00 -.474E+00 0.541E+01   -.357E+00 0.533E+00 -.541E+01   -.113E-01 -.134E-01 0.348E-01   0.333E-02 -.535E-01 -.247E-01
   -.183E+00 -.742E-01 -.304E+03   0.213E+00 0.794E-01 0.305E+03   -.196E-01 -.597E-02 -.133E+01   -.122E-02 0.279E-02 0.316E-02
 -----------------------------------------------------------------------------------------------
   0.641E-01 0.111E-01 0.457E+01   -.168E-12 0.167E-12 0.122E-10   -.471E-01 -.372E-01 -.378E+01   0.855E-03 0.222E-02 -.829E+00
 
 
 POSITION                                       TOTAL-FORCE (eV/Angst)
 -----------------------------------------------------------------------------------
     13.68468      8.44878      7.19407        -0.006554     -0.006272     -0.022767
      5.26725      8.44868      7.19317         0.008065     -0.004450     -0.013879
      3.86423      6.01705      7.18818         0.001005      0.005683      0.014936
     13.70218      8.43453      0.50418        -0.023504      0.004772      0.008587
      5.28315      8.43800      0.50467         0.008670     -0.013211      0.005363
      3.88155      6.00821      0.50473        -0.010409     -0.002033     -0.001071
      8.08184      1.95953      2.77435         0.015511      0.012360     -0.018198
      9.48530      9.24633      2.77312        -0.001433      0.008264     -0.007994
      2.46286      3.58931      7.18788         0.003841     -0.007660     -0.012100
      2.47648      3.57501      0.50656         0.005917      0.008571      0.007816
     10.88889      1.96044      2.77235        -0.018859      0.007817     -0.011278
     13.68615      5.20806      4.97999         0.019668     -0.023269      0.000946
      3.86499      1.16065      7.18758         0.001100      0.002906     -0.007167
      9.47528      6.01867      7.21332         0.002649     -0.001549     -0.012589
      5.26702      3.58924      7.18853        -0.002380     -0.005381     -0.015265
      3.88216      1.14422      0.50652        -0.013937      0.013954      0.011921
      9.49076      6.00523      0.50931        -0.000092      0.004880      0.003812
      5.28323      3.57763      0.50631        -0.005934     -0.006464      0.009436
     12.29226      9.25192      2.77350        -0.002858     -0.018188     -0.013917
     12.28230      7.63384      4.98461         0.019478      0.006121      0.018716
     13.69570      6.82194      2.77393        -0.019724      0.008860     -0.015028
      9.48552      4.39122      2.77474        -0.004431     -0.004590     -0.010858
      8.07460      8.44631      7.19900        -0.007052     -0.014972     -0.007855
      8.08778      8.43452      0.50542        -0.008301      0.008573      0.007174
     10.88705      6.82128      2.77421         0.007108      0.005840     -0.005961
      2.46578      0.34365      4.97964         0.008865      0.026229      0.007182
     15.08351      9.26128      9.46236        -0.003179     -0.003627     -0.010001
      3.86071      4.40284      9.46426        -0.002007      0.001039     -0.037207
      6.65899      9.26784      9.45990         0.014904      0.003934     -0.005880
     12.30741      4.38380      9.45208        -0.013806      0.009668      0.022341
      9.46838      9.29601      9.45197         0.015500     -0.021505      0.020645
     10.87953      1.96641      9.46085         0.002155     -0.004770     -0.008733
      2.45808      1.97258      9.46311        -0.004540     -0.009226     -0.032133
     12.28116      9.26888      9.45909        -0.002461     -0.006819     -0.004620
     13.68452      6.83214      9.46028         0.018844     -0.005169     -0.008065
      5.26344      1.97131      9.46344         0.013536     -0.001250     -0.033665
      8.02720      6.85652      9.49855        -0.000549     -0.010010      0.006641
      9.47040      4.35520      9.49852         0.006929      0.003459      0.005600
      5.25191      6.83072      9.46086         0.008826      0.002606     -0.011727
      8.06356      1.96573      9.45935         0.005801     -0.006472     -0.004254
      8.07440      3.59295      7.19939         0.016845     -0.009249     -0.010300
      8.09143      3.57175      0.50442        -0.010733      0.017169      0.011655
      6.66942      1.16021      7.18694         0.006678     -0.006966      0.023066
      6.68998      1.14467      0.50381        -0.017303      0.007136      0.003756
     12.28740      4.39365      2.77338         0.005775     -0.002337     -0.007244
      3.87402      4.39274      2.77079         0.000629     -0.007224      0.000829
      1.06035      1.15976      7.18862        -0.004184     -0.002602      0.012572
      1.07376      1.14340      0.50294        -0.003007      0.013198      0.004574
      6.67829      9.25262      2.77426        -0.003535     -0.020095     -0.016547
      6.63516      4.38606      9.45334         0.020646     -0.001276      0.017737
      8.07883      5.20729      4.98668        -0.000304     -0.002015      0.016831
     10.91205      6.85229      9.49699         0.001953      0.000129      0.009768
      5.27813      1.96123      2.77011        -0.009204      0.004837     -0.000311
      2.46971      1.96062      2.77018         0.008396      0.010585      0.000183
     15.09151      7.63519      4.98418         0.001288      0.023933     -0.004354
     12.27756      6.01842      7.19914         0.000467      0.014763     -0.007966
      6.67337      6.01932      7.20036         0.006460      0.010123     -0.010814
     12.29873      6.00713      0.50548        -0.006756      0.004420      0.008205
      6.68538      6.00568      0.50500        -0.004723      0.010976      0.012747
      8.08227      6.82112      2.77543        -0.004534      0.006517     -0.010324
      6.68414      4.39298      2.77258        -0.010131     -0.000109     -0.005253
      3.86914      2.77607      4.98104         0.000365     -0.000216      0.014769
     10.87633      3.59239      7.19942        -0.008181     -0.005949     -0.012108
     10.89612      3.57577      0.50413        -0.017799     -0.002179      0.010823
     10.88308      0.34759      4.98415        -0.020334     -0.015486     -0.003327
      9.48085      7.63419      4.98682        -0.001253     -0.000147      0.017960
     10.88099      5.20708      4.98621         0.006511     -0.004048      0.020678
      6.67756      7.63400      4.98503        -0.011410      0.006618      0.013663
      5.27176      0.34327      4.97972        -0.008188      0.028091      0.003666
      5.27518      6.82285      2.77350         0.013782      0.007751     -0.013043
      8.07650      0.34660      4.98428         0.025929     -0.015023     -0.000552
      9.47638      1.15963      7.19466        -0.001819      0.004931     -0.019785
     10.87711      8.44618      7.20056         0.009559     -0.014016     -0.014897
      9.49186      1.14545      0.50388        -0.001256      0.019288      0.010872
     10.89772      8.43640      0.50428        -0.008919     -0.001005      0.013447
      5.27510      5.20827      4.97980        -0.024056     -0.023866      0.000670
     12.28273      2.77698      4.97957         0.031136     -0.004842      0.004252
     15.09613      9.25125      2.77302         0.002204      0.000215      0.016913
      9.48010      2.77897      4.98436         0.000021     -0.015225      0.018867
      6.67695      2.77769      4.97965        -0.026356     -0.007731      0.003785
      9.46220      6.01940     10.31970         0.008981      0.002278      0.045632
 -----------------------------------------------------------------------------------
    total drift:                                0.017828     -0.023889     -0.035017


--------------------------------------------------------------------------------------------------------



  FREE ENERGIE OF THE ION-ELECTRON SYSTEM (eV)
  ---------------------------------------------------
  free  energy   TOTEN  =      -517.04894040 eV

  energy  without entropy=     -517.19463268  energy(sigma->0) =     -517.09750449
 
 d Force = 0.4084975E-03[ 0.189E-03, 0.628E-03]  d Energy = 0.4941333E-03-0.856E-04
 d Force = 0.6185990E+02[ 0.618E+02, 0.619E+02]  d Ewald  = 0.6185990E+02 0.145E-05


--------------------------------------------------------------------------------------------------------


    POTLOK:  cpu time    0.5563: real time    0.5576


--------------------------------------------------------------------------------------------------------




--------------------------------------------------------------------------------------------------------


  
 reached required accuracy - stopping structural energy minimisation
     LOOP+:  cpu time  508.3802: real time  509.5965
    4ORBIT:  cpu time    0.0000: real time    0.0000

 total amount of memory used by VASP MPI-rank0   262828. kBytes
=======================================================================

   base      :      30000. kBytes
   nonlr-proj:      37990. kBytes
   fftplans  :      20287. kBytes
   grid      :      52194. kBytes
   one-center:        653. kBytes
   wavefun   :     121704. kBytes
 
  
  
 General timing and accounting informations for this job:
 ========================================================
  
                  Total CPU time used (sec):     9544.914
                            User time (sec):     9534.330
                          System time (sec):       10.584
                         Elapsed time (sec):     9570.308
  
                   Maximum memory used (kb):      835088.
                   Average memory used (kb):           0.
  
                          Minor page faults:      2488559
                          Major page faults:            0
                 Voluntary context switches:         4461
