 vasp.5.4.4.18Apr17-6-g9f103f2a35 (build Oct 25 2019 11:13:22) complex          
  
 executed on             LinuxIFC date 2022.02.11  22:25:32
 running on   48 total cores
 distrk:  each k-point on   48 cores,    1 groups
 distr:  one band on NCORES_PER_BAND=   4 cores,   12 groups


--------------------------------------------------------------------------------------------------------


 INCAR:
 POTCAR:    PAW_PBE Pt 04Feb2005                  
 POTCAR:    PAW_PBE Fe 06Sep2000                  
 POTCAR:    PAW_PBE Co 02Aug2007                  
 POTCAR:    PAW_PBE Ni 02Aug2007                  
 POTCAR:    PAW_PBE H 15Jun2001                   
 POTCAR:    PAW_PBE Pt 04Feb2005                  
   VRHFIN =Pt: s1d9                                                             
   LEXCH  = PE                                                                  
   EATOM  =   729.1176 eV,   53.5886 Ry                                         
                                                                                
   TITEL  = PAW_PBE Pt 04Feb2005                                                
   LULTRA =        F    use ultrasoft PP ?                                      
   IUNSCR =        1    unscreen: 0-lin 1-nonlin 2-no                           
   RPACOR =    2.330    partial core radius                                     
   POMASS =  195.080; ZVAL   =   10.000    mass and valenz                      
   RCORE  =    2.600    outmost cutoff radius                                   
   RWIGS  =    2.750; RWIGS  =    1.455    wigner-seitz radius (au A)           
   ENMAX  =  230.283; ENMIN  =  172.712 eV                                      
   ICORE  =        3    local potential                                         
   LCOR   =        T    correct aug charges                                     
   LPAW   =        T    paw PP                                                  
   EAUG   =  358.966                                                            
   DEXC   =    0.000                                                            
   RMAX   =    2.658    core radius for proj-oper                               
   RAUG   =    1.300    factor for augmentation sphere                          
   RDEP   =    2.761    radius for radial grids                                 
   RDEPT  =    2.203    core radius for aug-charge                              
                                                                                
   Atomic configuration                                                         
   16 entries                                                                   
     n  l   j            E        occ.                                          
     1  0  0.50    -78401.1885   2.0000                                         
     2  0  0.50    -13770.7750   2.0000                                         
     2  1  1.50    -11931.0468   6.0000                                         
     3  0  0.50     -3234.7234   2.0000                                         
     3  1  1.50     -2699.2216   6.0000                                         
     3  2  2.50     -2119.5714  10.0000                                         
     4  0  0.50      -695.1528   2.0000                                         
     4  1  1.50      -519.6034   6.0000                                         
     4  2  2.50      -306.6786  10.0000                                         
     4  3  3.50       -70.1041  14.0000                                         
     5  0  0.50      -101.7747   2.0000                                         
     5  1  1.50       -55.9873   6.0000                                         
     5  2  2.50        -6.1423   9.0000                                         
     6  0  0.50        -5.6573   1.0000                                         
     6  1  1.50        -6.8029   0.0000                                         
     5  3  2.50        -1.3606   0.0000                                         
   Description                                                                  
     l       E           TYP  RCUT    TYP  RCUT                                 
     2     -6.1423404     23  2.500                                             
     2     -7.5029230     23  2.500                                             
     0     -5.6573207     23  2.500                                             
     0      0.7416693     23  2.500                                             
     1     -2.7211652     23  2.600                                             
     1     20.4087390     23  2.600                                             
     3     -1.3605826     23  2.500                                             
  local pseudopotential read in
  partial core-charges read in
  partial kinetic energy density read in
  atomic valenz-charges read in
  non local Contribution for L=           2  read in
    real space projection operators read in
  non local Contribution for L=           2  read in
    real space projection operators read in
  non local Contribution for L=           0  read in
    real space projection operators read in
  non local Contribution for L=           0  read in
    real space projection operators read in
  non local Contribution for L=           1  read in
    real space projection operators read in
  non local Contribution for L=           1  read in
    real space projection operators read in
    PAW grid and wavefunctions read in
 
   number of l-projection  operators is LMAX  =           6
   number of lm-projection operators is LMMAX =          18
 
 POTCAR:    PAW_PBE Fe 06Sep2000                  
   VRHFIN =Fe:  d7 s1                                                           
   LEXCH  = PE                                                                  
   EATOM  =   594.3153 eV,   43.6809 Ry                                         
                                                                                
   TITEL  = PAW_PBE Fe 06Sep2000                                                
   LULTRA =        F    use ultrasoft PP ?                                      
   IUNSCR =        1    unscreen: 0-lin 1-nonlin 2-no                           
   RPACOR =    2.000    partial core radius                                     
   POMASS =   55.847; ZVAL   =    8.000    mass and valenz                      
   RCORE  =    2.300    outmost cutoff radius                                   
   RWIGS  =    2.460; RWIGS  =    1.302    wigner-seitz radius (au A)           
   ENMAX  =  267.882; ENMIN  =  200.911 eV                                      
   RCLOC  =    1.701    cutoff for local pot                                    
   LCOR   =        T    correct aug charges                                     
   LPAW   =        T    paw PP                                                  
   EAUG   =  511.368                                                            
   DEXC   =    0.000                                                            
   RMAX   =    2.356    core radius for proj-oper                               
   RAUG   =    1.300    factor for augmentation sphere                          
   RDEP   =    2.442    radius for radial grids                                 
   RDEPT  =    1.890    core radius for aug-charge                              
                                                                                
   Atomic configuration                                                         
    9 entries                                                                   
     n  l   j            E        occ.                                          
     1  0  0.50     -6993.8440   2.0000                                         
     2  0  0.50      -814.6047   2.0000                                         
     2  1  1.50      -693.3689   6.0000                                         
     3  0  0.50       -89.4732   2.0000                                         
     3  1  1.50       -55.6373   6.0000                                         
     3  2  2.50        -3.8151   7.0000                                         
     4  0  0.50        -4.2551   1.0000                                         
     4  1  1.50        -3.4015   0.0000                                         
     4  3  2.50        -1.3606   0.0000                                         
   Description                                                                  
     l       E           TYP  RCUT    TYP  RCUT                                 
     2     -3.8151135     23  2.300                                             
     2     -5.1756961     23  2.300                                             
     0     -4.2550963     23  2.300                                             
     0      7.2035603     23  2.300                                             
     1     -2.7211652     23  2.300                                             
     1     18.4316424     23  2.300                                             
  local pseudopotential read in
  partial core-charges read in
  partial kinetic energy density read in
  atomic valenz-charges read in
  non local Contribution for L=           2  read in
    real space projection operators read in
  non local Contribution for L=           2  read in
    real space projection operators read in
  non local Contribution for L=           0  read in
    real space projection operators read in
  non local Contribution for L=           0  read in
    real space projection operators read in
  non local Contribution for L=           1  read in
    real space projection operators read in
  non local Contribution for L=           1  read in
    real space projection operators read in
    PAW grid and wavefunctions read in
 
   number of l-projection  operators is LMAX  =           6
   number of lm-projection operators is LMMAX =          18
 
 POTCAR:    PAW_PBE Co 02Aug2007                  
   VRHFIN =Co: d8 s1                                                            
   LEXCH  = PE                                                                  
   EATOM  =   813.3670 eV,   59.7808 Ry                                         
                                                                                
   TITEL  = PAW_PBE Co 02Aug2007                                                
   LULTRA =        F    use ultrasoft PP ?                                      
   IUNSCR =        1    unscreen: 0-lin 1-nonlin 2-no                           
   RPACOR =    2.000    partial core radius                                     
   POMASS =   58.933; ZVAL   =    9.000    mass and valenz                      
   RCORE  =    2.300    outmost cutoff radius                                   
   RWIGS  =    2.460; RWIGS  =    1.302    wigner-seitz radius (au A)           
   ENMAX  =  267.968; ENMIN  =  200.976 eV                                      
   RCLOC  =    1.203    cutoff for local pot                                    
   LCOR   =        T    correct aug charges                                     
   LPAW   =        T    paw PP                                                  
   EAUG   =  477.818                                                            
   DEXC   =    0.000                                                            
   RMAX   =    2.360    core radius for proj-oper                               
   RAUG   =    1.300    factor for augmentation sphere                          
   RDEP   =    2.393    radius for radial grids                                 
   RDEPT  =    1.864    core radius for aug-charge                              
                                                                                
   Atomic configuration                                                         
    9 entries                                                                   
     n  l   j            E        occ.                                          
     1  0  0.50     -7587.6674   2.0000                                         
     2  0  0.50      -893.6084   2.0000                                         
     2  1  1.50      -764.5805   6.0000                                         
     3  0  0.50       -97.5973   2.0000                                         
     3  1  1.50       -60.9648   6.0000                                         
     3  2  2.50        -4.2382   8.0000                                         
     4  0  0.50        -4.3746   1.0000                                         
     4  1  1.50        -4.0817   0.0000                                         
     4  3  2.50        -1.3606   0.0000                                         
   Description                                                                  
     l       E           TYP  RCUT    TYP  RCUT                                 
     2     -4.2382362     23  2.300                                             
     2     -5.5988188     23  2.300                                             
     0     -4.3745797     23  2.300                                             
     0      5.7660125     23  2.300                                             
     1     -2.7211652     23  2.300                                             
     1     16.9860234     23  2.300                                             
  local pseudopotential read in
  partial core-charges read in
  partial kinetic energy density read in
  atomic valenz-charges read in
  non local Contribution for L=           2  read in
    real space projection operators read in
  non local Contribution for L=           2  read in
    real space projection operators read in
  non local Contribution for L=           0  read in
    real space projection operators read in
  non local Contribution for L=           0  read in
    real space projection operators read in
  non local Contribution for L=           1  read in
    real space projection operators read in
  non local Contribution for L=           1  read in
    real space projection operators read in
    PAW grid and wavefunctions read in
 
   number of l-projection  operators is LMAX  =           6
   number of lm-projection operators is LMMAX =          18
 
 POTCAR:    PAW_PBE Ni 02Aug2007                  
   VRHFIN =Ni:                                                                  
   LEXCH  = PE                                                                  
   EATOM  =  1077.6739 eV,   79.2068 Ry                                         
                                                                                
   TITEL  = PAW_PBE Ni 02Aug2007                                                
   LULTRA =        F    use ultrasoft PP ?                                      
   IUNSCR =        1    unscreen: 0-lin 1-nonlin 2-no                           
   RPACOR =    2.000    partial core radius                                     
   POMASS =   58.690; ZVAL   =   10.000    mass and valenz                      
   RCORE  =    2.300    outmost cutoff radius                                   
   RWIGS  =    2.430; RWIGS  =    1.286    wigner-seitz radius (au A)           
   ENMAX  =  269.532; ENMIN  =  202.149 eV                                      
   RCLOC  =    1.201    cutoff for local pot                                    
   LCOR   =        T    correct aug charges                                     
   LPAW   =        T    paw PP                                                  
   EAUG   =  544.565                                                            
   DEXC   =    0.000                                                            
   RMAX   =    2.357    core radius for proj-oper                               
   RAUG   =    1.300    factor for augmentation sphere                          
   RDEP   =    2.390    radius for radial grids                                 
   RDEPT  =    1.838    core radius for aug-charge                              
                                                                                
   Atomic configuration                                                         
    9 entries                                                                   
     n  l   j            E        occ.                                          
     1  0  0.50     -8206.4253   2.0000                                         
     2  0  0.50      -976.1748   2.0000                                         
     2  1  1.50      -839.0571   6.0000                                         
     3  0  0.50      -105.9991   2.0000                                         
     3  1  1.50       -66.4603   6.0000                                         
     3  2  2.50        -4.6458   9.0000                                         
     4  0  0.50        -4.4926   1.0000                                         
     4  1  1.50        -4.0817   0.0000                                         
     4  3  2.50        -1.3606   0.0000                                         
   Description                                                                  
     l       E           TYP  RCUT    TYP  RCUT                                 
     2     -4.6457903     23  2.300                                             
     2     -6.0063729     23  2.300                                             
     0     -4.4925590     23  2.300                                             
     0      5.0102601     23  2.300                                             
     1     -2.7211652     23  2.300                                             
     1     16.5183231     23  2.300                                             
  local pseudopotential read in
  partial core-charges read in
  partial kinetic energy density read in
  atomic valenz-charges read in
  non local Contribution for L=           2  read in
    real space projection operators read in
  non local Contribution for L=           2  read in
    real space projection operators read in
  non local Contribution for L=           0  read in
    real space projection operators read in
  non local Contribution for L=           0  read in
    real space projection operators read in
  non local Contribution for L=           1  read in
    real space projection operators read in
  non local Contribution for L=           1  read in
    real space projection operators read in
    PAW grid and wavefunctions read in
 
   number of l-projection  operators is LMAX  =           6
   number of lm-projection operators is LMMAX =          18
 
 POTCAR:    PAW_PBE H 15Jun2001                   
   VRHFIN =H: ultrasoft test                                                    
   LEXCH  = PE                                                                  
   EATOM  =    12.4884 eV,    0.9179 Ry                                         
                                                                                
   TITEL  = PAW_PBE H 15Jun2001                                                 
   LULTRA =        F    use ultrasoft PP ?                                      
   IUNSCR =        0    unscreen: 0-lin 1-nonlin 2-no                           
   RPACOR =    0.000    partial core radius                                     
   POMASS =    1.000; ZVAL   =    1.000    mass and valenz                      
   RCORE  =    1.100    outmost cutoff radius                                   
   RWIGS  =    0.700; RWIGS  =    0.370    wigner-seitz radius (au A)           
   ENMAX  =  250.000; ENMIN  =  200.000 eV                                      
   RCLOC  =    0.701    cutoff for local pot                                    
   LCOR   =        T    correct aug charges                                     
   LPAW   =        T    paw PP                                                  
   EAUG   =  400.000                                                            
   RMAX   =    1.123    core radius for proj-oper                               
   RAUG   =    1.200    factor for augmentation sphere                          
   RDEP   =    1.112    radius for radial grids                                 
   RDEPT  =    0.926    core radius for aug-charge                              
                                                                                
   Atomic configuration                                                         
    2 entries                                                                   
     n  l   j            E        occ.                                          
     1  0  0.50        -6.4927   1.0000                                         
     2  1  0.50        -3.4015   0.0000                                         
   Description                                                                  
     l       E           TYP  RCUT    TYP  RCUT                                 
     0     -6.4927494     23  1.100                                             
     0      6.8029130     23  1.100                                             
     1     -4.0817478     23  1.100                                             
  local pseudopotential read in
  atomic valenz-charges read in
  non local Contribution for L=           0  read in
    real space projection operators read in
  non local Contribution for L=           0  read in
    real space projection operators read in
  non local Contribution for L=           1  read in
    real space projection operators read in
    PAW grid and wavefunctions read in
 
   number of l-projection  operators is LMAX  =           3
   number of lm-projection operators is LMMAX =           5
 
 Optimization of the real space projectors (new method)

 maximal supplied QI-value         = 14.36
 optimisation between [QCUT,QGAM] = [ 11.92, 23.98] = [ 39.79,161.09] Ry 
 Optimized for a Real-space Cutoff    1.49 Angstroem

   l    n(q)    QCUT    max X(q) W(low)/X(q) W(high)/X(q)  e(spline) 
   2     10    11.920    66.195    0.79E-04    0.18E-03    0.24E-06
   2     10    11.920    64.643    0.81E-04    0.19E-03    0.24E-06
   0     11    11.920    95.520    0.28E-04    0.54E-04    0.18E-06
   0     11    11.920    63.403    0.27E-04    0.52E-04    0.17E-06
   1     10    11.920    19.961    0.18E-04    0.11E-03    0.23E-06
   1     10    11.920    13.289    0.25E-04    0.87E-04    0.19E-06
 Optimization of the real space projectors (new method)

 maximal supplied QI-value         = 16.25
 optimisation between [QCUT,QGAM] = [ 11.86, 23.89] = [ 39.41,159.82] Ry 
 Optimized for a Real-space Cutoff    1.49 Angstroem

   l    n(q)    QCUT    max X(q) W(low)/X(q) W(high)/X(q)  e(spline) 
   2     10    11.864    80.901    0.13E-03    0.23E-03    0.37E-06
   2     10    11.864    75.754    0.13E-03    0.23E-03    0.38E-06
   0     11    11.864    58.752    0.44E-04    0.11E-04    0.20E-06
   0     11    11.864    30.679    0.36E-04    0.10E-04    0.18E-06
   1     10    11.864    17.977    0.31E-04    0.45E-04    0.10E-06
   1     10    11.864    13.559    0.25E-04    0.37E-04    0.89E-07
 Optimization of the real space projectors (new method)

 maximal supplied QI-value         = 16.25
 optimisation between [QCUT,QGAM] = [ 11.86, 23.89] = [ 39.41,159.82] Ry 
 Optimized for a Real-space Cutoff    1.33 Angstroem

   l    n(q)    QCUT    max X(q) W(low)/X(q) W(high)/X(q)  e(spline) 
   2      9    11.864    65.824    0.22E-03    0.53E-03    0.26E-06
   2      9    11.864    61.429    0.22E-03    0.53E-03    0.26E-06
   0      9    11.864    56.174    0.21E-03    0.32E-04    0.15E-06
   0      9    11.864    31.263    0.19E-03    0.30E-04    0.14E-06
   1      9    11.864    19.828    0.63E-04    0.30E-03    0.16E-06
   1      9    11.864    15.139    0.49E-04    0.25E-03    0.13E-06
 Optimization of the real space projectors (new method)

 maximal supplied QI-value         = 16.25
 optimisation between [QCUT,QGAM] = [ 11.86, 23.89] = [ 39.41,159.82] Ry 
 Optimized for a Real-space Cutoff    1.33 Angstroem

   l    n(q)    QCUT    max X(q) W(low)/X(q) W(high)/X(q)  e(spline) 
   2      9    11.864    60.317    0.21E-03    0.51E-03    0.25E-06
   2      9    11.864    55.921    0.21E-03    0.51E-03    0.26E-06
   0      9    11.864    51.690    0.22E-03    0.30E-04    0.17E-06
   0      9    11.864    30.015    0.20E-03    0.28E-04    0.15E-06
   1      9    11.864    18.849    0.76E-04    0.33E-03    0.17E-06
   1      9    11.864    14.624    0.60E-04    0.28E-03    0.15E-06
 Optimization of the real space projectors (new method)

 maximal supplied QI-value         = 34.20
 optimisation between [QCUT,QGAM] = [ 11.97, 23.94] = [ 40.13,160.53] Ry 
 Optimized for a Real-space Cutoff    1.18 Angstroem

   l    n(q)    QCUT    max X(q) W(low)/X(q) W(high)/X(q)  e(spline) 
   0      8    11.971    19.460    0.15E-03    0.31E-03    0.25E-06
   0      8    11.971    12.209    0.13E-03    0.29E-03    0.25E-06
   1      8    11.971     4.655    0.22E-03    0.24E-03    0.21E-06
  PAW_PBE Pt 04Feb2005                  :
 energy of atom  1       EATOM= -729.1176
 kinetic energy error for atom=    0.0021 (will be added to EATOM!!)
  PAW_PBE Fe 06Sep2000                  :
 energy of atom  2       EATOM= -594.3153
 kinetic energy error for atom=    0.0024 (will be added to EATOM!!)
  PAW_PBE Co 02Aug2007                  :
 energy of atom  3       EATOM= -813.3670
 kinetic energy error for atom=    0.0026 (will be added to EATOM!!)
  PAW_PBE Ni 02Aug2007                  :
 energy of atom  4       EATOM=-1077.6739
 kinetic energy error for atom=    0.0027 (will be added to EATOM!!)
  PAW_PBE H 15Jun2001                   :
 energy of atom  5       EATOM=  -12.4884
 kinetic energy error for atom=    0.0008 (will be added to EATOM!!)
 
 
 POSCAR: 11.26                                   
  positions in direct lattice
  velocities in cartesian coordinates
 exchange correlation table for  LEXCH =        8
   RHO(1)=    0.500       N(1)  =     2000
   RHO(2)=  100.500       N(2)  =     4000
 


--------------------------------------------------------------------------------------------------------


 ion  position               nearest neighbor table
   1  0.783  0.870  0.304-  52 2.53  59 2.56  28 2.70  19 2.74   2 2.76  61 2.77   4 2.79  29 2.79
                            60 2.81  33 2.81  11 2.86  12 2.86
   2  0.029  0.871  0.301-  79 2.51  77 2.53   1 2.76  30 2.77  33 2.80   4 2.80  28 2.81  60 2.85
                             6 2.86  16 2.95  22 2.95
   3  0.281  0.360  0.311-  64 2.53  68 2.61  31 2.64   5 2.73  43 2.74  13 2.77  39 2.78  25 2.79
                            30 2.79  19 2.84  33 2.85  18 2.92
   4  0.866  0.958  0.406-  60 2.60  17 2.75   9 2.76  11 2.78   1 2.79   2 2.80  12 2.83  16 2.87
                             6 2.87
   5  0.111  0.457  0.410-  39 2.62  33 2.69  12 2.73   3 2.73  16 2.73   7 2.78  10 2.79  25 2.88
                            13 2.89
   6  0.125  0.952  0.405-  55 2.68  22 2.73  14 2.80  10 2.81   9 2.83   8 2.83   2 2.86   4 2.87
                            16 2.90
   7  0.869  0.447  0.411-  81 1.87  39 2.59  75 2.66  29 2.73   9 2.74  15 2.75   5 2.78  10 2.80
                            27 2.85  12 2.89
   8  0.375  0.954  0.417-  55 2.51  43 2.60  61 2.69  13 2.76  11 2.77  27 2.77  10 2.82   6 2.83
                            14 2.88
   9  0.871  0.202  0.406-  75 2.58  60 2.65   7 2.74  17 2.76   4 2.76  22 2.79  15 2.82   6 2.83
                            10 2.84
  10  0.123  0.203  0.411-  43 2.63  39 2.64  22 2.74  13 2.78   5 2.79   7 2.80   6 2.81   8 2.82
                             9 2.84
  11  0.625  0.947  0.413-  61 2.64  19 2.72  12 2.75  27 2.76   8 2.77   4 2.78  13 2.85   1 2.86
                            17 2.88
  12  0.871  0.703  0.411-  81 1.83  29 2.68  33 2.71  16 2.73   5 2.73  11 2.75  27 2.82   4 2.83
                             1 2.86   7 2.89
  13  0.371  0.202  0.415-  43 2.64   8 2.76  19 2.77   3 2.77  10 2.78  25 2.79  17 2.85  11 2.85
                             5 2.89
  14  0.372  0.700  0.404-  44 2.52  55 2.59  15 2.77  25 2.80   6 2.80  27 2.81  30 2.84  16 2.88
                             8 2.88
  15  0.620  0.455  0.408-  75 2.62  44 2.62   7 2.75  14 2.77  18 2.77  17 2.79  27 2.80  25 2.81
                             9 2.82
  16  0.117  0.698  0.411-  33 2.71  30 2.72  12 2.73   5 2.73  25 2.82   4 2.87  14 2.88   6 2.90
                             2 2.95
  17  0.624  0.205  0.411-  60 2.61   4 2.75  19 2.76   9 2.76  18 2.76  15 2.79  25 2.79  13 2.85
                            11 2.88
  18  0.539  0.365  0.307-  67 2.51  68 2.60  26 2.68  60 2.69  25 2.76  17 2.76  15 2.77  75 2.79
                            19 2.85   3 2.92  30 2.94  44 3.01
  19  0.538  0.112  0.313-  68 2.49  80 2.53  59 2.55  43 2.69  61 2.70  11 2.72  60 2.74   1 2.74
                            17 2.76  13 2.77   3 2.84  18 2.85
  20  0.538  0.117  0.053-  47 2.51  37 2.56  51 2.64  63 2.67  50 2.71  62 2.73  34 2.74  46 2.79
                            45 2.87
  21  0.106  0.420  0.118-  40 2.50  36 2.51  50 2.54  70 2.60  47 2.66  42 2.66  64 2.70  69 2.71
                            31 2.79  53 3.03
  22  0.049  0.123  0.306-  77 2.51  65 2.52  58 2.54  39 2.69   6 2.73  10 2.74  43 2.76   9 2.79
                            75 2.86  55 2.92   2 2.95  60 3.07  31 3.27
  23  0.025  0.110  0.043-  40 2.54  41 2.55  70 2.56  35 2.67  62 2.71  24 2.74  56 2.77  76 2.83
                            45 2.93
  24  0.117  0.952  0.146-  79 2.49  35 2.51  70 2.62  77 2.62  58 2.62  56 2.64  48 2.66  73 2.70
                            66 2.72  23 2.74  41 2.84  38 2.93
  25  0.372  0.450  0.409-  18 2.76  30 2.78   3 2.79  17 2.79  13 2.79  14 2.80  15 2.81  16 2.82
                             5 2.88
  26  0.451  0.562  0.222-  73 2.52  74 2.53  54 2.55  79 2.59  30 2.62  44 2.62  32 2.67  18 2.68
                            78 2.68  67 2.98  48 2.99
  27  0.620  0.704  0.413-  81 1.93  44 2.55  61 2.65  11 2.76   8 2.77  29 2.79  15 2.80  14 2.81
                            12 2.82   7 2.85
  28  0.949  0.756  0.207-  48 2.55  53 2.56  66 2.63  42 2.65  33 2.65   1 2.70  64 2.70   2 2.81
                            52 2.85  36 2.90  59 3.15
  29  0.797  0.616  0.313-  42 2.58  52 2.59  32 2.62  39 2.67  12 2.68  33 2.68   7 2.73  44 2.79
                             1 2.79  27 2.79  75 2.85  61 2.89
  30  0.266  0.616  0.306-  79 2.51  33 2.58  26 2.62  64 2.70  16 2.72   2 2.77  25 2.78   3 2.79
                            14 2.84  18 2.94  44 3.19  55 3.29
  31  0.191  0.261  0.224-  70 2.48  58 2.52  47 2.57  39 2.61  43 2.61   3 2.64  65 2.68  64 2.74
                            21 2.79  80 2.81  42 2.83  68 3.00  22 3.27
  32  0.700  0.539  0.222-  69 2.53  54 2.60  44 2.62  29 2.62  75 2.63  57 2.63  65 2.66  26 2.67
                            52 2.68  42 2.70  67 2.73  78 2.76
  33  0.034  0.620  0.311-  64 2.55  30 2.58  28 2.65  29 2.68   5 2.69  16 2.71  12 2.71  42 2.73
                             2 2.80   1 2.81  39 2.82   3 2.85
  34  0.791  0.885  0.059-  51 2.33  66 2.39  53 2.60  62 2.68  35 2.73  20 2.74  36 2.75  63 2.89

  35  0.043  0.865  0.057-  36 2.40  24 2.51  66 2.52  23 2.67  34 2.73  48 2.84  72 2.85  56 2.85
                            62 3.00
  36  0.042  0.658  0.084-  48 2.40  35 2.40  53 2.47  21 2.51  72 2.75  34 2.75  28 2.90
  37  0.624  0.211  0.138-  59 2.38  62 2.40  67 2.45  46 2.46  68 2.48  74 2.55  20 2.56  66 2.66
                            41 2.68  54 2.71  47 2.99  51 3.04
  38  0.377  0.954  0.136-  63 2.36  45 2.39  56 2.40  58 2.42  80 2.45  73 2.50  78 2.54  57 2.61
                            47 2.77  70 2.82  51 2.87  24 2.93
  39  0.028  0.372  0.317-   7 2.59  65 2.61  31 2.61   5 2.62  42 2.64  10 2.64  29 2.67  22 2.69
                            75 2.74   3 2.78  33 2.82  43 3.01
  40  0.983  0.354  0.043-  69 2.31  76 2.42  21 2.50  23 2.54  70 2.62  71 2.63  45 3.12
  41  0.866  0.206  0.135-  77 2.42  76 2.43  67 2.44  62 2.46  65 2.52  23 2.55  69 2.55  66 2.57
                            70 2.65  37 2.68  24 2.84  54 2.87
  42  0.948  0.521  0.217-  53 2.52  69 2.54  64 2.55  65 2.57  29 2.58  39 2.64  28 2.65  21 2.66
                            32 2.70  33 2.73  31 2.83  52 2.97
  43  0.300  0.108  0.320-  58 2.48  55 2.49   8 2.60  31 2.61  80 2.61  10 2.63  13 2.64  61 2.65
                            19 2.69   3 2.74  22 2.76  39 3.01
  44  0.541  0.631  0.318-  14 2.52  78 2.55  27 2.55  32 2.62  15 2.62  26 2.62  55 2.64  61 2.67
                            29 2.79  75 2.86  18 3.01  30 3.19
  45  0.285  0.111  0.053-  38 2.39  70 2.47  47 2.48  56 2.53  63 2.71  20 2.87  23 2.93  40 3.12

  46  0.535  0.367  0.050-  54 2.40  50 2.43  37 2.46  74 2.47  76 2.54  62 2.67  72 2.72  20 2.79
                            49 2.82
  47  0.359  0.209  0.135-  50 2.40  68 2.41  45 2.48  20 2.51  31 2.57  80 2.60  21 2.66  74 2.74
                            38 2.77  70 2.92  37 2.99
  48  0.180  0.691  0.158-  79 2.40  36 2.40  72 2.41  64 2.41  73 2.49  28 2.55  24 2.66  74 2.70
                            35 2.84  26 2.99
  49  0.521  0.625  0.052-  54 2.35  73 2.38  71 2.44  57 2.44  72 2.53  56 2.78  46 2.82  76 2.90
                            63 2.95
  50  0.315  0.374  0.056-  74 2.35  47 2.40  46 2.43  21 2.54  72 2.65  20 2.71
  51  0.642  0.932  0.141-  34 2.33  52 2.34  63 2.45  59 2.53  53 2.55  80 2.56  20 2.64  57 2.67
                            66 2.78  38 2.87  37 3.04
  52  0.683  0.786  0.223-  51 2.34  78 2.41  57 2.48  61 2.52   1 2.53  53 2.55  29 2.59  80 2.65
                            32 2.68  28 2.85  42 2.97  59 3.12
  53  0.830  0.681  0.129-  57 2.36  71 2.40  36 2.47  42 2.52  52 2.55  51 2.55  28 2.56  69 2.59
                            34 2.60  21 3.03
  54  0.609  0.460  0.130-  49 2.35  46 2.40  76 2.41  26 2.55  74 2.58  32 2.60  67 2.61  69 2.68
                            37 2.71  57 2.86  41 2.87  73 2.88
  55  0.319  0.878  0.319-  79 2.38  58 2.38  61 2.42  78 2.48  43 2.49   8 2.51  14 2.59  44 2.64
                             6 2.68  22 2.92  30 3.29
  56  0.287  0.884  0.053-  73 2.35  38 2.40  45 2.53  24 2.64  63 2.77  23 2.77  49 2.78  35 2.85
                            72 2.94
  57  0.603  0.717  0.132-  63 2.31  53 2.36  71 2.42  49 2.44  52 2.48  78 2.49  73 2.50  38 2.61
                            32 2.63  51 2.67  54 2.86  69 3.01
  58  0.244  0.015  0.229-  55 2.38  79 2.41  38 2.42  43 2.48  78 2.48  80 2.49  31 2.52  22 2.54
                            24 2.62  70 2.74
  59  0.698  0.057  0.222-  37 2.38  66 2.44  60 2.45  68 2.52  51 2.53  19 2.55   1 2.56  77 2.59
                            67 2.70  80 2.86  52 3.12  28 3.15
  60  0.776  0.123  0.313-  77 2.37  59 2.45  67 2.59   4 2.60  17 2.61   9 2.65  18 2.69  19 2.74
                            75 2.80   1 2.81   2 2.85  22 3.07
  61  0.537  0.871  0.318-  55 2.42  78 2.47  52 2.52  80 2.58  11 2.64  27 2.65  43 2.65  44 2.67
                             8 2.69  19 2.70   1 2.77  29 2.89
  62  0.774  0.130  0.051-  37 2.40  66 2.45  41 2.46  76 2.49  46 2.67  34 2.68  23 2.71  20 2.73
                            35 3.00
  63  0.536  0.880  0.055-  57 2.31  38 2.36  51 2.45  20 2.67  45 2.71  56 2.77  34 2.89  71 2.92
                            49 2.95
  64  0.181  0.510  0.217-  48 2.41   3 2.53  33 2.55  42 2.55  74 2.65  30 2.70  21 2.70  28 2.70
                            31 2.74  68 2.96
  65  0.935  0.300  0.224-  69 2.43  75 2.46  22 2.52  41 2.52  42 2.57  67 2.58  39 2.61  70 2.62
                            77 2.66  32 2.66  31 2.68
  66  0.864  0.977  0.139-  34 2.39  77 2.43  59 2.44  62 2.45  35 2.52  41 2.57  28 2.63  37 2.66
                            24 2.72  51 2.78
  67  0.710  0.290  0.222-  77 2.42  41 2.44  37 2.45  75 2.51  18 2.51  65 2.58  60 2.59  54 2.61
                            59 2.70  32 2.73  26 2.98  68 3.01
  68  0.458  0.262  0.221-  47 2.41  74 2.41  37 2.48  19 2.49  59 2.52  80 2.60  18 2.60   3 2.61
                            64 2.96  31 3.00  67 3.01
  69  0.858  0.437  0.131-  40 2.31  71 2.39  65 2.43  76 2.50  32 2.53  42 2.54  41 2.55  53 2.59
                            54 2.68  21 2.71  70 2.81  57 3.01
  70  0.110  0.188  0.134-  45 2.47  31 2.48  23 2.56  21 2.60  24 2.62  65 2.62  40 2.62  41 2.65
                            58 2.74  69 2.81  38 2.82  47 2.92
  71  0.753  0.592  0.048-  69 2.39  53 2.40  57 2.42  49 2.44  76 2.57  40 2.63  63 2.92
  72  0.302  0.616  0.063-  48 2.41  73 2.46  74 2.50  49 2.53  50 2.65  46 2.72  36 2.75  35 2.85
                            56 2.94
  73  0.373  0.733  0.136-  56 2.35  49 2.38  72 2.46  78 2.49  48 2.49  57 2.50  38 2.50  26 2.52
                            79 2.55  24 2.70  54 2.88
  74  0.394  0.434  0.143-  50 2.35  68 2.41  46 2.47  72 2.50  26 2.53  37 2.55  54 2.58  64 2.65
                            48 2.70  47 2.74
  75  0.786  0.367  0.314-  65 2.46  67 2.51   9 2.58  15 2.62  32 2.63   7 2.66  39 2.74  18 2.79
                            60 2.80  29 2.85  22 2.86  44 2.86
  76  0.767  0.355  0.047-  54 2.41  40 2.42  41 2.43  62 2.49  69 2.50  46 2.54  71 2.57  23 2.83
                            49 2.90
  77  0.921  0.071  0.227-  60 2.37  67 2.42  41 2.42  66 2.43  22 2.51   2 2.53  59 2.59  24 2.62
                            65 2.66
  78  0.465  0.793  0.227-  52 2.41  61 2.47  55 2.48  58 2.48  73 2.49  57 2.49  79 2.51  38 2.54
                            44 2.55  80 2.62  26 2.68  32 2.76
  79  0.237  0.804  0.236-  55 2.38  48 2.40  58 2.41  24 2.49  78 2.51   2 2.51  30 2.51  73 2.55
                            26 2.59
  80  0.457  0.030  0.223-  38 2.45  58 2.49  19 2.53  51 2.56  61 2.58  68 2.60  47 2.60  43 2.61
                            78 2.62  52 2.65  31 2.81  59 2.86
  81  0.797  0.615  0.452-  12 1.83   7 1.87  27 1.93
 
  LATTYP: Found a hexagonal cell.
 ALAT       =    11.2227001190
 C/A-ratio  =     1.9603125600
  
  Lattice vectors:
  
 A1 = (   5.6113500595,  -9.7191434021,   0.0000000000)
 A2 = ( -11.2227001190,   0.0000000000,   0.0000000000)
 A3 = (   0.0000000000,   0.0000000000, -22.0000000000)


Analysis of symmetry for initial positions (statically):
=====================================================================
 Subroutine PRICEL returns:
 Original cell was already a primitive cell.
 

 Routine SETGRP: Setting up the symmetry group for a 
 hexagonal supercell.


 Subroutine GETGRP returns: Found  1 space group operations
 (whereof  1 operations were pure point group operations)
 out of a pool of 24 trial point group operations.


The static configuration has the point symmetry C_1 .


Analysis of symmetry for dynamics (positions and initial velocities):
=====================================================================
 Subroutine PRICEL returns:
 Original cell was already a primitive cell.
 

 Routine SETGRP: Setting up the symmetry group for a 
 hexagonal supercell.


 Subroutine GETGRP returns: Found  1 space group operations
 (whereof  1 operations were pure point group operations)
 out of a pool of 24 trial point group operations.


The dynamic configuration has the point symmetry C_1 .


Analysis of constrained symmetry for selective dynamics:
=====================================================================
 Subroutine PRICEL returns:
 Original cell was already a primitive cell.
 

 Routine SETGRP: Setting up the symmetry group for a 
 hexagonal supercell.


 Subroutine GETGRP returns: Found  1 space group operations
 (whereof  1 operations were pure point group operations)
 out of a pool of 24 trial point group operations.


The constrained configuration has the point symmetry C_1 .


Analysis of structural, dynamic, and magnetic symmetry:
=====================================================================
 Subroutine PRICEL returns:
 Original cell was already a primitive cell.
 

 Routine SETGRP: Setting up the symmetry group for a 
 hexagonal supercell.


 Subroutine GETGRP returns: Found  1 space group operations
 (whereof  1 operations were pure point group operations)
 out of a pool of 24 trial point group operations.


The magnetic configuration has the point symmetry C_1 .


 Subroutine INISYM returns: Found  1 space group operations
 (whereof  1 operations are pure point group operations),
 and found     1 'primitive' translations

 
 
 KPOINTS: mesh auto                               

Automatic generation of k-mesh.
Space group operators:
 irot       det(A)        alpha          n_x          n_y          n_z        tau_x        tau_y        tau_z
    1     1.000000     0.000000     1.000000     0.000000     0.000000     0.000000     0.000000     0.000000
 
 Subroutine IBZKPT returns following result:
 ===========================================
 
 Found      4 irreducible k-points:
 
 Following reciprocal coordinates:
            Coordinates               Weight
  0.000000  0.000000  0.000000      1.000000
  0.500000  0.000000  0.000000      1.000000
  0.000000  0.500000  0.000000      1.000000
  0.500000  0.500000  0.000000      1.000000
 
 Following cartesian coordinates:
            Coordinates               Weight
  0.000000  0.000000  0.000000      1.000000
  0.044553 -0.025722  0.000000      1.000000
  0.000000  0.051445  0.000000      1.000000
  0.044553  0.025722  0.000000      1.000000
 


--------------------------------------------------------------------------------------------------------




 Dimension of arrays:
   k-points           NKPTS =      4   k-points in BZ     NKDIM =      4   number of bands    NBANDS=    576
   number of dos      NEDOS =    301   number of ions     NIONS =     81
   non local maximal  LDIM  =      6   non local SUM 2l+1 LMDIM =     18
   total plane-waves  NPLWV = ******
   max r-space proj   IRMAX =   7929   max aug-charges    IRDMAX=  34542
   dimension x,y,z NGX =    90 NGY =   90 NGZ =  168
   dimension x,y,z NGXF=   180 NGYF=  180 NGZF=  336
   support grid    NGXF=   180 NGYF=  180 NGZF=  336
   ions per type =              32  16  15  17   1
   NGX,Y,Z   is equivalent  to a cutoff of  13.33, 13.33, 12.70 a.u.
   NGXF,Y,Z  is equivalent  to a cutoff of  26.66, 26.66, 25.39 a.u.

 SYSTEM =  Pt111                                   
 POSCAR =  11.26                                   

 Startparameter for this run:
   NWRITE =      2    write-flag & timer
   PREC   = accura    normal or accurate (medium, high low for compatibility)
   ISTART =      0    job   : 0-new  1-cont  2-samecut
   ICHARG =      2    charge: 1-file 2-atom 10-const
   ISPIN  =      2    spin polarized calculation?
   LNONCOLLINEAR =      F non collinear calculations
   LSORBIT =      F    spin-orbit coupling
   INIWAV =      1    electr: 0-lowe 1-rand  2-diag
   LASPH  =      F    aspherical Exc in radial PAW
   METAGGA=      F    non-selfconsistent MetaGGA calc.

 Electronic Relaxation 1
   ENCUT  =  550.0 eV  40.42 Ry    6.36 a.u.  21.46 21.46 42.07*2*pi/ulx,y,z
   ENINI  =  550.0     initial cutoff
   ENAUG  =  544.6 eV  augmentation charge cutoff
   NELM   =    200;   NELMIN=  2; NELMDL= -5     # of ELM steps 
   EDIFF  = 0.1E-04   stopping-criterion for ELM
   LREAL  =      T    real-space projection
   NLSPLINE    = F    spline interpolate recip. space projectors
   LCOMPAT=      F    compatible to vasp.4.4
   GGA_COMPAT  = T    GGA compatible to vasp.4.4-vasp.4.6
   LMAXPAW     = -100 max onsite density
   LMAXMIX     =    2 max onsite mixed and CHGCAR
   VOSKOWN=      0    Vosko Wilk Nusair interpolation
   ROPT   =   -0.00025  -0.00025  -0.00025  -0.00025
   ROPT   =   -0.00025
 Ionic relaxation
   EDIFFG = -.5E-01   stopping-criterion for IOM
   NSW    =    300    number of steps for IOM
   NBLOCK =      1;   KBLOCK =    300    inner block; outer block 
   IBRION =      2    ionic relax: 0-MD 1-quasi-New 2-CG
   NFREE  =      1    steps in history (QN), initial steepest desc. (CG)
   ISIF   =      2    stress and relaxation
   IWAVPR =     11    prediction:  0-non 1-charg 2-wave 3-comb
   ISYM   =      2    0-nonsym 1-usesym 2-fastsym
   LCORR  =      T    Harris-Foulkes like correction to forces

   POTIM  = 0.5000    time-step for ionic-motion
   TEIN   =    0.0    initial temperature
   TEBEG  =    0.0;   TEEND  =   0.0 temperature during run
   SMASS  =  -3.00    Nose mass-parameter (am)
   estimated Nose-frequenzy (Omega)   =  0.10E-29 period in steps =****** mass=  -0.288E-26a.u.
   SCALEE = 1.0000    scale energy and forces
   NPACO  =    256;   APACO  = 16.0  distance and # of slots for P.C.
   PSTRESS=    0.0 pullay stress

  Mass of Ions in am
   POMASS = 195.08 55.85 58.93 58.69  1.00
  Ionic Valenz
   ZVAL   =  10.00  8.00  9.00 10.00  1.00
  Atomic Wigner-Seitz radii
   RWIGS  =  -1.00 -1.00 -1.00 -1.00 -1.00
  virtual crystal weights 
   VCA    =   1.00  1.00  1.00  1.00  1.00
   NELECT =     754.0000    total number of electrons
   NUPDOWN=      -1.0000    fix difference up-down

 DOS related values:
   EMIN   =  10.00;   EMAX   =-10.00  energy-range for DOS
   EFERMI =   0.00
   ISMEAR =     1;   SIGMA  =   0.10  broadening in eV -4-tet -1-fermi 0-gaus

 Electronic relaxation 2 (details)
   IALGO  =     68    algorithm
   LDIAG  =      T    sub-space diagonalisation (order eigenvalues)
   LSUBROT=      F    optimize rotation matrix (better conditioning)
   TURBO    =      0    0=normal 1=particle mesh
   IRESTART =      0    0=no restart 2=restart with 2 vectors
   NREBOOT  =      0    no. of reboots
   NMIN     =      0    reboot dimension
   EREF     =   0.00    reference energy to select bands
   IMIX   =      4    mixing-type and parameters
     AMIX     =   0.40;   BMIX     =  1.00
     AMIX_MAG =   1.60;   BMIX_MAG =  1.00
     AMIN     =   0.10
     WC   =   100.;   INIMIX=   1;  MIXPRE=   1;  MAXMIX= -45

 Intra band minimization:
   WEIMIN = 0.0010     energy-eigenvalue tresh-hold
   EBREAK =  0.43E-08  absolut break condition
   DEPER  =   0.30     relativ break condition  

   TIME   =   0.40     timestep for ELM

  volume/ion in A,a.u.               =      29.63       199.92
  Fermi-wavevector in a.u.,A,eV,Ry     =   1.112968  2.103204 16.853501  1.238697
  Thomas-Fermi vector in A             =   2.249548
 
 Write flags
   LWAVE        =      F    write WAVECAR
   LDOWNSAMPLE  =      F    k-point downsampling of WAVECAR
   LCHARG       =      F    write CHGCAR
   LVTOT        =      F    write LOCPOT, total local potential
   LVHAR        =      F    write LOCPOT, Hartree potential only
   LELF         =      F    write electronic localiz. function (ELF)
   LORBIT       =      0    0 simple, 1 ext, 2 COOP (PROOUT), +10 PAW based schemes


 Dipole corrections
   LMONO  =      F    monopole corrections only (constant potential shift)
   LDIPOL =      F    correct potential (dipole corrections)
   IDIPOL =      0    1-x, 2-y, 3-z, 4-all directions 
   EPSILON=  1.0000000 bulk dielectric constant

 Exchange correlation treatment:
   GGA     =    --    GGA type
   LEXCH   =     8    internal setting for exchange type
   VOSKOWN=      0    Vosko Wilk Nusair interpolation
   LHFCALC =     F    Hartree Fock is set to
   LHFONE  =     F    Hartree Fock one center treatment
   AEXX    =    0.0000 exact exchange contribution

 Linear response parameters
   LEPSILON=     F    determine dielectric tensor
   LRPA    =     F    only Hartree local field effects (RPA)
   LNABLA  =     F    use nabla operator in PAW spheres
   LVEL    =     F    velocity operator in full k-point grid
   LINTERFAST=   F  fast interpolation
   KINTER  =     0    interpolate to denser k-point grid
   CSHIFT  =0.1000    complex shift for real part using Kramers Kronig
   OMEGAMAX=  -1.0    maximum frequency
   DEG_THRESHOLD= 0.2000000E-02 threshold for treating states as degnerate
   RTIME   =   -0.100 relaxation time in fs
  (WPLASMAI=    0.000 imaginary part of plasma frequency in eV, 0.658/RTIME)
   DFIELD  = 0.0000000 0.0000000 0.0000000 field for delta impulse in time
 
 Orbital magnetization related:
   ORBITALMAG=     F  switch on orbital magnetization
   LCHIMAG   =     F  perturbation theory with respect to B field
   DQ        =  0.001000  dq finite difference perturbation B field
   LLRAUG    =     F  two centre corrections for induced B field



--------------------------------------------------------------------------------------------------------


 conjugate gradient relaxation of ions
   using selective dynamics as specified on POSCAR
 charge density and potential will be updated during run
 spin polarized calculation
 RMM-DIIS sequential band-by-band and
  variant of blocked Davidson during initial phase
 perform sub-space diagonalisation
    before iterative eigenvector-optimisation
 modified Broyden-mixing scheme, WC =      100.0
 initial mixing is a Kerker type mixing with AMIX =  0.4000 and BMIX =      1.0000
 Hartree-type preconditioning will be used
 using additional bands          199
 real space projection scheme for non local part
 use partial core corrections
 calculate Harris-corrections to forces 
   (improved forces if not selfconsistent)
 use gradient corrections 
 use of overlap-Matrix (Vanderbilt PP)
 Methfessel and Paxton  Order N= 1 SIGMA  =   0.10


--------------------------------------------------------------------------------------------------------


  energy-cutoff  :      550.00
  volume of cell :     2399.65
      direct lattice vectors                 reciprocal lattice vectors
    11.222700119  0.000000000  0.000000000     0.089105116 -0.051444863  0.000000000
     5.611350060  9.719143402  0.000000000     0.000000000  0.102889726  0.000000000
     0.000000000  0.000000000 22.000000000     0.000000000  0.000000000  0.045454545

  length of vectors
    11.222700119 11.222700119 22.000000000     0.102889726  0.102889726  0.045454545


 
 k-points in units of 2pi/SCALE and weight: mesh auto                               
   0.00000000  0.00000000  0.00000000       0.250
   0.04455256 -0.02572243  0.00000000       0.250
   0.00000000  0.05144486  0.00000000       0.250
   0.04455256  0.02572243  0.00000000       0.250
 
 k-points in reciprocal lattice and weights: mesh auto                               
   0.00000000  0.00000000  0.00000000       0.250
   0.50000000  0.00000000  0.00000000       0.250
   0.00000000  0.50000000  0.00000000       0.250
   0.50000000  0.50000000  0.00000000       0.250
 
 position of ions in fractional coordinates (direct lattice) 
   0.78337381  0.87040019  0.30409086
   0.02933063  0.87078451  0.30069648
   0.28061406  0.36022016  0.31064844
   0.86649773  0.95789663  0.40582487
   0.11118952  0.45731074  0.40957612
   0.12505687  0.95188219  0.40479076
   0.86926142  0.44659025  0.41127875
   0.37541941  0.95356660  0.41654595
   0.87075164  0.20198919  0.40573999
   0.12339764  0.20267098  0.41068445
   0.62484584  0.94746153  0.41337627
   0.87132127  0.70349790  0.41108147
   0.37085885  0.20212774  0.41521439
   0.37206747  0.69954277  0.40427313
   0.62020515  0.45480909  0.40769646
   0.11695812  0.69792560  0.41103179
   0.62353508  0.20455759  0.41071645
   0.53853805  0.36513585  0.30704616
   0.53772615  0.11198338  0.31332451
   0.53750765  0.11690737  0.05312208
   0.10601595  0.41969037  0.11846928
   0.04891872  0.12326841  0.30634448
   0.02457803  0.10976810  0.04301178
   0.11692609  0.95242577  0.14601133
   0.37167260  0.45032837  0.40878451
   0.45077985  0.56183456  0.22205562
   0.61955934  0.70447959  0.41259481
   0.94863009  0.75638348  0.20655866
   0.79683667  0.61587235  0.31260068
   0.26584819  0.61556312  0.30624384
   0.19124466  0.26089449  0.22405845
   0.69977359  0.53884381  0.22171407
   0.03353380  0.62009595  0.31076306
   0.79088721  0.88457136  0.05901548
   0.04316713  0.86457015  0.05702026
   0.04214932  0.65754893  0.08413436
   0.62426370  0.21120473  0.13790275
   0.37657398  0.95440761  0.13612195
   0.02794441  0.37192426  0.31695616
   0.98299977  0.35389273  0.04284267
   0.86582947  0.20561363  0.13488096
   0.94832662  0.52146313  0.21684441
   0.30048373  0.10782695  0.32006608
   0.54148699  0.63112764  0.31778801
   0.28474063  0.11065050  0.05278920
   0.53473941  0.36708046  0.05001043
   0.35902779  0.20929735  0.13536762
   0.17955935  0.69144097  0.15796739
   0.52121715  0.62452862  0.05218568
   0.31510484  0.37379041  0.05623769
   0.64224589  0.93220452  0.14073248
   0.68331320  0.78573609  0.22332911
   0.82955276  0.68080959  0.12865456
   0.60856570  0.46009088  0.13042463
   0.31889829  0.87769826  0.31896226
   0.28720733  0.88377863  0.05287049
   0.60320482  0.71720033  0.13192617
   0.24390963  0.01493156  0.22942723
   0.69765379  0.05661641  0.22203663
   0.77592195  0.12348443  0.31294695
   0.53714011  0.87149674  0.31751085
   0.77414229  0.13035266  0.05102364
   0.53579334  0.87955842  0.05544832
   0.18145975  0.50980634  0.21712393
   0.93498988  0.30025067  0.22364507
   0.86379227  0.97742481  0.13912908
   0.71036838  0.29016713  0.22175692
   0.45761288  0.26185666  0.22139863
   0.85812908  0.43687154  0.13131625
   0.11007452  0.18780277  0.13408927
   0.75285836  0.59161469  0.04789180
   0.30150517  0.61600637  0.06302008
   0.37341890  0.73308670  0.13639205
   0.39367687  0.43420388  0.14336106
   0.78608910  0.36736666  0.31392526
   0.76690983  0.35547874  0.04723485
   0.92081756  0.07087941  0.22711991
   0.46493139  0.79344097  0.22696960
   0.23684180  0.80433813  0.23555822
   0.45699587  0.03041479  0.22342901
   0.79688116  0.61500305  0.45239228
 
 position of ions in cartesian coordinates  (Angst):
  13.67568955  8.45954424  6.68999890
   5.21544555  8.46327957  6.61532260
   5.17056884  3.50103138  6.83426562
  15.09953744  9.30993469  8.92814721
   3.81397725  4.44466869  9.01067474
   6.74481996  9.25147953  8.90539681
  12.26143447  4.34047469  9.04813259
   9.56401542  9.26785052  9.16401089
  10.90561653  1.96316190  8.92627970
   2.52211248  1.96978827  9.03505779
  12.32899586  9.20851450  9.09427792
  13.72615033  6.83739694  9.04379234
   5.29624715  1.96450852  9.13471653
   8.10098098  6.79895653  8.89400880
   9.51246946  4.42035478  8.96932220
   5.22889076  6.78323895  9.04269941
   8.14559146  1.98812456  9.03576198
   8.09275609  3.54880768  6.75501563
   6.66311724  1.08838253  6.89313925
   6.68829533  1.13623949  1.16868568
   3.54481477  4.07903089  2.60632415
   1.24070237  1.19806336  6.73957866
   0.89177912  1.06685188  0.94625918
   6.65662082  9.25676268  3.21224924
   6.69812019  4.37680597  8.99325924
   8.21161749  5.46055068  4.88522361
  10.90621028  6.84693818  9.07708585
  14.89052349  7.35139954  4.54429044
  12.39853436  5.98575169  6.87721499
   6.43767471  5.98274628  6.73736443
   3.61025176  2.53567096  4.92928596
  10.87699043  5.23710023  4.87770962
   3.85591521  6.02680145  6.83678733
  13.83952957  8.59727594  1.29834050
   5.33585754  8.40288130  1.25444562
   4.16276635  6.39081232  1.85095594
   8.19106793  2.05272901  3.03386046
   9.58169197  9.27602438  2.99468299
   2.40060892  3.61478525  6.97303561
  13.01772761  3.43953415  0.94253867
  10.87071458  1.99838834  2.96738112
  13.56889747  5.06817493  4.77057707
   3.97729360  1.04798558  7.04145366
   9.61842425  6.13402005  6.99133613
   3.81645733  1.07542807  1.16136251
   8.06103695  3.56770761  1.10022937
   5.20370193  2.03419094  2.97808767
   5.89505811  6.72021393  3.47528262
   9.35391247  6.06988326  1.14808489
   5.63379595  3.63292257  1.23722918
  12.43865899  9.06022944  3.09611465
  12.07765945  7.63668176  4.91324031
  13.13008285  6.61688605  2.83040042
   9.41148140  4.47168927  2.86934196
   8.50397202  8.53047521  7.01716977
   8.18243297  8.58957124  1.16315084
  10.79404887  6.97057286  2.90237567
   2.82111088  0.14512195  5.04739913
   8.14725383  0.55026304  4.88480591
   9.40085367  1.20016288  6.88483285
  10.91843573  8.47020183  6.98523871
   9.41942116  1.26691622  1.12252010
  10.94855813  8.54855442  1.21986301
   4.89717016  4.95488097  4.77672644
  12.17792264  2.91817929  4.92019149
  15.17875438  9.49973189  3.06083977
   9.60048058  2.82017593  4.87865235
   6.60502154  2.54502246  4.87076983
  12.08196442  4.24601711  2.88895759
   2.28916049  1.82528210  2.94996395
  11.76886073  5.74998803  1.05361964
   6.84032947  5.98705427  1.38644184
   8.30437444  7.12497479  3.00062500
   6.85458747  4.22008978  3.15394323
  10.88346519  3.57048923  6.90635572
  10.60151464  3.45494883  1.03916660
  10.73178855  0.68888712  4.99663803
   9.67006061  7.71156659  4.99333123
   7.17142736  7.81747765  5.18228089
   5.29939565  0.29560570  4.91543814
  12.39415572  5.97730281  9.95263005
 


--------------------------------------------------------------------------------------------------------


 k-point  1 :   0.0000 0.0000 0.0000  plane waves:   70321
 k-point  2 :   0.5000 0.0000 0.0000  plane waves:   70264
 k-point  3 :   0.0000 0.5000 0.0000  plane waves:   70264
 k-point  4 :   0.5000 0.5000 0.0000  plane waves:   70264

 maximum and minimum number of plane-waves per node :     17611    17530

 maximum number of plane-waves:     70321
 maximum index in each direction: 
   IXMAX=   21   IYMAX=   21   IZMAX=   42
   IXMIN=  -21   IYMIN=  -21   IZMIN=  -42


 real space projection operators:
  total allocation   :      75882.21 KBytes
  max/ min on nodes  :      19419.60      18511.47


 parallel 3D FFT for wavefunctions:
    minimum data exchange during FFTs selected (reduces bandwidth)
 parallel 3D FFT for charge:
    minimum data exchange during FFTs selected (reduces bandwidth)


 total amount of memory used by VASP MPI-rank0   247125. kBytes
=======================================================================

   base      :      30000. kBytes
   nonlr-proj:      34779. kBytes
   fftplans  :      18297. kBytes
   grid      :      53173. kBytes
   one-center:        653. kBytes
   wavefun   :     110223. kBytes
 
     INWAV:  cpu time    0.0000: real time    0.0000
 Broyden mixing: mesh for mixing (old mesh)
   NGX = 43   NGY = 43   NGZ = 85
  (NGX  =180   NGY  =180   NGZ  =336)
  gives a total of 157165 points

 initial charge density was supplied:
 charge density of overlapping atoms calculated
 number of electron     754.0000000 magnetization     238.0000000
 keeping initial charge density in first step


--------------------------------------------------------------------------------------------------------


 Maximum index for non-local projection operator         2108
 Maximum index for augmentation-charges         1122 (set IRDMAX)


--------------------------------------------------------------------------------------------------------


 First call to EWALD:  gamma=   0.132
 Maximum number of real-space cells 4x 4x 2
 Maximum number of reciprocal cells 2x 2x 4

    FEWALD:  cpu time    0.0048: real time    0.0051


--------------------------------------- Iteration      1(   1)  ---------------------------------------


    POTLOK:  cpu time    0.4278: real time    0.4313
    SETDIJ:  cpu time    0.0342: real time    0.0348
     EDDAV:  cpu time   64.1339: real time   64.3260
       DOS:  cpu time    0.0034: real time    0.0999
    --------------------------------------------
      LOOP:  cpu time   64.5994: real time   64.8921

 eigenvalue-minimisations  :  9216
 total energy-change (2. order) : 0.6739885E+04  (-0.3269908E+05)
 number of electron     754.0000000 magnetization     238.0000000
 augmentation part      754.0000000 magnetization     238.0000000

 Free energy of the ion-electron system (eV)
  ---------------------------------------------------
  alpha Z        PSCENC =      1885.12594062
  Ewald energy   TEWEN  =    213206.81022180
  -Hartree energ DENC   =   -278184.85448101
  -exchange      EXHF   =         0.00000000
  -V(xc)+E(xc)   XCENC  =      1038.86867977
  PAW double counting   =     58246.24677956   -59395.80901338
  entropy T*S    EENTRO =         0.00281544
  eigenvalues    EBANDS =      6569.42670743
  atomic energy  EATOM  =     63374.06744491
  Solvation  Ediel_sol  =         0.00000000
  ---------------------------------------------------
  free energy    TOTEN  =      6739.88509514 eV

  energy without entropy =     6739.88227971  energy(sigma->0) =     6739.88415667


--------------------------------------------------------------------------------------------------------




--------------------------------------- Iteration      1(   2)  ---------------------------------------


     EDDAV:  cpu time   64.1593: real time   64.3302
       DOS:  cpu time    0.0025: real time    0.0498
    --------------------------------------------
      LOOP:  cpu time   64.1618: real time   64.3799

 eigenvalue-minimisations  :  9216
 total energy-change (2. order) :-0.6346818E+04  (-0.5721533E+04)
 number of electron     754.0000000 magnetization     238.0000000
 augmentation part      754.0000000 magnetization     238.0000000

 Free energy of the ion-electron system (eV)
  ---------------------------------------------------
  alpha Z        PSCENC =      1885.12594062
  Ewald energy   TEWEN  =    213206.81022180
  -Hartree energ DENC   =   -278184.85448101
  -exchange      EXHF   =         0.00000000
  -V(xc)+E(xc)   XCENC  =      1038.86867977
  PAW double counting   =     58246.24677956   -59395.80901338
  entropy T*S    EENTRO =         0.00676284
  eigenvalues    EBANDS =       222.60472421
  atomic energy  EATOM  =     63374.06744491
  Solvation  Ediel_sol  =         0.00000000
  ---------------------------------------------------
  free energy    TOTEN  =       393.06705933 eV

  energy without entropy =      393.06029649  energy(sigma->0) =      393.06480505


--------------------------------------------------------------------------------------------------------




--------------------------------------- Iteration      1(   3)  ---------------------------------------


     EDDAV:  cpu time   67.4674: real time   67.7627
       DOS:  cpu time    0.0027: real time    0.0040
    --------------------------------------------
      LOOP:  cpu time   67.4701: real time   67.7668

 eigenvalue-minimisations  :  9864
 total energy-change (2. order) :-0.8700852E+03  (-0.7214930E+03)
 number of electron     754.0000000 magnetization     238.0000000
 augmentation part      754.0000000 magnetization     238.0000000

 Free energy of the ion-electron system (eV)
  ---------------------------------------------------
  alpha Z        PSCENC =      1885.12594062
  Ewald energy   TEWEN  =    213206.81022180
  -Hartree energ DENC   =   -278184.85448101
  -exchange      EXHF   =         0.00000000
  -V(xc)+E(xc)   XCENC  =      1038.86867977
  PAW double counting   =     58246.24677956   -59395.80901338
  entropy T*S    EENTRO =        -0.01365432
  eigenvalues    EBANDS =      -647.46006254
  atomic energy  EATOM  =     63374.06744491
  Solvation  Ediel_sol  =         0.00000000
  ---------------------------------------------------
  free energy    TOTEN  =      -477.01814458 eV

  energy without entropy =     -477.00449026  energy(sigma->0) =     -477.01359314


--------------------------------------------------------------------------------------------------------




--------------------------------------- Iteration      1(   4)  ---------------------------------------


     EDDAV:  cpu time   70.5639: real time   70.8150
       DOS:  cpu time    0.0031: real time    0.0040
    --------------------------------------------
      LOOP:  cpu time   70.5669: real time   70.8190

 eigenvalue-minimisations  : 10452
 total energy-change (2. order) :-0.5835173E+02  (-0.5591679E+02)
 number of electron     754.0000000 magnetization     238.0000000
 augmentation part      754.0000000 magnetization     238.0000000

 Free energy of the ion-electron system (eV)
  ---------------------------------------------------
  alpha Z        PSCENC =      1885.12594062
  Ewald energy   TEWEN  =    213206.81022180
  -Hartree energ DENC   =   -278184.85448101
  -exchange      EXHF   =         0.00000000
  -V(xc)+E(xc)   XCENC  =      1038.86867977
  PAW double counting   =     58246.24677956   -59395.80901338
  entropy T*S    EENTRO =        -0.02011025
  eigenvalues    EBANDS =      -705.80533841
  atomic energy  EATOM  =     63374.06744491
  Solvation  Ediel_sol  =         0.00000000
  ---------------------------------------------------
  free energy    TOTEN  =      -535.36987638 eV

  energy without entropy =     -535.34976613  energy(sigma->0) =     -535.36317296


--------------------------------------------------------------------------------------------------------




--------------------------------------- Iteration      1(   5)  ---------------------------------------


     EDDAV:  cpu time   72.6476: real time   72.9091
       DOS:  cpu time    0.0029: real time    0.0041
    CHARGE:  cpu time    4.3905: real time    4.4884
    MIXING:  cpu time    0.0126: real time    0.0127
    --------------------------------------------
      LOOP:  cpu time   77.0537: real time   77.4143

 eigenvalue-minimisations  : 10860
 total energy-change (2. order) :-0.1293731E+01  (-0.1290057E+01)
 number of electron     754.0000001 magnetization     225.2431527
 augmentation part      316.2322200 magnetization     184.1643477

 Broyden mixing:
  rms(total) = 0.10506E+02    rms(broyden)= 0.10506E+02
  rms(prec ) = 0.10860E+02
  weight for this iteration     100.00

 Free energy of the ion-electron system (eV)
  ---------------------------------------------------
  alpha Z        PSCENC =      1885.12594062
  Ewald energy   TEWEN  =    213206.81022180
  -Hartree energ DENC   =   -278184.85448101
  -exchange      EXHF   =         0.00000000
  -V(xc)+E(xc)   XCENC  =      1038.86867977
  PAW double counting   =     58246.24677956   -59395.80901338
  entropy T*S    EENTRO =        -0.02009534
  eigenvalues    EBANDS =      -707.09908387
  atomic energy  EATOM  =     63374.06744491
  Solvation  Ediel_sol  =         0.00000000
  ---------------------------------------------------
  free energy    TOTEN  =      -536.66360693 eV

  energy without entropy =     -536.64351159  energy(sigma->0) =     -536.65690848


--------------------------------------------------------------------------------------------------------




--------------------------------------- Iteration      1(   6)  ---------------------------------------


    POTLOK:  cpu time    0.4060: real time    0.4290
    SETDIJ:  cpu time    0.0325: real time    0.0326
    EDDIAG:  cpu time   11.7014: real time   11.7576
  RMM-DIIS:  cpu time   41.1182: real time   41.2307
    ORTHCH:  cpu time    1.2237: real time    1.2308
       DOS:  cpu time    0.0025: real time    0.0025
    CHARGE:  cpu time    4.2635: real time    4.2805
    MIXING:  cpu time    0.0118: real time    0.0124
    --------------------------------------------
      LOOP:  cpu time   58.7595: real time   58.9761

 eigenvalue-minimisations  :  9283
 total energy-change (2. order) :-0.2047771E+03  (-0.9083844E+02)
 number of electron     753.9999993 magnetization     221.9626333
 augmentation part      386.8804492 magnetization     188.2481948

 Broyden mixing:
  rms(total) = 0.21807E+02    rms(broyden)= 0.21807E+02
  rms(prec ) = 0.27322E+02
  weight for this iteration     100.00

 eigenvalues of (default mixing * dielectric matrix)
  average eigenvalue GAMMA=   0.1499
  0.1499

 Free energy of the ion-electron system (eV)
  ---------------------------------------------------
  alpha Z        PSCENC =      1885.12594062
  Ewald energy   TEWEN  =    213206.81022180
  -Hartree energ DENC   =   -277096.16857606
  -exchange      EXHF   =         0.00000000
  -V(xc)+E(xc)   XCENC  =      1001.39012248
  PAW double counting   =     63106.00529154   -64091.13904879
  entropy T*S    EENTRO =        -0.00213778
  eigenvalues    EBANDS =     -2127.52998939
  atomic energy  EATOM  =     63374.06744491
  Solvation  Ediel_sol  =         0.00000000
  ---------------------------------------------------
  free energy    TOTEN  =      -741.44073067 eV

  energy without entropy =     -741.43859289  energy(sigma->0) =     -741.44001808


--------------------------------------------------------------------------------------------------------




--------------------------------------- Iteration      1(   7)  ---------------------------------------


    POTLOK:  cpu time    0.4058: real time    0.4307
    SETDIJ:  cpu time    0.0331: real time    0.0332
    EDDIAG:  cpu time   11.6926: real time   11.7354
  RMM-DIIS:  cpu time   40.8948: real time   41.0469
    ORTHCH:  cpu time    1.2208: real time    1.2246
       DOS:  cpu time    0.0024: real time    0.0025
    CHARGE:  cpu time    4.3186: real time    4.3302
    MIXING:  cpu time    0.0124: real time    0.0125
    --------------------------------------------
      LOOP:  cpu time   58.5806: real time   58.8160

 eigenvalue-minimisations  :  9241
 total energy-change (2. order) : 0.2364112E+03  (-0.1461474E+02)
 number of electron     753.9999996 magnetization     218.6476399
 augmentation part      349.8126778 magnetization     172.4800139

 Broyden mixing:
  rms(total) = 0.14400E+02    rms(broyden)= 0.14400E+02
  rms(prec ) = 0.18072E+02
  weight for this iteration     100.00

 eigenvalues of (default mixing * dielectric matrix)
  average eigenvalue GAMMA=   0.2061
  0.2061  0.2061

 Free energy of the ion-electron system (eV)
  ---------------------------------------------------
  alpha Z        PSCENC =      1885.12594062
  Ewald energy   TEWEN  =    213206.81022180
  -Hartree energ DENC   =   -277523.22203260
  -exchange      EXHF   =         0.00000000
  -V(xc)+E(xc)   XCENC  =      1016.97382269
  PAW double counting   =     63946.89988055   -65055.44592344
  entropy T*S    EENTRO =        -0.00613266
  eigenvalues    EBANDS =     -1356.23278989
  atomic energy  EATOM  =     63374.06744491
  Solvation  Ediel_sol  =         0.00000000
  ---------------------------------------------------
  free energy    TOTEN  =      -505.02956802 eV

  energy without entropy =     -505.02343536  energy(sigma->0) =     -505.02752380


--------------------------------------------------------------------------------------------------------




--------------------------------------- Iteration      1(   8)  ---------------------------------------


    POTLOK:  cpu time    0.4058: real time    0.4174
    SETDIJ:  cpu time    0.0332: real time    0.0334
    EDDIAG:  cpu time   11.7359: real time   11.7695
  RMM-DIIS:  cpu time   40.9323: real time   41.0425
    ORTHCH:  cpu time    1.2271: real time    1.2309
       DOS:  cpu time    0.0027: real time    0.0027
    CHARGE:  cpu time    4.2212: real time    4.2326
    MIXING:  cpu time    0.0131: real time    0.0133
    --------------------------------------------
      LOOP:  cpu time   58.5712: real time   58.7423

 eigenvalue-minimisations  :  9245
 total energy-change (2. order) : 0.2851514E+02  (-0.1074051E+02)
 number of electron     754.0000008 magnetization     212.0223440
 augmentation part      352.6409174 magnetization     171.6594985

 Broyden mixing:
  rms(total) = 0.14810E+02    rms(broyden)= 0.14809E+02
  rms(prec ) = 0.18026E+02
  weight for this iteration     100.00

 eigenvalues of (default mixing * dielectric matrix)
  average eigenvalue GAMMA=   0.2679
  0.3850  0.3398  0.0789

 Free energy of the ion-electron system (eV)
  ---------------------------------------------------
  alpha Z        PSCENC =      1885.12594062
  Ewald energy   TEWEN  =    213206.81022180
  -Hartree energ DENC   =   -277577.89035510
  -exchange      EXHF   =         0.00000000
  -V(xc)+E(xc)   XCENC  =      1016.46601896
  PAW double counting   =     64742.23850077   -65882.59407766
  entropy T*S    EENTRO =         0.00255554
  eigenvalues    EBANDS =     -1240.74067782
  atomic energy  EATOM  =     63374.06744491
  Solvation  Ediel_sol  =         0.00000000
  ---------------------------------------------------
  free energy    TOTEN  =      -476.51442797 eV

  energy without entropy =     -476.51698352  energy(sigma->0) =     -476.51527982


--------------------------------------------------------------------------------------------------------




--------------------------------------- Iteration      1(   9)  ---------------------------------------


    POTLOK:  cpu time    0.4078: real time    0.4237
    SETDIJ:  cpu time    0.0333: real time    0.0335
    EDDIAG:  cpu time   11.7188: real time   11.7558
  RMM-DIIS:  cpu time   40.9884: real time   41.1000
    ORTHCH:  cpu time    1.2273: real time    1.2317
       DOS:  cpu time    0.0025: real time    0.0026
    CHARGE:  cpu time    4.2297: real time    4.2412
    MIXING:  cpu time    0.0129: real time    0.0131
    --------------------------------------------
      LOOP:  cpu time   58.6211: real time   58.8020

 eigenvalue-minimisations  :  9251
 total energy-change (2. order) :-0.4492850E+02  (-0.1531077E+02)
 number of electron     753.9999996 magnetization     204.5329600
 augmentation part      359.0226987 magnetization     159.0237082

 Broyden mixing:
  rms(total) = 0.16425E+02    rms(broyden)= 0.16425E+02
  rms(prec ) = 0.18935E+02
  weight for this iteration     100.00

 eigenvalues of (default mixing * dielectric matrix)
  average eigenvalue GAMMA=   0.3082
  0.7062  0.3310  0.0979  0.0979

 Free energy of the ion-electron system (eV)
  ---------------------------------------------------
  alpha Z        PSCENC =      1885.12594062
  Ewald energy   TEWEN  =    213206.81022180
  -Hartree energ DENC   =   -277201.80878576
  -exchange      EXHF   =         0.00000000
  -V(xc)+E(xc)   XCENC  =      1032.26069356
  PAW double counting   =     65975.49256504   -67136.75151850
  entropy T*S    EENTRO =         0.00335767
  eigenvalues    EBANDS =     -1656.64285223
  atomic energy  EATOM  =     63374.06744491
  Solvation  Ediel_sol  =         0.00000000
  ---------------------------------------------------
  free energy    TOTEN  =      -521.44293288 eV

  energy without entropy =     -521.44629055  energy(sigma->0) =     -521.44405210


--------------------------------------------------------------------------------------------------------




--------------------------------------- Iteration      1(  10)  ---------------------------------------


    POTLOK:  cpu time    0.4079: real time    0.4100
    SETDIJ:  cpu time    0.0335: real time    0.0336
    EDDIAG:  cpu time   11.7104: real time   11.7424
  RMM-DIIS:  cpu time   40.9638: real time   41.1697
    ORTHCH:  cpu time    1.2214: real time    1.2251
       DOS:  cpu time    0.0025: real time    0.0025
    CHARGE:  cpu time    4.2899: real time    4.3014
    MIXING:  cpu time    0.0133: real time    0.0133
    --------------------------------------------
      LOOP:  cpu time   58.6424: real time   58.8978

 eigenvalue-minimisations  :  9255
 total energy-change (2. order) : 0.8760573E+02  (-0.1243156E+02)
 number of electron     753.9999996 magnetization     198.8342901
 augmentation part      359.0507839 magnetization     144.9112778

 Broyden mixing:
  rms(total) = 0.10664E+02    rms(broyden)= 0.10663E+02
  rms(prec ) = 0.12922E+02
  weight for this iteration     100.00

 eigenvalues of (default mixing * dielectric matrix)
  average eigenvalue GAMMA=   0.3349
  0.6532  0.6532  0.1426  0.1426  0.0831

 Free energy of the ion-electron system (eV)
  ---------------------------------------------------
  alpha Z        PSCENC =      1885.12594062
  Ewald energy   TEWEN  =    213206.81022180
  -Hartree energ DENC   =   -277639.91787830
  -exchange      EXHF   =         0.00000000
  -V(xc)+E(xc)   XCENC  =      1037.05982299
  PAW double counting   =     67383.82574156   -68599.16834091
  entropy T*S    EENTRO =         0.00163166
  eigenvalues    EBANDS =     -1081.64179152
  atomic energy  EATOM  =     63374.06744491
  Solvation  Ediel_sol  =         0.00000000
  ---------------------------------------------------
  free energy    TOTEN  =      -433.83720717 eV

  energy without entropy =     -433.83883883  energy(sigma->0) =     -433.83775106


--------------------------------------------------------------------------------------------------------




--------------------------------------- Iteration      1(  11)  ---------------------------------------


    POTLOK:  cpu time    0.4096: real time    0.4128
    SETDIJ:  cpu time    0.0332: real time    0.0333
    EDDIAG:  cpu time   11.7162: real time   11.7546
  RMM-DIIS:  cpu time   41.0222: real time   41.1334
    ORTHCH:  cpu time    1.2253: real time    1.2288
       DOS:  cpu time    0.0028: real time    0.0028
    CHARGE:  cpu time    4.2672: real time    4.2785
    MIXING:  cpu time    0.0131: real time    0.0132
    --------------------------------------------
      LOOP:  cpu time   58.6895: real time   58.8575

 eigenvalue-minimisations  :  9265
 total energy-change (2. order) : 0.5699706E+02  (-0.1074732E+02)
 number of electron     754.0000001 magnetization     193.1963136
 augmentation part      349.4431105 magnetization     143.2308677

 Broyden mixing:
  rms(total) = 0.10546E+02    rms(broyden)= 0.10546E+02
  rms(prec ) = 0.11469E+02
  weight for this iteration     100.00

 eigenvalues of (default mixing * dielectric matrix)
  average eigenvalue GAMMA=   0.3564
  1.0461  0.5283  0.2013  0.1400  0.1400  0.0826

 Free energy of the ion-electron system (eV)
  ---------------------------------------------------
  alpha Z        PSCENC =      1885.12594062
  Ewald energy   TEWEN  =    213206.81022180
  -Hartree energ DENC   =   -277744.82946263
  -exchange      EXHF   =         0.00000000
  -V(xc)+E(xc)   XCENC  =      1038.80920048
  PAW double counting   =     68150.94530102   -69408.59179562
  entropy T*S    EENTRO =        -0.00770355
  eigenvalues    EBANDS =      -879.16929685
  atomic energy  EATOM  =     63374.06744491
  Solvation  Ediel_sol  =         0.00000000
  ---------------------------------------------------
  free energy    TOTEN  =      -376.84014981 eV

  energy without entropy =     -376.83244626  energy(sigma->0) =     -376.83758196


--------------------------------------------------------------------------------------------------------




--------------------------------------- Iteration      1(  12)  ---------------------------------------


    POTLOK:  cpu time    0.4138: real time    0.4646
    SETDIJ:  cpu time    0.0339: real time    0.0342
    EDDIAG:  cpu time   11.7654: real time   11.8115
  RMM-DIIS:  cpu time   41.0191: real time   41.1363
    ORTHCH:  cpu time    1.2216: real time    1.2254
       DOS:  cpu time    0.0026: real time    0.0026
    CHARGE:  cpu time    4.3076: real time    4.3192
    MIXING:  cpu time    0.0133: real time    0.0134
    --------------------------------------------
      LOOP:  cpu time   58.7773: real time   59.0073

 eigenvalue-minimisations  :  9266
 total energy-change (2. order) :-0.6846412E+01  (-0.6241171E+01)
 number of electron     753.9999999 magnetization     189.2357329
 augmentation part      347.8028172 magnetization     139.3837363

 Broyden mixing:
  rms(total) = 0.10081E+02    rms(broyden)= 0.10081E+02
  rms(prec ) = 0.11027E+02
  weight for this iteration     100.00

 eigenvalues of (default mixing * dielectric matrix)
  average eigenvalue GAMMA=   0.3408
  1.1672  0.3734  0.3734  0.1341  0.1341  0.0835  0.1200

 Free energy of the ion-electron system (eV)
  ---------------------------------------------------
  alpha Z        PSCENC =      1885.12594062
  Ewald energy   TEWEN  =    213206.81022180
  -Hartree energ DENC   =   -277786.11346334
  -exchange      EXHF   =         0.00000000
  -V(xc)+E(xc)   XCENC  =      1030.55909464
  PAW double counting   =     68776.02454080   -70052.75559206
  entropy T*S    EENTRO =        -0.01516615
  eigenvalues    EBANDS =      -817.38958260
  atomic energy  EATOM  =     63374.06744491
  Solvation  Ediel_sol  =         0.00000000
[...]
   -.339E+02 0.413E+02 -.262E+04   0.339E+02 -.406E+02 0.262E+04   0.177E-01 -.722E+00 0.172E+01   -.181E-01 0.331E-02 0.181E-01
   -.226E+02 -.202E+02 -.263E+04   0.222E+02 0.205E+02 0.263E+04   0.382E+00 -.280E+00 0.266E+01   0.708E-03 -.207E-01 0.367E-02
   0.558E+02 0.176E+02 -.259E+04   -.553E+02 -.180E+02 0.259E+04   -.555E+00 0.448E+00 0.191E+01   0.220E-01 -.519E-03 0.229E-01
   -.252E+02 -.343E+01 -.269E+04   0.251E+02 0.210E+01 0.269E+04   0.161E+00 0.133E+01 0.214E+01   -.435E-02 0.155E-01 0.550E-02
   0.376E+02 -.834E+01 -.279E+04   -.374E+02 0.868E+01 0.278E+04   -.201E+00 -.320E+00 0.342E+01   0.357E-02 -.116E-01 -.807E-02
   -.159E+02 0.463E+02 -.266E+04   0.155E+02 -.460E+02 0.266E+04   0.351E+00 -.275E+00 0.227E+01   0.114E-02 0.837E-02 0.138E-01
   0.172E+02 -.635E+01 -.268E+04   -.166E+02 0.668E+01 0.267E+04   -.551E+00 -.308E+00 0.265E+01   0.644E-02 -.380E-02 0.104E-02
   -.543E+02 0.301E+01 -.270E+04   0.539E+02 -.316E+01 0.270E+04   0.428E+00 0.137E+00 0.208E+01   -.900E-02 0.204E-02 -.966E-02
   -.481E+02 -.680E+01 -.264E+04   0.487E+02 0.657E+01 0.264E+04   -.548E+00 0.222E+00 0.128E+01   -.124E-01 -.219E-03 0.223E-01
   -.161E+02 -.576E+02 -.271E+04   0.155E+02 0.572E+02 0.271E+04   0.607E+00 0.455E+00 0.219E+01   0.554E-02 -.334E-02 0.844E-02
   0.770E+02 0.368E+02 -.262E+04   -.764E+02 -.365E+02 0.262E+04   -.701E+00 -.316E+00 0.249E+01   0.127E-01 -.309E-02 -.298E-02
   0.399E+02 -.782E+01 -.266E+04   -.397E+02 0.833E+01 0.266E+04   -.122E+00 -.549E+00 0.259E+01   0.567E-02 0.201E-01 -.387E-02
   -.163E+02 -.113E+02 -.261E+04   0.158E+02 0.109E+02 0.261E+04   0.566E+00 0.498E+00 0.216E+01   0.251E-02 -.206E-01 0.215E-01
   0.132E+02 -.186E+02 -.270E+04   -.126E+02 0.184E+02 0.270E+04   -.580E+00 0.194E+00 0.238E+01   -.157E-01 0.975E-02 -.549E-03
   0.720E+02 -.844E+02 -.127E+04   -.708E+02 0.837E+02 0.127E+04   -.105E+01 0.640E+00 0.196E+01   -.633E-02 0.124E-01 0.271E-01
   -.108E+02 -.298E+02 -.138E+04   0.104E+02 0.290E+02 0.138E+04   0.433E+00 0.804E+00 0.285E+01   0.569E-03 -.123E-01 0.215E-01
   0.510E+02 0.212E+02 0.274E+04   -.510E+02 -.212E+02 -.274E+04   -.103E+00 0.533E-01 -.272E+01   0.405E-02 -.261E-01 0.715E-03
   -.954E+02 -.110E+03 0.185E+04   0.952E+02 0.110E+03 -.185E+04   0.215E+00 -.214E+00 0.135E+01   -.223E-01 0.518E-02 0.891E-02
   -.547E+01 0.389E+02 -.127E+04   0.608E+01 -.381E+02 0.127E+04   -.616E+00 -.796E+00 0.227E+01   0.889E-02 -.249E-01 0.198E-01
   -.434E+02 0.102E+03 0.286E+04   0.436E+02 -.102E+03 -.286E+04   -.193E+00 -.886E+00 -.236E+01   0.933E-02 -.246E-01 0.357E-02
   0.874E+02 0.245E+02 0.133E+04   -.876E+02 -.253E+02 -.133E+04   0.154E+00 0.866E+00 -.379E+00   0.206E-01 -.157E-01 -.157E-02
   0.947E+01 -.267E+02 -.264E+04   -.944E+01 0.264E+02 0.263E+04   -.413E-01 0.308E+00 0.174E+01   0.880E-02 -.309E-02 0.261E-02
   0.992E+02 0.853E+02 -.438E+01   -.991E+02 -.850E+02 0.391E+01   -.349E+00 -.394E+00 0.181E+00   0.192E-01 0.329E-01 0.115E-01
   -.828E+01 0.320E+02 -.271E+04   0.708E+01 -.313E+02 0.271E+04   0.124E+01 -.720E+00 0.241E+01   -.128E-01 -.681E-02 -.106E-01
   -.476E+02 0.109E+02 0.367E+03   0.476E+02 -.129E+02 -.367E+03   -.686E-01 0.192E+01 0.447E+00   -.127E-01 0.188E-01 -.579E-02
   -.773E+02 -.300E+01 -.134E+04   0.782E+02 0.225E+01 0.133E+04   -.851E+00 0.751E+00 0.286E+01   -.626E-02 0.147E-01 0.242E-01
   0.330E+02 0.231E+02 -.123E+04   -.339E+02 -.226E+02 0.122E+04   0.908E+00 -.456E+00 0.185E+01   0.326E-01 0.381E-02 0.200E-01
   -.419E+02 -.996E+02 0.597E+02   0.414E+02 0.990E+02 -.598E+02   0.389E+00 0.773E+00 0.403E-01   -.822E-02 -.207E-01 0.153E-01
   -.311E+02 -.244E+02 0.311E+02   0.315E+02 0.243E+02 -.313E+02   -.150E+00 0.894E-01 0.202E+00   -.138E-01 0.303E-01 -.725E-02
   0.782E+01 -.887E+01 -.100E+04   -.769E+01 0.880E+01 0.100E+04   -.135E+00 0.134E+00 0.409E+00   -.339E-02 0.561E-03 0.159E-01
   -.366E+02 0.128E+03 0.221E+04   0.380E+02 -.127E+03 -.221E+04   -.133E+01 -.126E+01 -.382E+01   -.469E-02 -.333E-02 0.848E-02
   0.577E+02 0.102E+03 0.219E+04   -.588E+02 -.102E+03 -.218E+04   0.102E+01 -.392E-01 -.352E+01   0.139E-01 0.586E-02 0.459E-02
   0.463E+02 0.442E+02 0.193E+04   -.458E+02 -.428E+02 -.193E+04   -.505E+00 -.133E+01 -.191E+01   -.993E-02 0.150E-01 0.276E-02
   0.773E+02 0.407E+02 0.118E+04   -.767E+02 -.405E+02 -.118E+04   -.666E+00 -.261E+00 -.323E+00   0.147E-01 -.176E-01 0.543E-02
   -.209E+02 -.117E+03 0.123E+04   0.212E+02 0.116E+03 -.123E+04   -.313E+00 0.275E-01 -.138E+00   -.137E-01 -.258E-01 0.162E-02
   -.636E+02 -.371E+02 -.109E+04   0.634E+02 0.373E+02 0.109E+04   0.258E+00 -.233E+00 0.687E-01   0.349E-02 -.511E-02 0.196E-01
   -.245E+03 -.492E+02 0.234E+04   0.243E+03 0.484E+02 -.234E+04   0.240E+01 0.765E+00 -.455E+01   -.619E-02 0.146E-02 0.155E-02
   -.220E+02 0.633E+02 0.120E+04   0.213E+02 -.632E+02 -.120E+04   0.745E+00 -.107E+00 -.515E+00   -.103E-02 -.757E-02 0.124E-03
   -.105E+03 -.460E+02 0.119E+03   0.105E+03 0.461E+02 -.119E+03   0.262E+00 -.102E+00 -.135E+00   -.119E-01 0.114E-01 -.554E-04
   0.789E+01 -.989E+02 -.116E+04   -.794E+01 0.985E+02 0.116E+04   0.586E-01 0.432E+00 0.407E+00   0.666E-04 -.193E-01 0.141E-01
   0.334E+02 0.653E+02 -.114E+04   -.331E+02 -.647E+02 0.114E+04   -.275E+00 -.711E+00 -.467E+00   -.667E-02 0.196E-01 0.133E-01
   -.436E+02 -.107E+03 0.224E+04   0.440E+02 0.105E+03 -.224E+04   -.365E+00 0.262E+01 -.421E+01   -.129E-01 -.298E-01 0.259E-02
   0.833E+02 0.142E+02 0.229E+04   -.832E+02 -.143E+02 -.228E+04   -.225E+00 0.824E-01 -.333E+01   0.196E-01 0.390E-02 -.165E-02
   0.328E+02 -.154E+02 0.123E+04   -.331E+02 0.154E+02 -.123E+04   0.334E+00 -.360E-01 0.326E+00   -.109E-01 -.263E-01 0.629E-02
   0.154E+03 0.754E+00 0.902E+03   -.155E+03 -.732E+00 -.903E+03   0.636E+00 -.632E-01 0.110E+01   0.183E-01 0.253E-01 0.662E-02
   0.505E+02 -.411E+02 0.259E+04   -.507E+02 0.411E+02 -.259E+04   0.235E+00 -.145E+00 -.289E+01   0.229E-02 0.241E-01 0.166E-01
   0.190E+03 -.514E+02 0.250E+04   -.188E+03 0.510E+02 -.250E+04   -.179E+01 0.454E+00 -.373E+01   -.280E-02 -.146E-02 -.827E-02
   -.716E+02 -.537E+02 0.129E+04   0.712E+02 0.531E+02 -.129E+04   0.439E+00 0.650E+00 -.132E+00   -.122E-02 -.136E-01 0.978E-02
   -.166E+03 0.314E+02 0.330E+02   0.166E+03 -.313E+02 -.329E+02   0.322E+00 -.279E+00 -.150E+00   -.147E-01 0.488E-02 0.173E-02
   -.220E+03 -.597E+01 0.150E+04   0.220E+03 0.691E+01 -.150E+04   -.156E+00 -.100E+01 0.699E-01   -.165E-01 0.930E-02 0.426E-02
   0.451E+02 0.772E+01 0.134E+04   -.451E+02 -.817E+01 -.134E+04   0.178E-01 0.456E+00 -.235E+00   0.119E-01 0.217E-01 0.986E-02
   0.120E+03 0.269E+02 -.136E+04   -.119E+03 -.268E+02 0.136E+04   -.905E+00 -.147E+00 0.339E+00   0.983E-02 -.456E-02 -.207E-02
   0.668E+02 -.235E+02 0.256E+04   -.659E+02 0.240E+02 -.256E+04   -.906E+00 -.544E+00 -.282E+01   0.182E-02 -.792E-02 0.906E-02
   -.635E+02 -.701E+01 0.138E+04   0.636E+02 0.744E+01 -.138E+04   -.109E+00 -.461E+00 -.129E-01   -.101E-01 0.509E-02 0.922E-02
   0.848E+02 -.117E+03 0.883E+01   -.847E+02 0.116E+03 -.831E+01   -.428E+00 0.125E+00 -.711E+00   0.561E-02 -.281E-01 0.109E-01
   0.246E+02 0.107E+03 0.949E+02   -.246E+02 -.107E+03 -.948E+02   -.354E-01 -.351E+00 -.405E-02   0.344E-02 -.195E-01 0.871E-02
   -.496E+01 0.544E+02 -.126E+04   0.496E+01 -.542E+02 0.126E+04   0.507E-01 -.190E+00 0.143E+00   -.136E-01 -.829E-02 0.842E-02
   -.913E+02 0.252E+02 -.131E+04   0.911E+02 -.251E+02 0.131E+04   0.362E+00 -.555E-01 0.790E+00   -.172E-01 -.750E-03 0.471E-02
   0.559E+02 0.131E+03 0.254E+04   -.561E+02 -.131E+03 -.254E+04   0.119E+00 -.377E+00 -.248E+01   0.319E-02 -.110E-01 0.421E-02
   -.764E+02 -.491E+02 0.255E+04   0.759E+02 0.500E+02 -.255E+04   0.498E+00 -.868E+00 -.286E+01   -.140E-01 -.127E-01 0.107E-01
   0.254E+02 -.326E+02 0.213E+03   -.256E+02 0.325E+02 -.213E+03   0.250E+00 -.858E-02 -.580E+00   -.272E-02 0.123E-01 0.133E-01
   -.125E+03 0.673E+01 0.286E+02   0.125E+03 -.693E+01 -.283E+02   0.247E+00 0.146E+00 -.300E+00   0.561E-02 -.820E-03 -.377E-02
   0.311E+01 0.197E+03 0.145E+04   -.340E+01 -.196E+03 -.144E+04   0.357E+00 -.748E+00 -.475E+00   -.465E-02 -.482E-02 0.122E-01
   0.911E+02 -.599E+02 0.786E+02   -.908E+02 0.594E+02 -.781E+02   -.324E+00 0.679E+00 -.488E+00   -.880E-02 -.944E-03 0.132E-02
   0.581E+02 -.824E+02 0.103E+03   -.576E+02 0.823E+02 -.103E+03   -.632E+00 0.120E+00 -.206E+00   0.105E-01 -.218E-01 0.262E-01
   -.147E+03 -.485E+02 0.150E+04   0.147E+03 0.488E+02 -.150E+04   0.305E+00 -.269E+00 -.821E+00   -.111E-01 0.217E-01 0.286E-02
   -.904E+02 0.943E-01 0.153E+04   0.909E+02 -.427E+00 -.153E+04   -.482E+00 0.314E+00 -.682E+00   -.284E-02 -.236E-01 0.428E-02
   -.230E+03 -.130E+03 0.291E+04   0.228E+03 0.129E+03 -.291E+04   0.141E+01 0.995E+00 -.353E+01   -.577E-02 0.171E-01 0.140E-01
   0.213E+03 -.343E+02 0.271E+04   -.213E+03 0.340E+02 -.271E+04   -.521E-01 0.292E+00 -.159E+01   0.234E-01 0.401E-01 0.116E-02
   0.105E+03 0.745E+01 0.149E+04   -.105E+03 -.759E+01 -.149E+04   -.237E+00 0.160E+00 0.432E-01   0.143E-01 0.256E-01 0.479E-02
   0.142E+03 -.333E+02 0.130E+04   -.142E+03 0.331E+02 -.130E+04   -.471E+00 0.232E+00 -.413E+00   0.279E-01 0.224E-01 0.928E-02
   -.735E+01 -.427E+02 -.140E+04   0.725E+01 0.425E+02 0.140E+04   0.141E+00 0.219E+00 0.241E+00   -.990E-02 0.111E-01 0.277E-01
   0.240E+02 0.219E+02 0.287E+04   -.245E+02 -.216E+02 -.287E+04   0.521E+00 -.298E+00 -.841E+00   -.137E-02 0.922E-02 0.781E-02
   -.604E+02 0.169E+03 -.942E+01   0.604E+02 -.169E+03 0.976E+01   0.368E-01 -.180E-01 -.519E+00   -.653E-02 -.166E-01 0.338E-03
   -.251E+02 0.583E+02 -.188E+02   0.251E+02 -.574E+02 0.189E+02   0.115E+00 -.824E+00 -.113E+00   -.111E-01 0.600E-03 0.758E-02
   0.207E+03 0.320E+02 -.176E+03   -.207E+03 -.315E+02 0.176E+03   0.974E-01 -.519E+00 -.516E+00   0.308E-01 0.401E-02 0.390E-02
   -.608E+02 -.873E+02 0.126E+03   0.609E+02 0.869E+02 -.126E+03   -.499E-02 0.381E+00 0.164E+00   -.100E-01 -.312E-01 0.179E-01
   -.577E+00 0.157E+01 -.313E+03   0.364E+00 -.162E+01 0.314E+03   0.199E+00 0.540E-01 -.126E+01   -.477E-03 0.200E-03 -.693E-03
 -----------------------------------------------------------------------------------------------
   -.213E+01 -.130E+01 -.456E+01   0.520E-13 -.549E-12 0.625E-11   0.214E+01 0.135E+01 0.394E+01   0.119E-01 -.186E-01 0.635E+00
 
 
 POSITION                                       TOTAL-FORCE (eV/Angst)
 -----------------------------------------------------------------------------------
     13.67386      8.45138      6.70373        -0.010380     -0.010598     -0.013265
      5.21651      8.46294      6.58767        -0.009035     -0.007630      0.025381
      5.17603      3.49816      6.82980        -0.021204     -0.003612      0.006215
     15.14418      9.28906      8.93648         0.018815     -0.004637     -0.028516
      3.85564      4.43078      9.02129        -0.003991      0.004776     -0.000043
      6.73404      9.21108      8.85849        -0.004446     -0.007616     -0.034262
     12.24788      4.30384      9.09442         0.000393     -0.003113      0.004549
      9.55386      9.27365      9.15753         0.005590      0.005475      0.008405
     10.91435      1.93822      8.92587        -0.005723     -0.009934     -0.000166
      2.51998      1.96856      9.03672         0.006482      0.010486      0.002475
     12.33079      9.25297      9.09789        -0.004369     -0.005387      0.005815
     13.76151      6.86863      9.09132         0.008345      0.007469     -0.042364
      5.28824      1.95941      9.13173        -0.001554      0.008275      0.000603
      8.08178      6.82158      8.90643        -0.003487      0.004589     -0.019179
      9.47575      4.40890      8.97185        -0.008369     -0.008894      0.012492
      5.25415      6.84123      8.96318         0.011647      0.022756     -0.001268
      8.14586      1.96984      9.04235         0.004725      0.002125      0.006983
      8.09085      3.54085      6.75817         0.010317      0.005870      0.008519
      6.66640      1.08764      6.88644        -0.003811     -0.014266      0.012013
      6.68830      1.13624      1.16869         0.008784     -0.013541     -0.025852
      3.54481      4.07903      2.60632         0.003797      0.005921     -0.037991
      1.24299      1.20765      6.73754         0.010856      0.006647      0.006478
      0.89178      1.06685      0.94626        -0.012935      0.000352     -0.008728
      6.65662      9.25676      3.21225         0.004349      0.011055     -0.057785
      6.68211      4.39549      8.99743         0.006704     -0.002003      0.002572
      8.21162      5.46055      4.88522        -0.199377      0.002448     -0.229901
     10.86325      6.86454      9.11933        -0.000587     -0.000768      0.005188
     14.89052      7.35140      4.54429        -0.018511      0.007895      0.070064
     12.39705      5.98238      6.89248         0.003728      0.010065      0.004029
      6.45331      5.96866      6.72820        -0.000865      0.012962      0.003595
      3.61025      2.53567      4.92929        -0.151399      0.202823     -0.070032
     10.87699      5.23710      4.87771         0.239915     -0.026233     -0.065447
      3.86862      6.03167      6.84764        -0.017236     -0.002778     -0.008464
     13.83953      8.59728      1.29834         0.018307      0.005075      0.015724
      5.33586      8.40288      1.25445         0.005878     -0.013584      0.056776
      4.16277      6.39081      1.85096         0.023925     -0.016763      0.010857
      8.19107      2.05273      3.03386         0.015485     -0.027756     -0.011109
      9.58169      9.27602      2.99468         0.027843     -0.000195      0.019666
      2.41158      3.62628      6.98735         0.023369      0.007191     -0.011773
     13.01773      3.43953      0.94254        -0.024758      0.008696     -0.002588
     10.87071      1.99839      2.96738         0.024679      0.002065     -0.013005
     13.56890      5.06817      4.77058        -0.003672      0.034529      0.095741
      3.97859      1.05036      7.03659         0.000974      0.006020     -0.002450
      9.61177      6.12029      6.99980         0.005214     -0.022112     -0.003452
      3.81646      1.07543      1.16136        -0.009951     -0.011317      0.015808
      8.06104      3.56771      1.10023        -0.016856     -0.004315     -0.012960
      5.20370      2.03419      2.97809        -0.003598     -0.056608      0.072096
      5.89506      6.72021      3.47528        -0.019412     -0.006274     -0.034207
      9.35391      6.06988      1.14808         0.011443     -0.032169      0.026716
      5.63380      3.63292      1.23723         0.053051      0.060974     -0.006666
     12.43866      9.06023      3.09611         0.005606      0.001463     -0.041528
     12.07766      7.63668      4.91324         0.047098     -0.047777      0.084250
     13.13008      6.61689      2.83040        -0.052684      0.011653     -0.022247
      9.41148      4.47169      2.86934         0.026761     -0.031411      0.019873
      8.50675      8.52617      7.01190         0.014398     -0.018452      0.005837
      8.18243      8.58957      1.16315        -0.014095      0.013678     -0.017570
     10.79405      6.97057      2.90238        -0.004036      0.007040      0.041556
      2.82111      0.14512      5.04740        -0.203210     -0.059041     -0.054456
      8.14725      0.55026      4.88481         0.004786     -0.056627      0.065532
      9.39644      1.20438      6.89096         0.002586      0.002864     -0.011140
     10.92598      8.47220      6.98451         0.013917     -0.003670      0.002592
      9.41942      1.26692      1.12252        -0.009027     -0.004149     -0.006626
     10.94856      8.54855      1.21986        -0.003262      0.017273     -0.007479
      4.89717      4.95488      4.77673         0.034313      0.008733      0.017829
     12.17792      2.91818      4.92019         0.016676     -0.038765      0.088826
     15.17875      9.49973      3.06084         0.005198      0.018756      0.012448
      9.60048      2.82018      4.87865        -0.030002      0.043476      0.053769
      6.60502      2.54502      4.87077        -0.015738     -0.033293      0.028053
     12.08196      4.24602      2.88896         0.010780      0.011842     -0.049266
      2.28916      1.82528      2.94996         0.002160     -0.041640      0.040455
     11.76886      5.74999      1.05362         0.005367     -0.007029     -0.008648
      6.84033      5.98705      1.38644        -0.010916      0.005890      0.012785
      8.30437      7.12497      3.00063        -0.000938      0.033889      0.021784
      6.85459      4.22009      3.15394        -0.052895     -0.029323     -0.001290
     10.88610      3.57493      6.91581        -0.009570      0.015142     -0.008062
     10.60151      3.45495      1.03917        -0.000060     -0.008711     -0.027627
     10.73179      0.68889      4.99664         0.003306      0.011826     -0.072372
      9.67006      7.71157      4.99333         0.035335      0.113854      0.139541
      7.17143      7.81748      5.18228         0.032478     -0.012566      0.007841
      5.29940      0.29561      4.91544         0.162278     -0.079832     -0.038848
     12.40081      5.98241      9.88298        -0.015703      0.010473     -0.033101
 -----------------------------------------------------------------------------------
    total drift:                                0.020699      0.034210      0.014709


--------------------------------------------------------------------------------------------------------



  FREE ENERGIE OF THE ION-ELECTRON SYSTEM (eV)
  ---------------------------------------------------
  free  energy   TOTEN  =      -538.39948365 eV

  energy  without entropy=     -538.40589078  energy(sigma->0) =     -538.40161936
 
 d Force = 0.2164534E-02[ 0.130E-02, 0.303E-02]  d Energy = 0.2299554E-02-0.135E-03
 d Force =-0.6752399E+01[-0.675E+01,-0.675E+01]  d Ewald  =-0.6752400E+01 0.113E-05


--------------------------------------------------------------------------------------------------------


    POTLOK:  cpu time    0.4413: real time    0.4430


--------------------------------------------------------------------------------------------------------


 Conjugate gradient step on ions:
 trial-energy change:   -0.002300  1 .order   -0.002165   -0.003026   -0.001303
  (g-gl).g = 0.213E-02      g.g   = 0.193E-02  gl.gl    = 0.526E-02
 g(Force)  = 0.193E-02   g(Stress)= 0.000E+00 ortho     =-0.999E-04
 gamma     =   0.40479
 trial     =   1.60439
 opt step  =   2.32554  (harmonic =   2.81679) maximal distance =0.00601066
 next E    =  -538.399789   (d E  =  -0.00260)


--------------------------------------------------------------------------------------------------------


  
 reached required accuracy - stopping structural energy minimisation
     LOOP+:  cpu time  816.2262: real time  818.9337
    4ORBIT:  cpu time    0.0000: real time    0.0000

 total amount of memory used by VASP MPI-rank0   247125. kBytes
=======================================================================

   base      :      30000. kBytes
   nonlr-proj:      34779. kBytes
   fftplans  :      18297. kBytes
   grid      :      53173. kBytes
   one-center:        653. kBytes
   wavefun   :     110223. kBytes
 
  
  
 General timing and accounting informations for this job:
 ========================================================
  
                  Total CPU time used (sec):    11614.657
                            User time (sec):    11280.776
                          System time (sec):      333.881
                         Elapsed time (sec):    11674.087
  
                   Maximum memory used (kb):      433968.
                   Average memory used (kb):           0.
  
                          Minor page faults:      2776947
                          Major page faults:          239
                 Voluntary context switches:         8512
